<event>
 5    1  0.4710515E-007  0.2000347E+02  0.7818608E-02  0.1745259E+00
          4   -1    0    0  501    0  0.00000000000E+00  0.00000000000E+00  0.77804380866E+00  0.16191825617E+01  0.14200000000E+01 0. -1.
         -4   -1    0    0    0  501 -0.00000000000E+00 -0.00000000000E+00 -0.82609306233E+02  0.82621509767E+02  0.14200000000E+01 0.  1.
       1023    2    1    2    0    0  0.00000000000E+00  0.00000000000E+00 -0.81831262424E+02  0.84240692329E+02  0.20003468054E+02 0.  0.
        -13    1    3    3    0    0  0.81548151595E+01 -0.57896029430E+01 -0.40685025008E+02  0.41896335698E+02  0.10570000000E+00 0.  1.
         13    1    3    3    0    0 -0.81548151595E+01  0.57896029430E+01 -0.41146237416E+02  0.42344356631E+02  0.10570000000E+00 0. -1.
<mgrwt>
<rscale>  0 0.20003468E+02</rscale>
<asrwt>0</asrwt>
<pdfrwt beam="1">  1        4 0.18534083E-03 0.20003468E+02</pdfrwt>
<pdfrwt beam="2">  1       -4 0.12774761E-01 0.20003468E+02</pdfrwt>
<totfact> 0.10271130E+06</totfact>
</mgrwt>
</event>
<event>
 5    1  0.4710515E-007  0.2001168E+02  0.7818608E-02  0.1745096E+00
          4   -1    0    0  501    0  0.00000000000E+00  0.00000000000E+00  0.42281662439E+02  0.42305500572E+02  0.14200000000E+01 0.  1.
         -4   -1    0    0    0  501 -0.00000000000E+00 -0.00000000000E+00 -0.21281648010E+01  0.25584146303E+01  0.14200000000E+01 0. -1.
       1023    2    1    2    0    0  0.00000000000E+00  0.00000000000E+00  0.40153497638E+02  0.44863915202E+02  0.20011684454E+02 0.  0.
        -13    1    3    3    0    0  0.94560889779E+01 -0.32640524819E+01  0.19663068818E+02  0.22061711293E+02  0.10570000000E+00 0.  1.
         13    1    3    3    0    0 -0.94560889779E+01  0.32640524819E+01  0.20490428821E+02  0.22802203909E+02  0.10570000000E+00 0. -1.
<mgrwt>
<rscale>  0 0.20011684E+02</rscale>
<asrwt>0</asrwt>
<pdfrwt beam="1">  1        4 0.65398006E-02 0.20011684E+02</pdfrwt>
<pdfrwt beam="2">  1       -4 0.36233983E-03 0.20011684E+02</pdfrwt>
<totfact> 0.11727979E+06</totfact>
</mgrwt>
</event>
<event>
 5    1  0.4710515E-007  0.2000725E+02  0.7818608E-02  0.1745184E+00
          4   -1    0    0  501    0  0.00000000000E+00  0.00000000000E+00  0.20463352502E+01  0.24907605176E+01  0.14200000000E+01 0. -1.
         -4   -1    0    0    0  501 -0.00000000000E+00 -0.00000000000E+00 -0.43655928105E+02  0.43679016229E+02  0.14200000000E+01 0.  1.
       1023    2    1    2    0    0  0.00000000000E+00  0.00000000000E+00 -0.41609592855E+02  0.46169776746E+02  0.20007250367E+02 0.  0.
        -13    1    3    3    0    0  0.40791265135E+01 -0.91335631083E+01 -0.20827425324E+02  0.23105282216E+02  0.10570000000E+00 0.  1.
         13    1    3    3    0    0 -0.40791265135E+01  0.91335631083E+01 -0.20782167531E+02  0.23064494530E+02  0.10570000000E+00 0. -1.
<mgrwt>
<rscale>  0 0.20007250E+02</rscale>
<asrwt>0</asrwt>
<pdfrwt beam="1">  1        4 0.35078341E-03 0.20007250E+02</pdfrwt>
<pdfrwt beam="2">  1       -4 0.67522585E-02 0.20007250E+02</pdfrwt>
<totfact> 0.11675840E+06</totfact>
</mgrwt>
</event>
<event>
 5    1  0.4710515E-007  0.2000162E+02  0.7818608E-02  0.1745296E+00
         -4   -1    0    0    0  501 -0.00000000000E+00  0.00000000000E+00  0.18056258830E+02  0.18112009356E+02  0.14200000000E+01 0.  1.
          4   -1    0    0  501    0  0.00000000000E+00 -0.00000000000E+00 -0.53826370467E+01  0.55667927549E+01  0.14200000000E+01 0. -1.
       1023    2    1    2    0    0  0.00000000000E+00  0.00000000000E+00  0.12673621783E+02  0.23678802111E+02  0.20001624442E+02 0.  0.
        -13    1    3    3    0    0 -0.97701342795E+01  0.21325878327E+01  0.62891931519E+01  0.11813914580E+02  0.10570000000E+00 0.  1.
         13    1    3    3    0    0  0.97701342795E+01 -0.21325878327E+01  0.63844286313E+01  0.11864887532E+02  0.10570000000E+00 0. -1.
<mgrwt>
<rscale>  0 0.20001624E+02</rscale>
<asrwt>0</asrwt>
<pdfrwt beam="2">  1        4 0.84655232E-03 0.20001624E+02</pdfrwt>
<pdfrwt beam="1">  1       -4 0.27963404E-02 0.20001624E+02</pdfrwt>
<totfact> 0.12797802E+06</totfact>
</mgrwt>
</event>
<event>
 5    1  0.4710515E-007  0.2001121E+02  0.7818608E-02  0.1745105E+00
         -4   -1    0    0    0  501 -0.00000000000E+00  0.00000000000E+00  0.38196963797E+01  0.40751049598E+01  0.14200000000E+01 0. -1.
          4   -1    0    0  501    0  0.00000000000E+00 -0.00000000000E+00 -0.25085406230E+02  0.25125564784E+02  0.14200000000E+01 0.  1.
       1023    2    1    2    0    0  0.00000000000E+00  0.00000000000E+00 -0.21265709851E+02  0.29200669744E+02  0.20011214308E+02 0.  0.
        -13    1    3    3    0    0 -0.99646806702E+01  0.89658759536E+00 -0.10563302988E+02  0.14549682906E+02  0.10570000000E+00 0. -1.
         13    1    3    3    0    0  0.99646806702E+01 -0.89658759536E+00 -0.10702406863E+02  0.14650986838E+02  0.10570000000E+00 0.  1.
<mgrwt>
<rscale>  0 0.20011214E+02</rscale>
<asrwt>0</asrwt>
<pdfrwt beam="2">  1        4 0.38820291E-02 0.20011214E+02</pdfrwt>
<pdfrwt beam="1">  1       -4 0.61038155E-03 0.20011214E+02</pdfrwt>
<totfact> 0.12483469E+06</totfact>
</mgrwt>
</event>
<event>
 4    1  0.4710515E-007  0.2005258E+02  0.7818608E-02  0.1744284E+00
         -4   -1    0    0    0  501 -0.00000000000E+00  0.00000000000E+00  0.12150760925E+02  0.12233453766E+02  0.14200000000E+01 0.  1.
          4   -1    0    0  501    0  0.00000000000E+00 -0.00000000000E+00 -0.81005512772E+01  0.82240702207E+01  0.14200000000E+01 0. -1.
        -13    1    1    2    0    0 -0.78754028123E+01 -0.62042633754E+01  0.20023749772E+01  0.10224261906E+02  0.10570000000E+00 0.  1.
         13    1    1    2    0    0  0.78754028123E+01  0.62042633754E+01  0.20478346706E+01  0.10233262081E+02  0.10570000000E+00 0. -1.
<mgrwt>
<rscale>  0 0.20052583E+02</rscale>
<asrwt>0</asrwt>
<pdfrwt beam="2">  1        4 0.12621011E-02 0.20052583E+02</pdfrwt>
<pdfrwt beam="1">  1       -4 0.18852103E-02 0.20052583E+02</pdfrwt>
<totfact> 0.12917402E+06</totfact>
</mgrwt>
</event>
<event>
 5    1  0.4710515E-007  0.2000201E+02  0.7818608E-02  0.1745288E+00
          4   -1    0    0  501    0  0.00000000000E+00  0.00000000000E+00  0.27349153589E+02  0.27385992807E+02  0.14200000000E+01 0. -1.
         -4   -1    0    0    0  501 -0.00000000000E+00 -0.00000000000E+00 -0.34784199717E+01  0.37571006773E+01  0.14200000000E+01 0.  1.
       1023    2    1    2    0    0  0.00000000000E+00  0.00000000000E+00  0.23870733617E+02  0.31143093484E+02  0.20002008608E+02 0.  0.
        -13    1    3    3    0    0  0.95209233336E+00 -0.99547407343E+01  0.11819146504E+02  0.15482465549E+02  0.10570000000E+00 0. -1.
         13    1    3    3    0    0 -0.95209233336E+00  0.99547407343E+01  0.12051587113E+02  0.15660627935E+02  0.10570000000E+00 0.  1.
<mgrwt>
<rscale>  0 0.20002009E+02</rscale>
<asrwt>0</asrwt>
<pdfrwt beam="1">  1        4 0.42318326E-02 0.20002009E+02</pdfrwt>
<pdfrwt beam="2">  1       -4 0.55941233E-03 0.20002009E+02</pdfrwt>
<totfact> 0.12393931E+06</totfact>
</mgrwt>
</event>
<event>
 5    1  0.4710515E-007  0.2000125E+02  0.7818608E-02  0.1745303E+00
          4   -1    0    0  501    0  0.00000000000E+00  0.00000000000E+00  0.15170854258E+01  0.20779673215E+01  0.14200000000E+01 0. -1.
         -4   -1    0    0    0  501 -0.00000000000E+00 -0.00000000000E+00 -0.55067515312E+02  0.55085820704E+02  0.14200000000E+01 0.  1.
       1023    2    1    2    0    0  0.00000000000E+00  0.00000000000E+00 -0.53550429886E+02  0.57163788025E+02  0.20001252971E+02 0.  0.
        -13    1    3    3    0    0 -0.98534977723E+01 -0.17055301645E+01 -0.26870267879E+02  0.28670938594E+02  0.10570000000E+00 0. -1.
         13    1    3    3    0    0  0.98534977723E+01  0.17055301645E+01 -0.26680162007E+02  0.28492849431E+02  0.10570000000E+00 0.  1.
<mgrwt>
<rscale>  0 0.20001253E+02</rscale>
<asrwt>0</asrwt>
<pdfrwt beam="1">  1        4 0.27795067E-03 0.20001253E+02</pdfrwt>
<pdfrwt beam="2">  1       -4 0.85164770E-02 0.20001253E+02</pdfrwt>
<totfact> 0.11227575E+06</totfact>
</mgrwt>
</event>
<event>
 5    1  0.4710515E-007  0.2000151E+02  0.7818608E-02  0.1745298E+00
         -4   -1    0    0    0  501 -0.00000000000E+00  0.00000000000E+00  0.17346845700E+02  0.17404868737E+02  0.14200000000E+01 0. -1.
          4   -1    0    0  501    0  0.00000000000E+00 -0.00000000000E+00 -0.56093392952E+01  0.57862844148E+01  0.14200000000E+01 0.  1.
       1023    2    1    2    0    0  0.00000000000E+00  0.00000000000E+00  0.11737506405E+02  0.23191153152E+02  0.20001513140E+02 0.  0.
        -13    1    3    3    0    0  0.74838924230E+01  0.66328096305E+01  0.58294321044E+01  0.11575675382E+02  0.10570000000E+00 0. -1.
         13    1    3    3    0    0 -0.74838924230E+01 -0.66328096305E+01  0.59080743009E+01  0.11615477770E+02  0.10570000000E+00 0.  1.
<mgrwt>
<rscale>  0 0.20001513E+02</rscale>
<asrwt>0</asrwt>
<pdfrwt beam="2">  1        4 0.88104974E-03 0.20001513E+02</pdfrwt>
<pdfrwt beam="1">  1       -4 0.26868200E-02 0.20001513E+02</pdfrwt>
<totfact> 0.12825674E+06</totfact>
</mgrwt>
</event>
<event>
 5    1  0.4710515E-007  0.2000314E+02  0.7818608E-02  0.1745266E+00
          4   -1    0    0  501    0  0.00000000000E+00  0.00000000000E+00  0.33327607216E+01  0.36226639408E+01  0.14200000000E+01 0. -1.
         -4   -1    0    0    0  501 -0.00000000000E+00 -0.00000000000E+00 -0.28455217249E+02  0.28490626330E+02  0.14200000000E+01 0.  1.
       1023    2    1    2    0    0  0.00000000000E+00  0.00000000000E+00 -0.25122456528E+02  0.32113290271E+02  0.20003139505E+02 0.  0.
        -13    1    3    3    0    0 -0.97947534730E+00 -0.99521447272E+01 -0.12360273203E+02  0.15899436555E+02  0.10570000000E+00 0. -1.
         13    1    3    3    0    0  0.97947534730E+00  0.99521447272E+01 -0.12762183325E+02  0.16213853716E+02  0.10570000000E+00 0.  1.
<mgrwt>
<rscale>  0 0.20003140E+02</rscale>
<asrwt>0</asrwt>
<pdfrwt beam="1">  1        4 0.53775646E-03 0.20003140E+02</pdfrwt>
<pdfrwt beam="2">  1       -4 0.44027496E-02 0.20003140E+02</pdfrwt>
<totfact> 0.12342748E+06</totfact>
</mgrwt>
</event>
<event>
 5    1  0.4710515E-007  0.2000152E+02  0.7818608E-02  0.1745298E+00
         -4   -1    0    0    0  501 -0.00000000000E+00  0.00000000000E+00  0.76883275041E+00  0.16147767022E+01  0.14200000000E+01 0.  1.
          4   -1    0    0  501    0  0.00000000000E+00 -0.00000000000E+00 -0.83064985341E+02  0.83077121939E+02  0.14200000000E+01 0. -1.
       1023    2    1    2    0    0  0.00000000000E+00  0.00000000000E+00 -0.82296152590E+02  0.84691898641E+02  0.20001524049E+02 0.  0.
        -13    1    3    3    0    0  0.12227383922E+01 -0.99250081473E+01 -0.40908823791E+02  0.42113464739E+02  0.10570000000E+00 0.  1.
         13    1    3    3    0    0 -0.12227383922E+01  0.99250081473E+01 -0.41387328800E+02  0.42578433902E+02  0.10570000000E+00 0. -1.
<mgrwt>
<rscale>  0 0.20001524E+02</rscale>
<asrwt>0</asrwt>
<pdfrwt beam="2">  1        4 0.12845230E-01 0.20001524E+02</pdfrwt>
<pdfrwt beam="1">  1       -4 0.18428822E-03 0.20001524E+02</pdfrwt>
<totfact> 0.10258856E+06</totfact>
</mgrwt>
</event>
<event>
 5    1  0.4710515E-007  0.2000155E+02  0.7818608E-02  0.1745297E+00
          4   -1    0    0  501    0  0.00000000000E+00  0.00000000000E+00  0.12324240899E+02  0.12405777434E+02  0.14200000000E+01 0.  1.
         -4   -1    0    0    0  501 -0.00000000000E+00 -0.00000000000E+00 -0.79438855840E+01  0.80698028583E+01  0.14200000000E+01 0. -1.
       1023    2    1    2    0    0  0.00000000000E+00  0.00000000000E+00  0.43803553151E+01  0.20475580292E+02  0.20001546830E+02 0.  0.
        -13    1    3    3    0    0  0.84711049093E+01  0.53144749100E+01  0.21572523658E+01  0.10230746415E+02  0.10570000000E+00 0. -1.
         13    1    3    3    0    0 -0.84711049093E+01 -0.53144749100E+01  0.22231029492E+01  0.10244833877E+02  0.10570000000E+00 0.  1.
<mgrwt>
<rscale>  0 0.20001547E+02</rscale>
<asrwt>0</asrwt>
<pdfrwt beam="1">  1        4 0.19119950E-02 0.20001547E+02</pdfrwt>
<pdfrwt beam="2">  1       -4 0.12380942E-02 0.20001547E+02</pdfrwt>
<totfact> 0.12983718E+06</totfact>
</mgrwt>
</event>
<event>
 5    1  0.4898627E-007  0.2000155E+02  0.7818608E-02  0.1745297E+00
          4   -1    0    0  501    0  0.00000000000E+00  0.00000000000E+00  0.52518350811E+01  0.54404201786E+01  0.14200000000E+01 0. -1.
         -4   -1    0    0    0  501 -0.00000000000E+00 -0.00000000000E+00 -0.18491733680E+02  0.18546175199E+02  0.14200000000E+01 0.  1.
       1023    2    1    2    0    0  0.00000000000E+00  0.00000000000E+00 -0.13239898599E+02  0.23986595377E+02  0.20001546012E+02 0.  0.
        -13    1    3    3    0    0 -0.82945781645E+01 -0.55860744203E+01 -0.66269290128E+01  0.11997150286E+02  0.10570000000E+00 0.  1.
         13    1    3    3    0    0  0.82945781645E+01  0.55860744203E+01 -0.66129695864E+01  0.11989445091E+02  0.10570000000E+00 0. -1.
<mgrwt>
<rscale>  0 0.20001546E+02</rscale>
<asrwt>0</asrwt>
<pdfrwt beam="1">  1        4 0.82666899E-03 0.20001546E+02</pdfrwt>
<pdfrwt beam="2">  1       -4 0.28635764E-02 0.20001546E+02</pdfrwt>
<totfact> 0.12780503E+06</totfact>
</mgrwt>
</event>
<event>
 4    1  0.4710515E-007  0.2004445E+02  0.7818608E-02  0.1744446E+00
         -4   -1    0    0    0  501 -0.00000000000E+00  0.00000000000E+00  0.17082798670E+02  0.17141715504E+02  0.14200000000E+01 0.  1.
          4   -1    0    0  501    0  0.00000000000E+00 -0.00000000000E+00 -0.57239494483E+01  0.58974568490E+01  0.14200000000E+01 0. -1.
        -13    1    1    2    0    0  0.98322742157E+01 -0.18685359434E+01  0.50835204789E+01  0.11225791543E+02  0.10570000000E+00 0. -1.
         13    1    1    2    0    0 -0.98322742157E+01  0.18685359434E+01  0.62753287431E+01  0.11813380809E+02  0.10570000000E+00 0.  1.
<mgrwt>
<rscale>  0 0.20044451E+02</rscale>
<asrwt>0</asrwt>
<pdfrwt beam="2">  1        4 0.89848639E-03 0.20044451E+02</pdfrwt>
<pdfrwt beam="1">  1       -4 0.26460017E-02 0.20044451E+02</pdfrwt>
<totfact> 0.12778362E+06</totfact>
</mgrwt>
</event>
<event>
 4    1  0.4710515E-007  0.2013885E+02  0.7818608E-02  0.1742581E+00
          4   -1    0    0  501    0  0.00000000000E+00  0.00000000000E+00  0.41759449433E+02  0.41783585496E+02  0.14200000000E+01 0.  1.
         -4   -1    0    0    0  501 -0.00000000000E+00 -0.00000000000E+00 -0.21933683390E+01  0.26129034943E+01  0.14200000000E+01 0. -1.
        -13    1    1    2    0    0  0.14338138548E+01  0.99398928141E+01  0.21380216636E+02  0.23621645311E+02  0.10570000000E+00 0. -1.
         13    1    1    2    0    0 -0.14338138548E+01 -0.99398928141E+01  0.18185864458E+02  0.20774843679E+02  0.10570000000E+00 0.  1.
<mgrwt>
<rscale>  0 0.20138855E+02</rscale>
<asrwt>0</asrwt>
<pdfrwt beam="1">  1        4 0.64586589E-02 0.20138855E+02</pdfrwt>
<pdfrwt beam="2">  1       -4 0.37156986E-03 0.20138855E+02</pdfrwt>
<totfact> 0.11599091E+06</totfact>
</mgrwt>
</event>
<event>
 5    1  0.4710515E-007  0.2000193E+02  0.7818608E-02  0.1745290E+00
          4   -1    0    0  501    0  0.00000000000E+00  0.00000000000E+00  0.31771932803E+02  0.31803649383E+02  0.14200000000E+01 0. -1.
         -4   -1    0    0    0  501 -0.00000000000E+00 -0.00000000000E+00 -0.29528258871E+01  0.32765196046E+01  0.14200000000E+01 0.  1.
       1023    2    1    2    0    0  0.00000000000E+00  0.00000000000E+00  0.28819106916E+02  0.35080168987E+02  0.20001933225E+02 0.  0.
        -13    1    3    3    0    0 -0.23443987319E+01 -0.97213317377E+01  0.14563097249E+02  0.17666223992E+02  0.10570000000E+00 0. -1.
         13    1    3    3    0    0  0.23443987319E+01  0.97213317377E+01  0.14256009668E+02  0.17413944995E+02  0.10570000000E+00 0.  1.
<mgrwt>
<rscale>  0 0.20001933E+02</rscale>
<asrwt>0</asrwt>
<pdfrwt beam="1">  1        4 0.49153289E-02 0.20001933E+02</pdfrwt>
<pdfrwt beam="2">  1       -4 0.48162016E-03 0.20001933E+02</pdfrwt>
<totfact> 0.12195650E+06</totfact>
</mgrwt>
</event>
<event>
 4    1  0.4710515E-007  0.2003492E+02  0.7818608E-02  0.1744635E+00
          4   -1    0    0  501    0  0.00000000000E+00  0.00000000000E+00  0.76005866352E+02  0.76019129960E+02  0.14200000000E+01 0. -1.
         -4   -1    0    0    0  501 -0.00000000000E+00 -0.00000000000E+00 -0.92114418119E+00  0.16926034983E+01  0.14200000000E+01 0.  1.
        -13    1    1    2    0    0 -0.75803756862E-01 -0.10013815768E+02  0.36623823101E+02  0.37968379522E+02  0.10570000000E+00 0. -1.
         13    1    1    2    0    0  0.75803756862E-01  0.10013815768E+02  0.38460899069E+02  0.39743353937E+02  0.10570000000E+00 0.  1.
<mgrwt>
<rscale>  0 0.20034920E+02</rscale>
<asrwt>0</asrwt>
<pdfrwt beam="1">  1        4 0.11753580E-01 0.20034920E+02</pdfrwt>
<pdfrwt beam="2">  1       -4 0.20207769E-03 0.20034920E+02</pdfrwt>
<totfact> 0.10450009E+06</totfact>
</mgrwt>
</event>
<event>
 4    1  0.4710515E-007  0.2001246E+02  0.7818608E-02  0.1745080E+00
          4   -1    0    0  501    0  0.00000000000E+00  0.00000000000E+00  0.18767678502E+02  0.18821321855E+02  0.14200000000E+01 0. -1.
         -4   -1    0    0    0  501 -0.00000000000E+00 -0.00000000000E+00 -0.51779659486E+01  0.53691462417E+01  0.14200000000E+01 0.  1.
        -13    1    1    2    0    0 -0.33258088973E+01  0.94354251887E+01  0.66030115820E+01  0.11987459604E+02  0.10570000000E+00 0. -1.
         13    1    1    2    0    0  0.33258088973E+01 -0.94354251887E+01  0.69867009717E+01  0.12203008493E+02  0.10570000000E+00 0.  1.
<mgrwt>
<rscale>  0 0.20012458E+02</rscale>
<asrwt>0</asrwt>
<pdfrwt beam="1">  1        4 0.29061678E-02 0.20012458E+02</pdfrwt>
<pdfrwt beam="2">  1       -4 0.81544273E-03 0.20012458E+02</pdfrwt>
<totfact> 0.12754837E+06</totfact>
</mgrwt>
</event>
<event>
 5    1  0.4710515E-007  0.2000147E+02  0.7818608E-02  0.1745299E+00
          4   -1    0    0  501    0  0.00000000000E+00  0.00000000000E+00  0.16940575079E+01  0.22104820379E+01  0.14200000000E+01 0. -1.
         -4   -1    0    0    0  501 -0.00000000000E+00 -0.00000000000E+00 -0.50702254811E+02  0.50722135631E+02  0.14200000000E+01 0.  1.
       1023    2    1    2    0    0  0.00000000000E+00  0.00000000000E+00 -0.49008197303E+02  0.52932617668E+02  0.20001465204E+02 0.  0.
        -13    1    3    3    0    0  0.58277839262E+01  0.81263160842E+01 -0.24349752159E+02  0.26323405579E+02  0.10570000000E+00 0.  1.
         13    1    3    3    0    0 -0.58277839262E+01 -0.81263160842E+01 -0.24658445144E+02  0.26609212089E+02  0.10570000000E+00 0. -1.
<mgrwt>
<rscale>  0 0.20001465E+02</rscale>
<asrwt>0</asrwt>
<pdfrwt beam="1">  1        4 0.30187853E-03 0.20001465E+02</pdfrwt>
<pdfrwt beam="2">  1       -4 0.78416001E-02 0.20001465E+02</pdfrwt>
<totfact> 0.11396936E+06</totfact>
</mgrwt>
</event>
<event>
 4    1  0.4710515E-007  0.2002785E+02  0.7818608E-02  0.1744775E+00
          4   -1    0    0  501    0  0.00000000000E+00  0.00000000000E+00  0.20870384322E+01  0.25243077105E+01  0.14200000000E+01 0. -1.
         -4   -1    0    0    0  501 -0.00000000000E+00 -0.00000000000E+00 -0.43042051052E+02  0.43065468287E+02  0.14200000000E+01 0.  1.
        -13    1    1    2    0    0 -0.62084090101E+00  0.99936629002E+01 -0.20690316260E+02  0.22986063191E+02  0.10570000000E+00 0. -1.
         13    1    1    2    0    0  0.62084090101E+00 -0.99936629002E+01 -0.20264696360E+02  0.22603712807E+02  0.10570000000E+00 0.  1.
<mgrwt>
<rscale>  0 0.20027846E+02</rscale>
<asrwt>0</asrwt>
<pdfrwt beam="1">  1        4 0.35652029E-03 0.20027846E+02</pdfrwt>
<pdfrwt beam="2">  1       -4 0.66572908E-02 0.20027846E+02</pdfrwt>
<totfact> 0.11676933E+06</totfact>
</mgrwt>
</event>
<event>
 5    1  0.4710515E-007  0.2000312E+02  0.7818608E-02  0.1745266E+00
         -4   -1    0    0    0  501 -0.00000000000E+00  0.00000000000E+00  0.15241748349E+02  0.15307752700E+02  0.14200000000E+01 0.  1.
          4   -1    0    0  501    0  0.00000000000E+00 -0.00000000000E+00 -0.64048599780E+01  0.65603834749E+01  0.14200000000E+01 0. -1.
       1023    2    1    2    0    0  0.00000000000E+00  0.00000000000E+00  0.88368883707E+01  0.21868136175E+02  0.20003119349E+02 0.  0.
        -13    1    3    3    0    0  0.57547700314E+01  0.81789880182E+01  0.45085968562E+01  0.10970498677E+02  0.10570000000E+00 0. -1.
         13    1    3    3    0    0 -0.57547700314E+01 -0.81789880182E+01  0.43282915145E+01  0.10897637498E+02  0.10570000000E+00 0.  1.
<mgrwt>
<rscale>  0 0.20003119E+02</rscale>
<asrwt>0</asrwt>
<pdfrwt beam="2">  1        4 0.10024037E-02 0.20003119E+02</pdfrwt>
<pdfrwt beam="1">  1       -4 0.23619249E-02 0.20003119E+02</pdfrwt>
<totfact> 0.12899783E+06</totfact>
</mgrwt>
</event>
<event>
 5    1  0.4710515E-007  0.2000347E+02  0.7818608E-02  0.1745259E+00
         -4   -1    0    0    0  501 -0.00000000000E+00  0.00000000000E+00  0.11830070367E+01  0.18482168836E+01  0.14200000000E+01 0.  1.
          4   -1    0    0  501    0  0.00000000000E+00 -0.00000000000E+00 -0.65328227995E+02  0.65343659011E+02  0.14200000000E+01 0. -1.
       1023    2    1    2    0    0  0.00000000000E+00  0.00000000000E+00 -0.64145220958E+02  0.67191875894E+02  0.20003470061E+02 0.  0.
        -13    1    3    3    0    0 -0.58053282759E+01  0.81432449865E+01 -0.31749449410E+02  0.33287429844E+02  0.10570000000E+00 0. -1.
         13    1    3    3    0    0  0.58053282759E+01 -0.81432449865E+01 -0.32395771548E+02  0.33904446050E+02  0.10570000000E+00 0.  1.
<mgrwt>
<rscale>  0 0.20003470E+02</rscale>
<asrwt>0</asrwt>
<pdfrwt beam="2">  1        4 0.10102851E-01 0.20003470E+02</pdfrwt>
<pdfrwt beam="1">  1       -4 0.23435812E-03 0.20003470E+02</pdfrwt>
<totfact> 0.10847294E+06</totfact>
</mgrwt>
</event>
<event>
 5    1  0.4710515E-007  0.2000154E+02  0.7818608E-02  0.1745297E+00
         -4   -1    0    0    0  501 -0.00000000000E+00  0.00000000000E+00  0.20263454102E+02  0.20313147765E+02  0.14200000000E+01 0. -1.
          4   -1    0    0  501    0  0.00000000000E+00 -0.00000000000E+00 -0.47765864497E+01  0.49831895520E+01  0.14200000000E+01 0.  1.
       1023    2    1    2    0    0  0.00000000000E+00  0.00000000000E+00  0.15486867652E+02  0.25296337317E+02  0.20001540241E+02 0.  0.
        -13    1    3    3    0    0 -0.38247572101E+01  0.92397357781E+01  0.76771651085E+01  0.12607597771E+02  0.10570000000E+00 0.  1.
         13    1    3    3    0    0  0.38247572101E+01 -0.92397357781E+01  0.78097025437E+01  0.12688739546E+02  0.10570000000E+00 0. -1.
<mgrwt>
<rscale>  0 0.20001540E+02</rscale>
<asrwt>0</asrwt>
<pdfrwt beam="2">  1        4 0.75457457E-03 0.20001540E+02</pdfrwt>
<pdfrwt beam="1">  1       -4 0.31371697E-02 0.20001540E+02</pdfrwt>
<totfact> 0.12707098E+06</totfact>
</mgrwt>
</event>
<event>
 5    1  0.5131087E-007  0.2000321E+02  0.7818608E-02  0.1745264E+00
         -4   -1    0    0    0  501 -0.00000000000E+00  0.00000000000E+00  0.16087496646E+02  0.16150044840E+02  0.14200000000E+01 0.  1.
          4   -1    0    0  501    0  0.00000000000E+00 -0.00000000000E+00 -0.60611737862E+01  0.62252893641E+01  0.14200000000E+01 0. -1.
       1023    2    1    2    0    0  0.00000000000E+00  0.00000000000E+00  0.10026322860E+02  0.22375334204E+02  0.20003210509E+02 0.  0.
        -13    1    3    3    0    0 -0.99806036451E+01 -0.63710720801E+00  0.49563391872E+01  0.11162205219E+02  0.10570000000E+00 0.  1.
         13    1    3    3    0    0  0.99806036451E+01  0.63710720801E+00  0.50699836725E+01  0.11213128985E+02  0.10570000000E+00 0. -1.
<mgrwt>
<rscale>  0 0.20003211E+02</rscale>
<asrwt>0</asrwt>
<pdfrwt beam="2">  1        4 0.94992395E-03 0.20003211E+02</pdfrwt>
<pdfrwt beam="1">  1       -4 0.24924352E-02 0.20003211E+02</pdfrwt>
<totfact> 0.12870282E+06</totfact>
</mgrwt>
</event>
<event>
 5    1  0.4710515E-007  0.2000298E+02  0.7818608E-02  0.1745269E+00
         -4   -1    0    0    0  501 -0.00000000000E+00  0.00000000000E+00  0.15841214405E+02  0.15904731178E+02  0.14200000000E+01 0. -1.
          4   -1    0    0  501    0  0.00000000000E+00 -0.00000000000E+00 -0.61574090541E+01  0.63190257366E+01  0.14200000000E+01 0.  1.
       1023    2    1    2    0    0  0.00000000000E+00  0.00000000000E+00  0.96838053513E+01  0.22223756914E+02  0.20002981910E+02 0.  0.
        -13    1    3    3    0    0  0.53334004176E+01 -0.84596039852E+01  0.47389352219E+01  0.11067011301E+02  0.10570000000E+00 0.  1.
         13    1    3    3    0    0 -0.53334004176E+01  0.84596039852E+01  0.49448701294E+01  0.11156745614E+02  0.10570000000E+00 0. -1.
<mgrwt>
<rscale>  0 0.20002982E+02</rscale>
<asrwt>0</asrwt>
<pdfrwt beam="2">  1        4 0.96461166E-03 0.20002982E+02</pdfrwt>
<pdfrwt beam="1">  1       -4 0.24544279E-02 0.20002982E+02</pdfrwt>
<totfact> 0.12879341E+06</totfact>
</mgrwt>
</event>
<event>
 5    1  0.4710515E-007  0.2000900E+02  0.7818608E-02  0.1745149E+00
          4   -1    0    0  501    0  0.00000000000E+00  0.00000000000E+00  0.17204042710E+02  0.17262545744E+02  0.14200000000E+01 0. -1.
         -4   -1    0    0    0  501 -0.00000000000E+00 -0.00000000000E+00 -0.56616121125E+01  0.58369728210E+01  0.14200000000E+01 0.  1.
       1023    2    1    2    0    0  0.00000000000E+00  0.00000000000E+00  0.11542430598E+02  0.23099518565E+02  0.20008999321E+02 0.  0.
        -13    1    3    3    0    0 -0.69991866597E+01  0.71464814899E+01  0.59262282738E+01  0.11627216590E+02  0.10570000000E+00 0.  1.
         13    1    3    3    0    0  0.69991866597E+01 -0.71464814899E+01  0.56162023239E+01  0.11472301975E+02  0.10570000000E+00 0. -1.
<mgrwt>
<rscale>  0 0.20008999E+02</rscale>
<asrwt>0</asrwt>
<pdfrwt beam="1">  1        4 0.26647652E-02 0.20008999E+02</pdfrwt>
<pdfrwt beam="2">  1       -4 0.88900680E-03 0.20008999E+02</pdfrwt>
<totfact> 0.12821123E+06</totfact>
</mgrwt>
</event>
<event>
 5    1  0.4768214E-007  0.2000199E+02  0.7818608E-02  0.1745289E+00
          4   -1    0    0  501    0  0.00000000000E+00  0.00000000000E+00  0.22146478878E+01  0.26307917566E+01  0.14200000000E+01 0.  1.
         -4   -1    0    0    0  501 -0.00000000000E+00 -0.00000000000E+00 -0.40854599407E+02  0.40879269719E+02  0.14200000000E+01 0. -1.
       1023    2    1    2    0    0  0.00000000000E+00  0.00000000000E+00 -0.38639951519E+02  0.43510061475E+02  0.20001989805E+02 0.  0.
        -13    1    3    3    0    0  0.41178652327E+01  0.91132785305E+01 -0.19302183799E+02  0.21739230243E+02  0.10570000000E+00 0. -1.
         13    1    3    3    0    0 -0.41178652327E+01 -0.91132785305E+01 -0.19337767720E+02  0.21770831232E+02  0.10570000000E+00 0.  1.
<mgrwt>
<rscale>  0 0.20001990E+02</rscale>
<asrwt>0</asrwt>
<pdfrwt beam="1">  1        4 0.37462387E-03 0.20001990E+02</pdfrwt>
<pdfrwt beam="2">  1       -4 0.63192313E-02 0.20001990E+02</pdfrwt>
<totfact> 0.11799827E+06</totfact>
</mgrwt>
</event>
<event>
 4    1  0.4710515E-007  0.2003968E+02  0.7818608E-02  0.1744540E+00
          4   -1    0    0  501    0  0.00000000000E+00  0.00000000000E+00  0.13170231391E+02  0.13246561625E+02  0.14200000000E+01 0.  1.
         -4   -1    0    0    0  501 -0.00000000000E+00 -0.00000000000E+00 -0.74574980016E+01  0.75914871036E+01  0.14200000000E+01 0. -1.
        -13    1    1    2    0    0 -0.98010700097E+01  0.19963556246E+01  0.22503479242E+01  0.10252884832E+02  0.10570000000E+00 0. -1.
         13    1    1    2    0    0  0.98010700097E+01 -0.19963556246E+01  0.34623854652E+01  0.10585163896E+02  0.10570000000E+00 0.  1.
<mgrwt>
<rscale>  0 0.20039684E+02</rscale>
<asrwt>0</asrwt>
<pdfrwt beam="1">  1        4 0.20423678E-02 0.20039684E+02</pdfrwt>
<pdfrwt beam="2">  1       -4 0.11634858E-02 0.20039684E+02</pdfrwt>
<totfact> 0.12911982E+06</totfact>
</mgrwt>
</event>
<event>
 5    1  0.4710515E-007  0.2000415E+02  0.7818608E-02  0.1745245E+00
          4   -1    0    0  501    0  0.00000000000E+00  0.00000000000E+00  0.44081353206E+01  0.46312047034E+01  0.14200000000E+01 0.  1.
         -4   -1    0    0    0  501 -0.00000000000E+00 -0.00000000000E+00 -0.21888055935E+02  0.21934069221E+02  0.14200000000E+01 0. -1.
       1023    2    1    2    0    0  0.00000000000E+00  0.00000000000E+00 -0.17479920614E+02  0.26565273925E+02  0.20004153419E+02 0.  0.
        -13    1    3    3    0    0  0.95200538350E+01 -0.30656673495E+01 -0.87067687204E+01  0.13260796935E+02  0.10570000000E+00 0. -1.
         13    1    3    3    0    0 -0.95200538350E+01  0.30656673495E+01 -0.87731518936E+01  0.13304476989E+02  0.10570000000E+00 0.  1.
<mgrwt>
<rscale>  0 0.20004153E+02</rscale>
<asrwt>0</asrwt>
<pdfrwt beam="1">  1        4 0.69887335E-03 0.20004153E+02</pdfrwt>
<pdfrwt beam="2">  1       -4 0.33880918E-02 0.20004153E+02</pdfrwt>
<totfact> 0.12633832E+06</totfact>
</mgrwt>
</event>
<event>
 4    1  0.4710515E-007  0.2002208E+02  0.7818608E-02  0.1744889E+00
          4   -1    0    0  501    0  0.00000000000E+00  0.00000000000E+00  0.25814593053E+01  0.29462403407E+01  0.14200000000E+01 0. -1.
         -4   -1    0    0    0  501 -0.00000000000E+00 -0.00000000000E+00 -0.35881604989E+02  0.35909691959E+02  0.14200000000E+01 0.  1.
        -13    1    1    2    0    0  0.33020649702E+01  0.94482551010E+01 -0.17021408077E+02  0.19746206292E+02  0.10570000000E+00 0.  1.
         13    1    1    2    0    0 -0.33020649702E+01 -0.94482551010E+01 -0.16278737607E+02  0.19109726008E+02  0.10570000000E+00 0. -1.
<mgrwt>
<rscale>  0 0.20022082E+02</rscale>
<asrwt>0</asrwt>
<pdfrwt beam="1">  1        4 0.42736823E-03 0.20022082E+02</pdfrwt>
<pdfrwt beam="2">  1       -4 0.55504672E-02 0.20022082E+02</pdfrwt>
<totfact> 0.11989372E+06</totfact>
</mgrwt>
</event>
<event>
 4    1  0.4710515E-007  0.2010077E+02  0.7818608E-02  0.1743331E+00
          4   -1    0    0  501    0  0.00000000000E+00  0.00000000000E+00  0.89868082141E+01  0.90983032416E+01  0.14200000000E+01 0.  1.
         -4   -1    0    0    0  501 -0.00000000000E+00 -0.00000000000E+00 -0.11013184931E+02  0.11104352405E+02  0.14200000000E+01 0. -1.
        -13    1    1    2    0    0  0.99407214722E+01  0.14478308006E+01 -0.72026089524E+00  0.10071946468E+02  0.10570000000E+00 0.  1.
         13    1    1    2    0    0 -0.99407214722E+01 -0.14478308006E+01 -0.13061158217E+01  0.10130709178E+02  0.10570000000E+00 0. -1.
<mgrwt>
<rscale>  0 0.20100773E+02</rscale>
<asrwt>0</asrwt>
<pdfrwt beam="1">  1        4 0.13981753E-02 0.20100773E+02</pdfrwt>
<pdfrwt beam="2">  1       -4 0.17099256E-02 0.20100773E+02</pdfrwt>
<totfact> 0.12869194E+06</totfact>
</mgrwt>
</event>
<event>
 5    1  0.4710515E-007  0.2000429E+02  0.7818608E-02  0.1745243E+00
         -4   -1    0    0    0  501 -0.00000000000E+00  0.00000000000E+00  0.17960790687E+01  0.22896069577E+01  0.14200000000E+01 0.  1.
          4   -1    0    0  501    0  0.00000000000E+00 -0.00000000000E+00 -0.48467196068E+02  0.48487993305E+02  0.14200000000E+01 0. -1.
       1023    2    1    2    0    0  0.00000000000E+00  0.00000000000E+00 -0.46671116999E+02  0.50777600262E+02  0.20004287701E+02 0.  0.
        -13    1    3    3    0    0  0.76263245510E+01  0.64702221685E+01 -0.23549563698E+02  0.25585498313E+02  0.10570000000E+00 0. -1.
         13    1    3    3    0    0 -0.76263245510E+01 -0.64702221685E+01 -0.23121553301E+02  0.25192101949E+02  0.10570000000E+00 0.  1.
<mgrwt>
<rscale>  0 0.20004288E+02</rscale>
<asrwt>0</asrwt>
<pdfrwt beam="2">  1        4 0.74960543E-02 0.20004288E+02</pdfrwt>
<pdfrwt beam="1">  1       -4 0.31588336E-03 0.20004288E+02</pdfrwt>
<totfact> 0.11482672E+06</totfact>
</mgrwt>
</event>
<event>
 4    1  0.4710515E-007  0.2005610E+02  0.7818608E-02  0.1744215E+00
          4   -1    0    0  501    0  0.00000000000E+00  0.00000000000E+00  0.33139281736E+02  0.33169690894E+02  0.14200000000E+01 0.  1.
         -4   -1    0    0    0  501 -0.00000000000E+00 -0.00000000000E+00 -0.28347564529E+01  0.31705274242E+01  0.14200000000E+01 0. -1.
        -13    1    1    2    0    0 -0.71286025980E+01 -0.70148264647E+01  0.13838313665E+02  0.17074392021E+02  0.10570000000E+00 0. -1.
         13    1    1    2    0    0  0.71286025980E+01  0.70148264647E+01  0.16466211618E+02  0.19265826296E+02  0.10570000000E+00 0.  1.
<mgrwt>
<rscale>  0 0.20056102E+02</rscale>
<asrwt>0</asrwt>
<pdfrwt beam="1">  1        4 0.51265185E-02 0.20056102E+02</pdfrwt>
<pdfrwt beam="2">  1       -4 0.46428410E-03 0.20056102E+02</pdfrwt>
<totfact> 0.12067742E+06</totfact>
</mgrwt>
</event>
<event>
 4    1  0.4710515E-007  0.2004683E+02  0.7818608E-02  0.1744398E+00
         -4   -1    0    0    0  501 -0.00000000000E+00  0.00000000000E+00  0.19182546741E+02  0.19235033129E+02  0.14200000000E+01 0.  1.
          4   -1    0    0  501    0  0.00000000000E+00 -0.00000000000E+00 -0.50803789397E+01  0.52750971717E+01  0.14200000000E+01 0. -1.
        -13    1    1    2    0    0 -0.10002616047E+02 -0.62209218307E+00  0.72166549309E+01  0.12350328228E+02  0.10570000000E+00 0. -1.
         13    1    1    2    0    0  0.10002616047E+02  0.62209218307E+00  0.68855128703E+01  0.12159802072E+02  0.10570000000E+00 0.  1.
<mgrwt>
<rscale>  0 0.20046829E+02</rscale>
<asrwt>0</asrwt>
<pdfrwt beam="2">  1        4 0.80061250E-03 0.20046829E+02</pdfrwt>
<pdfrwt beam="1">  1       -4 0.29701768E-02 0.20046829E+02</pdfrwt>
<totfact> 0.12692408E+06</totfact>
</mgrwt>
</event>
<event>
 5    1  0.4736071E-007  0.2000223E+02  0.7818608E-02  0.1745284E+00
          4   -1    0    0  501    0  0.00000000000E+00  0.00000000000E+00  0.13969935380E+02  0.14041919189E+02  0.14200000000E+01 0.  1.
         -4   -1    0    0    0  501 -0.00000000000E+00 -0.00000000000E+00 -0.69979511075E+01  0.71405685841E+01  0.14200000000E+01 0. -1.
       1023    2    1    2    0    0  0.00000000000E+00  0.00000000000E+00  0.69719842725E+01  0.21182487774E+02  0.20002230465E+02 0.  0.
        -13    1    3    3    0    0 -0.70838936862E+01 -0.70582548684E+01  0.33768483959E+01  0.10555320418E+02  0.10570000000E+00 0. -1.
         13    1    3    3    0    0  0.70838936862E+01  0.70582548684E+01  0.35951358767E+01  0.10627167356E+02  0.10570000000E+00 0.  1.
<mgrwt>
<rscale>  0 0.20002230E+02</rscale>
<asrwt>0</asrwt>
<pdfrwt beam="1">  1        4 0.21657286E-02 0.20002230E+02</pdfrwt>
<pdfrwt beam="2">  1       -4 0.10931157E-02 0.20002230E+02</pdfrwt>
<totfact> 0.12941051E+06</totfact>
</mgrwt>
</event>
<event>
 5    1  0.4710515E-007  0.2000451E+02  0.7818608E-02  0.1745238E+00
          4   -1    0    0  501    0  0.00000000000E+00  0.00000000000E+00  0.39900516068E+01  0.42351991482E+01  0.14200000000E+01 0.  1.
         -4   -1    0    0    0  501 -0.00000000000E+00 -0.00000000000E+00 -0.24059620923E+02  0.24101488729E+02  0.14200000000E+01 0. -1.
       1023    2    1    2    0    0  0.00000000000E+00  0.00000000000E+00 -0.20069569316E+02  0.28336687877E+02  0.20004506175E+02 0.  0.
        -13    1    3    3    0    0 -0.77355573834E+01  0.63386793735E+01 -0.10215022556E+02  0.14295998131E+02  0.10570000000E+00 0.  1.
         13    1    3    3    0    0  0.77355573834E+01 -0.63386793735E+01 -0.98545467594E+01  0.14040689746E+02  0.10570000000E+00 0. -1.
<mgrwt>
<rscale>  0 0.20004506E+02</rscale>
<asrwt>0</asrwt>
<pdfrwt beam="1">  1        4 0.63593221E-03 0.20004506E+02</pdfrwt>
<pdfrwt beam="2">  1       -4 0.37235582E-02 0.20004506E+02</pdfrwt>
<totfact> 0.12537800E+06</totfact>
</mgrwt>
</event>
<event>
 4    1  0.4710515E-007  0.2018933E+02  0.7818608E-02  0.1741589E+00
          4   -1    0    0  501    0  0.00000000000E+00  0.00000000000E+00  0.70603164135E+00  0.15858375322E+01  0.14200000000E+01 0.  1.
         -4   -1    0    0    0  501 -0.00000000000E+00 -0.00000000000E+00 -0.88037285211E+02  0.88048736432E+02  0.14200000000E+01 0. -1.
        -13    1    1    2    0    0 -0.98218588786E+01  0.22953099529E+01 -0.45406294241E+02  0.46513224881E+02  0.10570000000E+00 0. -1.
         13    1    1    2    0    0  0.98218588786E+01 -0.22953099529E+01 -0.41924959329E+02  0.43121349084E+02  0.10570000000E+00 0.  1.
<mgrwt>
<rscale>  0 0.20189329E+02</rscale>
<asrwt>0</asrwt>
<pdfrwt beam="1">  1        4 0.17717856E-03 0.20189329E+02</pdfrwt>
<pdfrwt beam="2">  1       -4 0.13612751E-01 0.20189329E+02</pdfrwt>
<totfact> 0.99180740E+05</totfact>
</mgrwt>
</event>
<event>
 5    1  0.4710515E-007  0.2000286E+02  0.7818608E-02  0.1745271E+00
         -4   -1    0    0    0  501 -0.00000000000E+00  0.00000000000E+00  0.28901415009E+01  0.32201425272E+01  0.14200000000E+01 0.  1.
          4   -1    0    0  501    0  0.00000000000E+00 -0.00000000000E+00 -0.32394660794E+02  0.32425768271E+02  0.14200000000E+01 0. -1.
       1023    2    1    2    0    0  0.00000000000E+00  0.00000000000E+00 -0.29504519293E+02  0.35645910798E+02  0.20002857244E+02 0.  0.
        -13    1    3    3    0    0  0.62282945951E+01  0.78240458105E+01 -0.14930958281E+02  0.17970866258E+02  0.10570000000E+00 0. -1.
         13    1    3    3    0    0 -0.62282945951E+01 -0.78240458105E+01 -0.14573561012E+02  0.17675044540E+02  0.10570000000E+00 0.  1.
<mgrwt>
<rscale>  0 0.20002857E+02</rscale>
<asrwt>0</asrwt>
<pdfrwt beam="2">  1        4 0.50115713E-02 0.20002857E+02</pdfrwt>
<pdfrwt beam="1">  1       -4 0.47241475E-03 0.20002857E+02</pdfrwt>
<totfact> 0.12166763E+06</totfact>
</mgrwt>
</event>
<event>
 5    1  0.4710515E-007  0.2000285E+02  0.7818608E-02  0.1745271E+00
         -4   -1    0    0    0  501 -0.00000000000E+00  0.00000000000E+00  0.84323116458E+02  0.84335072000E+02  0.14200000000E+01 0. -1.
          4   -1    0    0  501    0  0.00000000000E+00 -0.00000000000E+00 -0.74486231372E+00  0.16035023749E+01  0.14200000000E+01 0.  1.
       1023    2    1    2    0    0  0.00000000000E+00  0.00000000000E+00  0.83578254144E+02  0.85938574374E+02  0.20002849790E+02 0.  0.
        -13    1    3    3    0    0 -0.56916935351E+01 -0.82225755078E+01  0.42243891007E+02  0.43411560939E+02  0.10570000000E+00 0.  1.
         13    1    3    3    0    0  0.56916935351E+01  0.82225755078E+01  0.41334363137E+02  0.42527013436E+02  0.10570000000E+00 0. -1.
<mgrwt>
<rscale>  0 0.20002850E+02</rscale>
<asrwt>0</asrwt>
<pdfrwt beam="2">  1        4 0.18156304E-03 0.20002850E+02</pdfrwt>
<pdfrwt beam="1">  1       -4 0.13039760E-01 0.20002850E+02</pdfrwt>
<totfact> 0.10218277E+06</totfact>
</mgrwt>
</event>
<event>
 5    1  0.4710515E-007  0.2000319E+02  0.7818608E-02  0.1745265E+00
          4   -1    0    0  501    0  0.00000000000E+00  0.00000000000E+00  0.86147497974E+02  0.86159200363E+02  0.14200000000E+01 0. -1.
         -4   -1    0    0    0  501 -0.00000000000E+00 -0.00000000000E+00 -0.71076653327E+00  0.15879512161E+01  0.14200000000E+01 0.  1.
       1023    2    1    2    0    0  0.00000000000E+00  0.00000000000E+00  0.85436731440E+02  0.87747151579E+02  0.20003188020E+02 0.  0.
        -13    1    3    3    0    0  0.83441235712E+01  0.55132759970E+01  0.42762201759E+02  0.43916257606E+02  0.10570000000E+00 0.  1.
         13    1    3    3    0    0 -0.83441235712E+01 -0.55132759970E+01  0.42674529681E+02  0.43830893972E+02  0.10570000000E+00 0. -1.
<mgrwt>
<rscale>  0 0.20003188E+02</rscale>
<asrwt>0</asrwt>
<pdfrwt beam="1">  1        4 0.13321835E-01 0.20003188E+02</pdfrwt>
<pdfrwt beam="2">  1       -4 0.17772466E-03 0.20003188E+02</pdfrwt>
<totfact> 0.10161630E+06</totfact>
</mgrwt>
</event>
<event>
 5    1  0.4820166E-007  0.2000211E+02  0.7818608E-02  0.1745286E+00
         -4   -1    0    0    0  501 -0.00000000000E+00  0.00000000000E+00  0.57901853791E+01  0.59617654033E+01  0.14200000000E+01 0. -1.
          4   -1    0    0  501    0  0.00000000000E+00 -0.00000000000E+00 -0.16820101332E+02  0.16879935096E+02  0.14200000000E+01 0.  1.
       1023    2    1    2    0    0  0.00000000000E+00  0.00000000000E+00 -0.11029915953E+02  0.22841700499E+02  0.20002105783E+02 0.  0.
        -13    1    3    3    0    0  0.51022862493E+01 -0.86007857448E+01 -0.54519317750E+01  0.11390415838E+02  0.10570000000E+00 0. -1.
         13    1    3    3    0    0 -0.51022862493E+01  0.86007857448E+01 -0.55779841782E+01  0.11451284661E+02  0.10570000000E+00 0.  1.
<mgrwt>
<rscale>  0 0.20002106E+02</rscale>
<asrwt>0</asrwt>
<pdfrwt beam="2">  1        4 0.26055089E-02 0.20002106E+02</pdfrwt>
<pdfrwt beam="1">  1       -4 0.90859882E-03 0.20002106E+02</pdfrwt>
<totfact> 0.12844890E+06</totfact>
</mgrwt>
</event>
<event>
 5    1  0.5294824E-007  0.2000167E+02  0.7818608E-02  0.1745295E+00
         -4   -1    0    0    0  501 -0.00000000000E+00  0.00000000000E+00  0.15811971534E+02  0.15875605305E+02  0.14200000000E+01 0. -1.
          4   -1    0    0  501    0  0.00000000000E+00 -0.00000000000E+00 -0.61682068745E+01  0.63295478548E+01  0.14200000000E+01 0.  1.
       1023    2    1    2    0    0  0.00000000000E+00  0.00000000000E+00  0.96437646600E+01  0.22205153160E+02  0.20001665682E+02 0.  0.
        -13    1    3    3    0    0 -0.32220289552E+01 -0.94669344391E+01  0.47839614733E+01  0.11086107438E+02  0.10570000000E+00 0. -1.
         13    1    3    3    0    0  0.32220289552E+01  0.94669344391E+01  0.48598031867E+01  0.11119045722E+02  0.10570000000E+00 0.  1.
<mgrwt>
<rscale>  0 0.20001666E+02</rscale>
<asrwt>0</asrwt>
<pdfrwt beam="2">  1        4 0.96626066E-03 0.20001666E+02</pdfrwt>
<pdfrwt beam="1">  1       -4 0.24499167E-02 0.20001666E+02</pdfrwt>
<totfact> 0.12882145E+06</totfact>
</mgrwt>
</event>
<event>
 5    1  0.4710515E-007  0.2000277E+02  0.7818608E-02  0.1745273E+00
         -4   -1    0    0    0  501 -0.00000000000E+00  0.00000000000E+00  0.62579781462E+02  0.62595890024E+02  0.14200000000E+01 0. -1.
          4   -1    0    0  501    0  0.00000000000E+00 -0.00000000000E+00 -0.12634105150E+01  0.19006856998E+01  0.14200000000E+01 0.  1.
       1023    2    1    2    0    0  0.00000000000E+00  0.00000000000E+00  0.61316370947E+02  0.64496575724E+02  0.20002773156E+02 0.  0.
        -13    1    3    3    0    0 -0.71284614747E+00  0.99753865930E+01  0.30685862202E+02  0.32274599902E+02  0.10570000000E+00 0.  1.
         13    1    3    3    0    0  0.71284614747E+00 -0.99753865930E+01  0.30630508746E+02  0.32221975821E+02  0.10570000000E+00 0. -1.
<mgrwt>
<rscale>  0 0.20002773E+02</rscale>
<asrwt>0</asrwt>
<pdfrwt beam="2">  1        4 0.24463115E-03 0.20002773E+02</pdfrwt>
<pdfrwt beam="1">  1       -4 0.96779183E-02 0.20002773E+02</pdfrwt>
<totfact> 0.10946473E+06</totfact>
</mgrwt>
</event>
<event>
 5    1  0.4710515E-007  0.2000123E+02  0.7818608E-02  0.1745304E+00
         -4   -1    0    0    0  501 -0.00000000000E+00  0.00000000000E+00  0.10745255427E+03  0.10746193660E+03  0.14200000000E+01 0. -1.
          4   -1    0    0  501    0  0.00000000000E+00 -0.00000000000E+00 -0.37415624718E+00  0.14684661717E+01  0.14200000000E+01 0.  1.
       1023    2    1    2    0    0  0.00000000000E+00  0.00000000000E+00  0.10707839802E+03  0.10893040277E+03  0.20001233117E+02 0.  0.
        -13    1    3    3    0    0  0.24203864643E+01  0.97026875685E+01  0.53390809895E+02  0.54319335144E+02  0.10570000000E+00 0.  1.
         13    1    3    3    0    0 -0.24203864643E+01 -0.97026875685E+01  0.53687588124E+02  0.54611067630E+02  0.10570000000E+00 0. -1.
<mgrwt>
<rscale>  0 0.20001233E+02</rscale>
<asrwt>0</asrwt>
<pdfrwt beam="2">  1        4 0.14246187E-03 0.20001233E+02</pdfrwt>
<pdfrwt beam="1">  1       -4 0.16616066E-01 0.20001233E+02</pdfrwt>
<totfact> 0.95528282E+05</totfact>
</mgrwt>
</event>
<event>
 5    1  0.4710515E-007  0.2000357E+02  0.7818608E-02  0.1745257E+00
          4   -1    0    0  501    0  0.00000000000E+00  0.00000000000E+00  0.10157429244E+03  0.10158421770E+03  0.14200000000E+01 0.  1.
         -4   -1    0    0    0  501 -0.00000000000E+00 -0.00000000000E+00 -0.45775121960E+00  0.14919571639E+01  0.14200000000E+01 0.  1.
       1023    2    1    2    0    0  0.00000000000E+00  0.00000000000E+00  0.10111654122E+03  0.10307617486E+03  0.20003572560E+02 0.  0.
        -13    1    3    3    0    0  0.16301044545E+01 -0.98674024117E+01  0.50346724913E+02  0.51330563535E+02  0.10570000000E+00 0.  1.
         13    1    3    3    0    0 -0.16301044545E+01  0.98674024117E+01  0.50769816310E+02  0.51745611327E+02  0.10570000000E+00 0. -1.
<mgrwt>
<rscale>  0 0.20003573E+02</rscale>
<asrwt>0</asrwt>
<pdfrwt beam="1">  1        4 0.15707133E-01 0.20003573E+02</pdfrwt>
<pdfrwt beam="2">  1       -4 0.15074104E-03 0.20003573E+02</pdfrwt>
<totfact> 0.97110638E+05</totfact>
</mgrwt>
</event>
<event>
 5    1  0.4710515E-007  0.2000994E+02  0.7818608E-02  0.1745131E+00
         -4   -1    0    0    0  501 -0.00000000000E+00  0.00000000000E+00  0.30282136242E+02  0.30315411516E+02  0.14200000000E+01 0.  1.
          4   -1    0    0  501    0  0.00000000000E+00 -0.00000000000E+00 -0.31162425887E+01  0.34245244738E+01  0.14200000000E+01 0. -1.
       1023    2    1    2    0    0  0.00000000000E+00  0.00000000000E+00  0.27165893654E+02  0.33739935990E+02  0.20009935098E+02 0.  0.
        -13    1    3    3    0    0  0.98506368647E+01 -0.17435435177E+01  0.13389130001E+02  0.16713915319E+02  0.10570000000E+00 0. -1.
         13    1    3    3    0    0 -0.98506368647E+01  0.17435435177E+01  0.13776763653E+02  0.17026020671E+02  0.10570000000E+00 0.  1.
<mgrwt>
<rscale>  0 0.20009935E+02</rscale>
<asrwt>0</asrwt>
<pdfrwt beam="2">  1        4 0.50569559E-03 0.20009935E+02</pdfrwt>
<pdfrwt beam="1">  1       -4 0.46850635E-02 0.20009935E+02</pdfrwt>
<totfact> 0.12252181E+06</totfact>
</mgrwt>
</event>
<event>
 5    1  0.4710515E-007  0.2000148E+02  0.7818608E-02  0.1745299E+00
         -4   -1    0    0    0  501 -0.00000000000E+00  0.00000000000E+00  0.97286377618E+00  0.17212971641E+01  0.14200000000E+01 0.  1.
          4   -1    0    0  501    0  0.00000000000E+00 -0.00000000000E+00 -0.73488379027E+02  0.73502096923E+02  0.14200000000E+01 0. -1.
       1023    2    1    2    0    0  0.00000000000E+00  0.00000000000E+00 -0.72515515251E+02  0.75223394087E+02  0.20001476591E+02 0.  0.
        -13    1    3    3    0    0  0.97375725597E+01  0.22766710959E+01 -0.36282514063E+02  0.37635562303E+02  0.10570000000E+00 0. -1.
         13    1    3    3    0    0 -0.97375725597E+01 -0.22766710959E+01 -0.36233001188E+02  0.37587831784E+02  0.10570000000E+00 0.  1.
<mgrwt>
<rscale>  0 0.20001477E+02</rscale>
<asrwt>0</asrwt>
<pdfrwt beam="2">  1        4 0.11364528E-01 0.20001477E+02</pdfrwt>
<pdfrwt beam="1">  1       -4 0.20829843E-03 0.20001477E+02</pdfrwt>
<totfact> 0.10568572E+06</totfact>
</mgrwt>
</event>
<event>
 5    1  0.4710515E-007  0.2000877E+02  0.7818608E-02  0.1745154E+00
          4   -1    0    0  501    0  0.00000000000E+00  0.00000000000E+00  0.54388985393E+01  0.56212113748E+01  0.14200000000E+01 0.  1.
         -4   -1    0    0    0  501 -0.00000000000E+00 -0.00000000000E+00 -0.17887956067E+02  0.17944229497E+02  0.14200000000E+01 0. -1.
       1023    2    1    2    0    0  0.00000000000E+00  0.00000000000E+00 -0.12449057528E+02  0.23565440872E+02  0.20008772330E+02 0.  0.
        -13    1    3    3    0    0 -0.95554807051E+01  0.29524100906E+01 -0.59543289624E+01  0.11639980358E+02  0.10570000000E+00 0.  1.
         13    1    3    3    0    0  0.95554807051E+01 -0.29524100906E+01 -0.64947285651E+01  0.11925460514E+02  0.10570000000E+00 0. -1.
<mgrwt>
<rscale>  0 0.20008772E+02</rscale>
<asrwt>0</asrwt>
<pdfrwt beam="1">  1        4 0.85510642E-03 0.20008772E+02</pdfrwt>
<pdfrwt beam="2">  1       -4 0.27703460E-02 0.20008772E+02</pdfrwt>
<totfact> 0.12794910E+06</totfact>
</mgrwt>
</event>
<event>
 5    1  0.4831442E-007  0.2000134E+02  0.7818608E-02  0.1745301E+00
         -4   -1    0    0    0  501 -0.00000000000E+00  0.00000000000E+00  0.38608376601E+01  0.41136926766E+01  0.14200000000E+01 0.  1.
          4   -1    0    0  501    0  0.00000000000E+00 -0.00000000000E+00 -0.24809409750E+02  0.24850014329E+02  0.14200000000E+01 0. -1.
       1023    2    1    2    0    0  0.00000000000E+00  0.00000000000E+00 -0.20948572090E+02  0.28963707005E+02  0.20001341227E+02 0.  0.
        -13    1    3    3    0    0  0.62805788929E+01 -0.77817598881E+01 -0.10433790163E+02  0.14452564058E+02  0.10570000000E+00 0.  1.
         13    1    3    3    0    0 -0.62805788929E+01  0.77817598881E+01 -0.10514781927E+02  0.14511142948E+02  0.10570000000E+00 0. -1.
<mgrwt>
<rscale>  0 0.20001341E+02</rscale>
<asrwt>0</asrwt>
<pdfrwt beam="2">  1        4 0.38394060E-02 0.20001341E+02</pdfrwt>
<pdfrwt beam="1">  1       -4 0.61654885E-03 0.20001341E+02</pdfrwt>
<totfact> 0.12508519E+06</totfact>
</mgrwt>
</event>
<event>
 4    1  0.4710515E-007  0.2001458E+02  0.7818608E-02  0.1745038E+00
         -4   -1    0    0    0  501 -0.00000000000E+00  0.00000000000E+00  0.45133357925E+02  0.45155690644E+02  0.14200000000E+01 0.  1.
          4   -1    0    0  501    0  0.00000000000E+00 -0.00000000000E+00 -0.19663907586E+01  0.24255087333E+01  0.14200000000E+01 0. -1.
        -13    1    1    2    0    0 -0.56136553326E+01 -0.82793007973E+01  0.20933513618E+02  0.23200929136E+02  0.10570000000E+00 0. -1.
         13    1    1    2    0    0  0.56136553326E+01  0.82793007973E+01  0.22233453549E+02  0.24380270242E+02  0.10570000000E+00 0.  1.
<mgrwt>
<rscale>  0 0.20014582E+02</rscale>
<asrwt>0</asrwt>
<pdfrwt beam="2">  1        4 0.33955632E-03 0.20014582E+02</pdfrwt>
<pdfrwt beam="1">  1       -4 0.69806283E-02 0.20014582E+02</pdfrwt>
<totfact> 0.11606070E+06</totfact>
</mgrwt>
</event>
<event>
 5    1  0.4710515E-007  0.2000184E+02  0.7818608E-02  0.1745292E+00
         -4   -1    0    0    0  501 -0.00000000000E+00  0.00000000000E+00  0.45720589913E+01  0.47874965713E+01  0.14200000000E+01 0. -1.
          4   -1    0    0  501    0  0.00000000000E+00 -0.00000000000E+00 -0.21132647306E+02  0.21180301748E+02  0.14200000000E+01 0.  1.
       1023    2    1    2    0    0  0.00000000000E+00  0.00000000000E+00 -0.16560588314E+02  0.25967798319E+02  0.20001836522E+02 0.  0.
        -13    1    3    3    0    0  0.91255032145E+01  0.40898894066E+01 -0.83738173647E+01  0.13043542235E+02  0.10570000000E+00 0.  1.
         13    1    3    3    0    0 -0.91255032145E+01 -0.40898894066E+01 -0.81867709496E+01  0.12924256085E+02  0.10570000000E+00 0. -1.
<mgrwt>
<rscale>  0 0.20001837E+02</rscale>
<asrwt>0</asrwt>
<pdfrwt beam="2">  1        4 0.32714143E-02 0.20001837E+02</pdfrwt>
<pdfrwt beam="1">  1       -4 0.72363156E-03 0.20001837E+02</pdfrwt>
<totfact> 0.12669573E+06</totfact>
</mgrwt>
</event>
<event>
 5    1  0.4710515E-007  0.2000345E+02  0.7818608E-02  0.1745260E+00
         -4   -1    0    0    0  501 -0.00000000000E+00  0.00000000000E+00  0.72680228262E+01  0.74054409594E+01  0.14200000000E+01 0. -1.
          4   -1    0    0  501    0  0.00000000000E+00 -0.00000000000E+00 -0.13459627754E+02  0.13534325963E+02  0.14200000000E+01 0.  1.
       1023    2    1    2    0    0  0.00000000000E+00  0.00000000000E+00 -0.61916049280E+01  0.20939766923E+02  0.20003446383E+02 0.  0.
        -13    1    3    3    0    0 -0.65550817633E+01  0.75533071034E+01 -0.31395833976E+01  0.10482828889E+02  0.10570000000E+00 0.  1.
         13    1    3    3    0    0  0.65550817633E+01 -0.75533071034E+01 -0.30520215304E+01  0.10456938033E+02  0.10570000000E+00 0. -1.
<mgrwt>
<rscale>  0 0.20003446E+02</rscale>
<asrwt>0</asrwt>
<pdfrwt beam="2">  1        4 0.20870286E-02 0.20003446E+02</pdfrwt>
<pdfrwt beam="1">  1       -4 0.11344740E-02 0.20003446E+02</pdfrwt>
<totfact> 0.12953752E+06</totfact>
</mgrwt>
</event>
<event>
 5    1  0.4710515E-007  0.2000384E+02  0.7818608E-02  0.1745252E+00
          4   -1    0    0  501    0  0.00000000000E+00  0.00000000000E+00  0.54398562731E+02  0.54417093152E+02  0.14200000000E+01 0. -1.
         -4   -1    0    0    0  501 -0.00000000000E+00 -0.00000000000E+00 -0.15431368229E+01  0.20970625299E+01  0.14200000000E+01 0.  1.
       1023    2    1    2    0    0  0.00000000000E+00  0.00000000000E+00  0.52855425908E+02  0.56514155682E+02  0.20003843246E+02 0.  0.
        -13    1    3    3    0    0  0.74406437832E+01  0.66812948070E+01  0.25986557767E+02  0.27844483068E+02  0.10570000000E+00 0.  1.
         13    1    3    3    0    0 -0.74406437832E+01 -0.66812948070E+01  0.26868868140E+02  0.28669672615E+02  0.10570000000E+00 0. -1.
<mgrwt>
<rscale>  0 0.20003843E+02</rscale>
<asrwt>0</asrwt>
<pdfrwt beam="1">  1        4 0.84130444E-02 0.20003843E+02</pdfrwt>
<pdfrwt beam="2">  1       -4 0.28144076E-03 0.20003843E+02</pdfrwt>
<totfact> 0.11250255E+06</totfact>
</mgrwt>
</event>
<event>
 5    1  0.4710515E-007  0.2000314E+02  0.7818608E-02  0.1745266E+00
          4   -1    0    0  501    0  0.00000000000E+00  0.00000000000E+00  0.93077461246E+01  0.94154414618E+01  0.14200000000E+01 0.  1.
         -4   -1    0    0    0  501 -0.00000000000E+00 -0.00000000000E+00 -0.10529671996E+02  0.10624989051E+02  0.14200000000E+01 0. -1.
       1023    2    1    2    0    0  0.00000000000E+00  0.00000000000E+00 -0.12219258710E+01  0.20040430513E+02  0.20003143561E+02 0.  0.
        -13    1    3    3    0    0  0.51015452544E+01 -0.86011377315E+01 -0.48854135190E+00  0.10012750841E+02  0.10570000000E+00 0. -1.
         13    1    3    3    0    0 -0.51015452544E+01  0.86011377315E+01 -0.73338451908E+00  0.10027679672E+02  0.10570000000E+00 0.  1.
<mgrwt>
<rscale>  0 0.20003144E+02</rscale>
<asrwt>0</asrwt>
<pdfrwt beam="1">  1        4 0.14475773E-02 0.20003144E+02</pdfrwt>
<pdfrwt beam="2">  1       -4 0.16355659E-02 0.20003144E+02</pdfrwt>
<totfact> 0.13007470E+06</totfact>
</mgrwt>
</event>
<event>
 5    1  0.5236061E-007  0.2000142E+02  0.7818608E-02  0.1745300E+00
          4   -1    0    0  501    0  0.00000000000E+00  0.00000000000E+00  0.84892361652E+01  0.86071790192E+01  0.14200000000E+01 0. -1.
         -4   -1    0    0    0  501 -0.00000000000E+00 -0.00000000000E+00 -0.11538254195E+02  0.11625304721E+02  0.14200000000E+01 0.  1.
       1023    2    1    2    0    0  0.00000000000E+00  0.00000000000E+00 -0.30490180297E+01  0.20232483741E+02  0.20001422134E+02 0.  0.
        -13    1    3    3    0    0  0.52032593039E+01  0.85397359440E+01 -0.15703310386E+01  0.10123147210E+02  0.10570000000E+00 0.  1.
         13    1    3    3    0    0 -0.52032593039E+01 -0.85397359440E+01 -0.14786869912E+01  0.10109336530E+02  0.10570000000E+00 0. -1.
<mgrwt>
<rscale>  0 0.20001422E+02</rscale>
<asrwt>0</asrwt>
<pdfrwt beam="1">  1        4 0.13218051E-02 0.20001422E+02</pdfrwt>
<pdfrwt beam="2">  1       -4 0.17908847E-02 0.20001422E+02</pdfrwt>
<totfact> 0.12998320E+06</totfact>
</mgrwt>
</event>
<event>
 4    1  0.4710515E-007  0.2001244E+02  0.7818608E-02  0.1745081E+00
          4   -1    0    0  501    0  0.00000000000E+00  0.00000000000E+00  0.19093725762E+01  0.23795175214E+01  0.14200000000E+01 0.  1.
         -4   -1    0    0    0  501 -0.00000000000E+00 -0.00000000000E+00 -0.46207894446E+02  0.46229708079E+02  0.14200000000E+01 0. -1.
        -13    1    1    2    0    0  0.88383161008E+01  0.46890102664E+01 -0.21898923980E+02  0.24076475920E+02  0.10570000000E+00 0.  1.
         13    1    1    2    0    0 -0.88383161008E+01 -0.46890102664E+01 -0.22399597890E+02  0.24532749681E+02  0.10570000000E+00 0. -1.
<mgrwt>
<rscale>  0 0.20012440E+02</rscale>
<asrwt>0</asrwt>
<pdfrwt beam="1">  1        4 0.33159263E-03 0.20012440E+02</pdfrwt>
<pdfrwt beam="2">  1       -4 0.71467491E-02 0.20012440E+02</pdfrwt>
<totfact> 0.11564583E+06</totfact>
</mgrwt>
</event>
<event>
 5    1  0.4710515E-007  0.2000608E+02  0.7818608E-02  0.1745207E+00
         -4   -1    0    0    0  501 -0.00000000000E+00  0.00000000000E+00  0.36486463283E+02  0.36514084993E+02  0.14200000000E+01 0.  1.
          4   -1    0    0  501    0  0.00000000000E+00 -0.00000000000E+00 -0.25279160190E+01  0.28994412218E+01  0.14200000000E+01 0. -1.
       1023    2    1    2    0    0  0.00000000000E+00  0.00000000000E+00  0.33958547264E+02  0.39413526215E+02  0.20006076988E+02 0.  0.
        -13    1    3    3    0    0  0.80074633187E+01 -0.59935025332E+01  0.16802347907E+02  0.19554324563E+02  0.10570000000E+00 0.  1.
         13    1    3    3    0    0 -0.80074633187E+01  0.59935025332E+01  0.17156199357E+02  0.19859201653E+02  0.10570000000E+00 0. -1.
<mgrwt>
<rscale>  0 0.20006077E+02</rscale>
<asrwt>0</asrwt>
<pdfrwt beam="2">  1        4 0.41961377E-03 0.20006077E+02</pdfrwt>
<pdfrwt beam="1">  1       -4 0.56440056E-02 0.20006077E+02</pdfrwt>
<totfact> 0.11982622E+06</totfact>
</mgrwt>
</event>
<event>
 5    1  0.4710515E-007  0.2000897E+02  0.7818608E-02  0.1745150E+00
          4   -1    0    0  501    0  0.00000000000E+00  0.00000000000E+00  0.18291579512E+02  0.18346614975E+02  0.14200000000E+01 0.  1.
         -4   -1    0    0    0  501 -0.00000000000E+00 -0.00000000000E+00 -0.53152992963E+01  0.55017094261E+01  0.14200000000E+01 0. -1.
       1023    2    1    2    0    0  0.00000000000E+00  0.00000000000E+00  0.12976280216E+02  0.23848324401E+02  0.20008966203E+02 0.  0.
        -13    1    3    3    0    0 -0.24203979522E+01 -0.97066744313E+01  0.64576392217E+01  0.11907566148E+02  0.10570000000E+00 0. -1.
         13    1    3    3    0    0  0.24203979522E+01  0.97066744313E+01  0.65186409941E+01  0.11940758253E+02  0.10570000000E+00 0.  1.
<mgrwt>
<rscale>  0 0.20008966E+02</rscale>
<asrwt>0</asrwt>
<pdfrwt beam="1">  1        4 0.28326619E-02 0.20008966E+02</pdfrwt>
<pdfrwt beam="2">  1       -4 0.83631109E-03 0.20008966E+02</pdfrwt>
<totfact> 0.12778649E+06</totfact>
</mgrwt>
</event>
<event>
 4    1  0.4710515E-007  0.2004434E+02  0.7818608E-02  0.1744448E+00
         -4   -1    0    0    0  501 -0.00000000000E+00  0.00000000000E+00  0.63637948269E+01  0.65202978918E+01  0.14200000000E+01 0. -1.
          4   -1    0    0  501    0  0.00000000000E+00 -0.00000000000E+00 -0.15402366350E+02  0.15467685321E+02  0.14200000000E+01 0.  1.
        -13    1    1    2    0    0  0.79983115804E+01 -0.60374211826E+01 -0.46250306738E+01  0.11037460029E+02  0.10570000000E+00 0. -1.
         13    1    1    2    0    0 -0.79983115804E+01  0.60374211826E+01 -0.44135408496E+01  0.10950523184E+02  0.10570000000E+00 0.  1.
<mgrwt>
<rscale>  0 0.20044342E+02</rscale>
<asrwt>0</asrwt>
<pdfrwt beam="2">  1        4 0.23866580E-02 0.20044342E+02</pdfrwt>
<pdfrwt beam="1">  1       -4 0.99610860E-03 0.20044342E+02</pdfrwt>
<totfact> 0.12838786E+06</totfact>
</mgrwt>
</event>
<event>
 5    1  0.4710515E-007  0.2000181E+02  0.7818608E-02  0.1745292E+00
         -4   -1    0    0    0  501 -0.00000000000E+00  0.00000000000E+00  0.74409107261E+02  0.74422655445E+02  0.14200000000E+01 0.  1.
          4   -1    0    0  501    0  0.00000000000E+00 -0.00000000000E+00 -0.95156753970E+00  0.17093509829E+01  0.14200000000E+01 0. -1.
       1023    2    1    2    0    0  0.00000000000E+00  0.00000000000E+00  0.73457539722E+02  0.76132006428E+02  0.20001806436E+02 0.  0.
        -13    1    3    3    0    0  0.82857351965E+01  0.55993713763E+01  0.36815993327E+02  0.38150162577E+02  0.10570000000E+00 0. -1.
         13    1    3    3    0    0 -0.82857351965E+01 -0.55993713763E+01  0.36641546395E+02  0.37981843850E+02  0.10570000000E+00 0.  1.
<mgrwt>
<rscale>  0 0.20001806E+02</rscale>
<asrwt>0</asrwt>
<pdfrwt beam="2">  1        4 0.20572815E-03 0.20001806E+02</pdfrwt>
<pdfrwt beam="1">  1       -4 0.11506892E-01 0.20001806E+02</pdfrwt>
<totfact> 0.10537539E+06</totfact>
</mgrwt>
</event>
<event>
 5    1  0.4710515E-007  0.2001083E+02  0.7818608E-02  0.1745113E+00
         -4   -1    0    0    0  501 -0.00000000000E+00  0.00000000000E+00  0.53574340849E+02  0.53593156256E+02  0.14200000000E+01 0.  1.
          4   -1    0    0  501    0  0.00000000000E+00 -0.00000000000E+00 -0.15768193513E+01  0.21219706093E+01  0.14200000000E+01 0. -1.
       1023    2    1    2    0    0  0.00000000000E+00  0.00000000000E+00  0.51997521498E+02  0.55715126865E+02  0.20010825061E+02 0.  0.
        -13    1    3    3    0    0 -0.98656216008E+01 -0.16576985925E+01  0.26379024661E+02  0.28212454142E+02  0.10570000000E+00 0. -1.
         13    1    3    3    0    0  0.98656216008E+01  0.16576985925E+01  0.25618496837E+02  0.27502672723E+02  0.10570000000E+00 0.  1.
<mgrwt>
<rscale>  0 0.20010825E+02</rscale>
<asrwt>0</asrwt>
<pdfrwt beam="2">  1        4 0.28596967E-03 0.20010825E+02</pdfrwt>
<pdfrwt beam="1">  1       -4 0.82855876E-02 0.20010825E+02</pdfrwt>
<totfact> 0.11274031E+06</totfact>
</mgrwt>
</event>
<event>
 4    1  0.4710515E-007  0.2003979E+02  0.7818608E-02  0.1744538E+00
          4   -1    0    0  501    0  0.00000000000E+00  0.00000000000E+00  0.13207130349E+02  0.13283248551E+02  0.14200000000E+01 0.  1.
         -4   -1    0    0    0  501 -0.00000000000E+00 -0.00000000000E+00 -0.74364869431E+01  0.75708479085E+01  0.14200000000E+01 0. -1.
        -13    1    1    2    0    0 -0.14557812353E+01  0.99092584894E+01  0.26015160923E+01  0.10348514931E+02  0.10570000000E+00 0. -1.
         13    1    1    2    0    0  0.14557812353E+01 -0.99092584894E+01  0.31691273136E+01  0.10505581528E+02  0.10570000000E+00 0.  1.
<mgrwt>
<rscale>  0 0.20039786E+02</rscale>
<asrwt>0</asrwt>
<pdfrwt beam="1">  1        4 0.20480569E-02 0.20039786E+02</pdfrwt>
<pdfrwt beam="2">  1       -4 0.11602656E-02 0.20039786E+02</pdfrwt>
<totfact> 0.12910903E+06</totfact>
</mgrwt>
</event>
<event>
 5    1  0.4710515E-007  0.2001011E+02  0.7818608E-02  0.1745127E+00
         -4   -1    0    0    0  501 -0.00000000000E+00  0.00000000000E+00  0.69722488565E+00  0.15819363265E+01  0.14200000000E+01 0.  1.
          4   -1    0    0  501    0  0.00000000000E+00 -0.00000000000E+00 -0.86947585866E+02  0.86959180584E+02  0.14200000000E+01 0. -1.
       1023    2    1    2    0    0  0.00000000000E+00  0.00000000000E+00 -0.86250360980E+02  0.88541116911E+02  0.20010112808E+02 0.  0.
        -13    1    3    3    0    0  0.94194880278E+01 -0.33580503035E+01 -0.41822113775E+02  0.43001204979E+02  0.10570000000E+00 0.  1.
         13    1    3    3    0    0 -0.94194880278E+01  0.33580503035E+01 -0.44428247205E+02  0.45539911932E+02  0.10570000000E+00 0. -1.
<mgrwt>
<rscale>  0 0.20010113E+02</rscale>
<asrwt>0</asrwt>
<pdfrwt beam="2">  1        4 0.13445493E-01 0.20010113E+02</pdfrwt>
<pdfrwt beam="1">  1       -4 0.17621206E-03 0.20010113E+02</pdfrwt>
<totfact> 0.10130128E+06</totfact>
</mgrwt>
</event>
<event>
 5    1  0.4710515E-007  0.2000927E+02  0.7818608E-02  0.1745144E+00
         -4   -1    0    0    0  501 -0.00000000000E+00  0.00000000000E+00  0.89599551862E+01  0.90717802519E+01  0.14200000000E+01 0. -1.
          4   -1    0    0  501    0  0.00000000000E+00 -0.00000000000E+00 -0.10943865392E+02  0.11035605544E+02  0.14200000000E+01 0.  1.
       1023    2    1    2    0    0  0.00000000000E+00  0.00000000000E+00 -0.19839102055E+01  0.20107385795E+02  0.20009274445E+02 0.  0.
        -13    1    3    3    0    0 -0.50096069142E+01 -0.86593818277E+01 -0.10152721864E+01  0.10055993495E+02  0.10570000000E+00 0. -1.
         13    1    3    3    0    0  0.50096069142E+01  0.86593818277E+01 -0.96863801906E+00  0.10051392300E+02  0.10570000000E+00 0.  1.
<mgrwt>
<rscale>  0 0.20009274E+02</rscale>
<asrwt>0</asrwt>
<pdfrwt beam="2">  1        4 0.16993305E-02 0.20009274E+02</pdfrwt>
<pdfrwt beam="1">  1       -4 0.13941135E-02 0.20009274E+02</pdfrwt>
<totfact> 0.12995366E+06</totfact>
</mgrwt>
</event>
<event>
 5    1  0.4710515E-007  0.2000267E+02  0.7818608E-02  0.1745275E+00
         -4   -1    0    0    0  501 -0.00000000000E+00  0.00000000000E+00  0.29725294785E+02  0.29759192698E+02  0.14200000000E+01 0.  1.
          4   -1    0    0  501    0  0.00000000000E+00 -0.00000000000E+00 -0.31777146057E+01  0.34805560066E+01  0.14200000000E+01 0. -1.
       1023    2    1    2    0    0  0.00000000000E+00  0.00000000000E+00  0.26547580179E+02  0.33239748704E+02  0.20002671836E+02 0.  0.
        -13    1    3    3    0    0  0.55913794162E+00  0.99850484452E+01  0.13204872573E+02  0.16564832020E+02  0.10570000000E+00 0. -1.
         13    1    3    3    0    0 -0.55913794162E+00 -0.99850484452E+01  0.13342707606E+02  0.16674916684E+02  0.10570000000E+00 0.  1.
<mgrwt>
<rscale>  0 0.20002672E+02</rscale>
<asrwt>0</asrwt>
<pdfrwt beam="2">  1        4 0.51478221E-03 0.20002672E+02</pdfrwt>
<pdfrwt beam="1">  1       -4 0.45990252E-02 0.20002672E+02</pdfrwt>
<totfact> 0.12286291E+06</totfact>
</mgrwt>
</event>
<event>
 5    1  0.5030937E-007  0.2000748E+02  0.7818608E-02  0.1745179E+00
         -4   -1    0    0    0  501 -0.00000000000E+00  0.00000000000E+00  0.11068166681E+02  0.11158884966E+02  0.14200000000E+01 0. -1.
          4   -1    0    0  501    0  0.00000000000E+00 -0.00000000000E+00 -0.88572740180E+01  0.89703792021E+01  0.14200000000E+01 0.  1.
       1023    2    1    2    0    0  0.00000000000E+00  0.00000000000E+00  0.22108926630E+01  0.20129264168E+02  0.20007479341E+02 0.  0.
        -13    1    3    3    0    0 -0.99540368212E+01 -0.96769330127E+00  0.13173358405E+01  0.10087904915E+02  0.10570000000E+00 0. -1.
         13    1    3    3    0    0  0.99540368212E+01  0.96769330127E+00  0.89355682255E+00  0.10041359253E+02  0.10570000000E+00 0.  1.
<mgrwt>
<rscale>  0 0.20007479E+02</rscale>
<asrwt>0</asrwt>
<pdfrwt beam="2">  1        4 0.13783363E-02 0.20007479E+02</pdfrwt>
<pdfrwt beam="1">  1       -4 0.17184736E-02 0.20007479E+02</pdfrwt>
<totfact> 0.12996445E+06</totfact>
</mgrwt>
</event>
<event>
 4    1  0.4710515E-007  0.2001927E+02  0.7818608E-02  0.1744945E+00
          4   -1    0    0  501    0  0.00000000000E+00  0.00000000000E+00  0.28173526436E+02  0.28209289105E+02  0.14200000000E+01 0. -1.
         -4   -1    0    0    0  501 -0.00000000000E+00 -0.00000000000E+00 -0.33748806607E+01  0.36614504604E+01  0.14200000000E+01 0. -1.
        -13    1    1    2    0    0  0.88037596878E+01  0.47598370877E+01  0.12177606449E+02  0.15762852060E+02  0.10570000000E+00 0.  1.
         13    1    1    2    0    0 -0.88037596878E+01 -0.47598370877E+01  0.12621039326E+02  0.16107887506E+02  0.10570000000E+00 0. -1.
<mgrwt>
<rscale>  0 0.20019271E+02</rscale>
<asrwt>0</asrwt>
<pdfrwt beam="1">  1        4 0.43591835E-02 0.20019271E+02</pdfrwt>
<pdfrwt beam="2">  1       -4 0.54400722E-03 0.20019271E+02</pdfrwt>
<totfact> 0.12334925E+06</totfact>
</mgrwt>
</event>
<event>
 5    1  0.4710515E-007  0.2000404E+02  0.7818608E-02  0.1745248E+00
         -4   -1    0    0    0  501 -0.00000000000E+00  0.00000000000E+00  0.14966989183E+02  0.15034199853E+02  0.14200000000E+01 0.  1.
          4   -1    0    0  501    0  0.00000000000E+00 -0.00000000000E+00 -0.65253536222E+01  0.66780715701E+01  0.14200000000E+01 0. -1.
       1023    2    1    2    0    0  0.00000000000E+00  0.00000000000E+00  0.84416355611E+01  0.21712271423E+02  0.20004037577E+02 0.  0.
        -13    1    3    3    0    0 -0.60923635167E+01  0.79309604086E+01  0.43406107940E+01  0.10902710708E+02  0.10570000000E+00 0. -1.
         13    1    3    3    0    0  0.60923635167E+01 -0.79309604086E+01  0.41010247670E+01  0.10809560715E+02  0.10570000000E+00 0.  1.
<mgrwt>
<rscale>  0 0.20004038E+02</rscale>
<asrwt>0</asrwt>
<pdfrwt beam="2">  1        4 0.10208182E-02 0.20004038E+02</pdfrwt>
<pdfrwt beam="1">  1       -4 0.23195313E-02 0.20004038E+02</pdfrwt>
<totfact> 0.12907649E+06</totfact>
</mgrwt>
</event>
<event>
 5    1  0.4710515E-007  0.2000713E+02  0.7818608E-02  0.1745186E+00
          4   -1    0    0  501    0  0.00000000000E+00  0.00000000000E+00  0.19287728598E+02  0.19339929537E+02  0.14200000000E+01 0. -1.
         -4   -1    0    0    0  501 -0.00000000000E+00 -0.00000000000E+00 -0.50307123552E+01  0.52272810141E+01  0.14200000000E+01 0. -1.
       1023    2    1    2    0    0  0.00000000000E+00  0.00000000000E+00  0.14257016243E+02  0.24567210551E+02  0.20007131781E+02 0.  0.
        -13    1    3    3    0    0 -0.92793776621E+01 -0.37308590859E+01  0.69020946375E+01  0.12152211411E+02  0.10570000000E+00 0. -1.
         13    1    3    3    0    0  0.92793776621E+01  0.37308590859E+01  0.73549216056E+01  0.12414999139E+02  0.10570000000E+00 0.  1.
<mgrwt>
<rscale>  0 0.20007132E+02</rscale>
<asrwt>0</asrwt>
<pdfrwt beam="1">  1        4 0.29864790E-02 0.20007132E+02</pdfrwt>
<pdfrwt beam="2">  1       -4 0.79309187E-03 0.20007132E+02</pdfrwt>
<totfact> 0.12740569E+06</totfact>
</mgrwt>
</event>
<event>
 5    1  0.4710515E-007  0.2000237E+02  0.7818608E-02  0.1745281E+00
          4   -1    0    0  501    0  0.00000000000E+00  0.00000000000E+00  0.18180161451E+02  0.18235533181E+02  0.14200000000E+01 0.  1.
         -4   -1    0    0    0  501 -0.00000000000E+00 -0.00000000000E+00 -0.53452276045E+01  0.55306290912E+01  0.14200000000E+01 0.  1.
       1023    2    1    2    0    0  0.00000000000E+00  0.00000000000E+00  0.12834933847E+02  0.23766162272E+02  0.20002373417E+02 0.  0.
        -13    1    3    3    0    0 -0.41233131610E+01 -0.91109749501E+01  0.64547972862E+01  0.11903241427E+02  0.10570000000E+00 0.  1.
         13    1    3    3    0    0  0.41233131610E+01  0.91109749501E+01  0.63801365606E+01  0.11862920846E+02  0.10570000000E+00 0. -1.
<mgrwt>
<rscale>  0 0.20002373E+02</rscale>
<asrwt>0</asrwt>
<pdfrwt beam="1">  1        4 0.28154689E-02 0.20002373E+02</pdfrwt>
<pdfrwt beam="2">  1       -4 0.84086372E-03 0.20002373E+02</pdfrwt>
<totfact> 0.12791879E+06</totfact>
</mgrwt>
</event>
<event>
 5    1  0.4710515E-007  0.2000306E+02  0.7818608E-02  0.1745267E+00
          4   -1    0    0  501    0  0.00000000000E+00  0.00000000000E+00  0.25583920644E+02  0.25623297905E+02  0.14200000000E+01 0. -1.
         -4   -1    0    0    0  501 -0.00000000000E+00 -0.00000000000E+00 -0.37370710209E+01  0.39977618507E+01  0.14200000000E+01 0.  1.
       1023    2    1    2    0    0  0.00000000000E+00  0.00000000000E+00  0.21846849623E+02  0.29621059756E+02  0.20003058331E+02 0.  0.
        -13    1    3    3    0    0  0.87532944195E+01 -0.48372729115E+01  0.10932876805E+02  0.14817501143E+02  0.10570000000E+00 0.  1.
         13    1    3    3    0    0 -0.87532944195E+01  0.48372729115E+01  0.10913972818E+02  0.14803558612E+02  0.10570000000E+00 0. -1.
<mgrwt>
<rscale>  0 0.20003058E+02</rscale>
<asrwt>0</asrwt>
<pdfrwt beam="1">  1        4 0.39590698E-02 0.20003058E+02</pdfrwt>
<pdfrwt beam="2">  1       -4 0.59801618E-03 0.20003058E+02</pdfrwt>
<totfact> 0.12471704E+06</totfact>
</mgrwt>
</event>
<event>
 5    1  0.4710515E-007  0.2000792E+02  0.7818608E-02  0.1745171E+00
          4   -1    0    0  501    0  0.00000000000E+00  0.00000000000E+00  0.20177930552E+02  0.20227834322E+02  0.14200000000E+01 0. -1.
         -4   -1    0    0    0  501 -0.00000000000E+00 -0.00000000000E+00 -0.48008811656E+01  0.50064817953E+01  0.14200000000E+01 0.  1.
       1023    2    1    2    0    0  0.00000000000E+00  0.00000000000E+00  0.15377049387E+02  0.25234316118E+02  0.20007924982E+02 0.  0.
        -13    1    3    3    0    0  0.59363338639E+01  0.80484037861E+01  0.74030610882E+01  0.12443204941E+02  0.10570000000E+00 0.  1.
         13    1    3    3    0    0 -0.59363338639E+01 -0.80484037861E+01  0.79739882985E+01  0.12791111176E+02  0.10570000000E+00 0. -1.
<mgrwt>
<rscale>  0 0.20007925E+02</rscale>
<asrwt>0</asrwt>
<pdfrwt beam="1">  1        4 0.31239512E-02 0.20007925E+02</pdfrwt>
<pdfrwt beam="2">  1       -4 0.75825130E-03 0.20007925E+02</pdfrwt>
<totfact> 0.12702288E+06</totfact>
</mgrwt>
</event>
<event>
 5    1  0.4710515E-007  0.2000250E+02  0.7818608E-02  0.1745278E+00
          4   -1    0    0  501    0  0.00000000000E+00  0.00000000000E+00  0.27584954279E+01  0.31025307453E+01  0.14200000000E+01 0. -1.
         -4   -1    0    0    0  501 -0.00000000000E+00 -0.00000000000E+00 -0.33772408109E+02  0.33802247698E+02  0.14200000000E+01 0.  1.
       1023    2    1    2    0    0  0.00000000000E+00  0.00000000000E+00 -0.31013912681E+02  0.36904778443E+02  0.20002497149E+02 0.  0.
        -13    1    3    3    0    0 -0.64217186775E+01  0.76664422066E+01 -0.15448796700E+02  0.18403513220E+02  0.10570000000E+00 0.  1.
         13    1    3    3    0    0  0.64217186775E+01 -0.76664422066E+01 -0.15565115981E+02  0.18501265223E+02  0.10570000000E+00 0. -1.
<mgrwt>
<rscale>  0 0.20002497E+02</rscale>
<asrwt>0</asrwt>
<pdfrwt beam="1">  1        4 0.45314354E-03 0.20002497E+02</pdfrwt>
<pdfrwt beam="2">  1       -4 0.52245144E-02 0.20002497E+02</pdfrwt>
<totfact> 0.12106120E+06</totfact>
</mgrwt>
</event>
<event>
 5    1  0.4710515E-007  0.2000595E+02  0.7818608E-02  0.1745210E+00
         -4   -1    0    0    0  501 -0.00000000000E+00  0.00000000000E+00  0.16273767468E+01  0.21598044069E+01  0.14200000000E+01 0.  1.
          4   -1    0    0  501    0  0.00000000000E+00 -0.00000000000E+00 -0.52297758753E+02  0.52317033274E+02  0.14200000000E+01 0. -1.
       1023    2    1    2    0    0  0.00000000000E+00  0.00000000000E+00 -0.50670382007E+02  0.54476837681E+02  0.20005954890E+02 0.  0.
        -13    1    3    3    0    0 -0.80642603706E+01  0.59141846662E+01 -0.25869555470E+02  0.27735445702E+02  0.10570000000E+00 0.  1.
         13    1    3    3    0    0  0.80642603706E+01 -0.59141846662E+01 -0.24800826536E+02  0.26741391979E+02  0.10570000000E+00 0. -1.
<mgrwt>
<rscale>  0 0.20005955E+02</rscale>
<asrwt>0</asrwt>
<pdfrwt beam="2">  1        4 0.80882466E-02 0.20005955E+02</pdfrwt>
<pdfrwt beam="1">  1       -4 0.29280432E-03 0.20005955E+02</pdfrwt>
<totfact> 0.11329143E+06</totfact>
</mgrwt>
</event>
<event>
 4    1  0.4710515E-007  0.2002199E+02  0.7818608E-02  0.1744891E+00
          4   -1    0    0  501    0  0.00000000000E+00  0.00000000000E+00  0.55706352972E+01  0.57487718353E+01  0.14200000000E+01 0. -1.
         -4   -1    0    0    0  501 -0.00000000000E+00 -0.00000000000E+00 -0.17500292330E+02  0.17557808281E+02  0.14200000000E+01 0.  1.
        -13    1    1    2    0    0  0.43063438379E+01 -0.90346151511E+01 -0.57321662925E+01  0.11534200062E+02  0.10570000000E+00 0. -1.
         13    1    1    2    0    0 -0.43063438379E+01  0.90346151511E+01 -0.61974907406E+01  0.11772380055E+02  0.10570000000E+00 0.  1.
<mgrwt>
<rscale>  0 0.20021987E+02</rscale>
<asrwt>0</asrwt>
<pdfrwt beam="1">  1        4 0.87514794E-03 0.20021987E+02</pdfrwt>
<pdfrwt beam="2">  1       -4 0.27104797E-02 0.20021987E+02</pdfrwt>
<totfact> 0.12792388E+06</totfact>
</mgrwt>
</event>
<event>
 5    1  0.4710515E-007  0.2000233E+02  0.7818608E-02  0.1745282E+00
          4   -1    0    0  501    0  0.00000000000E+00  0.00000000000E+00  0.55972920956E+01  0.57746063765E+01  0.14200000000E+01 0. -1.
         -4   -1    0    0    0  501 -0.00000000000E+00 -0.00000000000E+00 -0.17384601573E+02  0.17442499014E+02  0.14200000000E+01 0.  1.
       1023    2    1    2    0    0  0.00000000000E+00  0.00000000000E+00 -0.11787309478E+02  0.23217105391E+02  0.20002332814E+02 0.  0.
        -13    1    3    3    0    0 -0.19876754785E+00 -0.99985056156E+01 -0.58352262972E+01  0.11578888613E+02  0.10570000000E+00 0.  1.
         13    1    3    3    0    0  0.19876754785E+00  0.99985056156E+01 -0.59520831804E+01  0.11638216778E+02  0.10570000000E+00 0. -1.
<mgrwt>
<rscale>  0 0.20002333E+02</rscale>
<asrwt>0</asrwt>
<pdfrwt beam="1">  1        4 0.87921508E-03 0.20002333E+02</pdfrwt>
<pdfrwt beam="2">  1       -4 0.26926473E-02 0.20002333E+02</pdfrwt>
<totfact> 0.12823123E+06</totfact>
</mgrwt>
</event>
<event>
 5    1  0.4710515E-007  0.2000273E+02  0.7818608E-02  0.1745274E+00
         -4   -1    0    0    0  501 -0.00000000000E+00  0.00000000000E+00  0.62809054065E+01  0.64394233224E+01  0.14200000000E+01 0.  1.
          4   -1    0    0  501    0  0.00000000000E+00 -0.00000000000E+00 -0.15535851411E+02  0.15600611497E+02  0.14200000000E+01 0. -1.
       1023    2    1    2    0    0  0.00000000000E+00  0.00000000000E+00 -0.92549460048E+01  0.22040034819E+02  0.20002727546E+02 0.  0.
        -13    1    3    3    0    0 -0.33628709100E+01  0.94182640351E+01 -0.45622248013E+01  0.10992618697E+02  0.10570000000E+00 0.  1.
         13    1    3    3    0    0  0.33628709100E+01 -0.94182640351E+01 -0.46927212035E+01  0.11047416122E+02  0.10570000000E+00 0. -1.
<mgrwt>
<rscale>  0 0.20002728E+02</rscale>
<asrwt>0</asrwt>
<pdfrwt beam="2">  1        4 0.24073062E-02 0.20002728E+02</pdfrwt>
<pdfrwt beam="1">  1       -4 0.98346838E-03 0.20002728E+02</pdfrwt>
<totfact> 0.12890315E+06</totfact>
</mgrwt>
</event>
<event>
 4    1  0.4710515E-007  0.2001391E+02  0.7818608E-02  0.1745052E+00
         -4   -1    0    0    0  501 -0.00000000000E+00  0.00000000000E+00  0.22327239634E+02  0.22372349668E+02  0.14200000000E+01 0.  1.
          4   -1    0    0  501    0  0.00000000000E+00 -0.00000000000E+00 -0.43216586201E+01  0.45489705680E+01  0.14200000000E+01 0. -1.
        -13    1    1    2    0    0  0.97187803937E+01 -0.23808220679E+01  0.90974799627E+01  0.13523990544E+02  0.10570000000E+00 0.  1.
         13    1    1    2    0    0 -0.97187803937E+01  0.23808220679E+01  0.89081010510E+01  0.13397329692E+02  0.10570000000E+00 0. -1.
<mgrwt>
<rscale>  0 0.20013909E+02</rscale>
<asrwt>0</asrwt>
<pdfrwt beam="2">  1        4 0.68582610E-03 0.20013909E+02</pdfrwt>
<pdfrwt beam="1">  1       -4 0.34559155E-02 0.20013909E+02</pdfrwt>
<totfact> 0.12601931E+06</totfact>
</mgrwt>
</event>
<event>
 5    1  0.4710515E-007  0.2000515E+02  0.7818608E-02  0.1745226E+00
          4   -1    0    0  501    0  0.00000000000E+00  0.00000000000E+00  0.77860372415E+02  0.77873320159E+02  0.14200000000E+01 0.  1.
         -4   -1    0    0    0  501 -0.00000000000E+00 -0.00000000000E+00 -0.87559636370E+00  0.16682532758E+01  0.14200000000E+01 0. -1.
       1023    2    1    2    0    0  0.00000000000E+00  0.00000000000E+00  0.76984776051E+02  0.79541573434E+02  0.20005153357E+02 0.  0.
        -13    1    3    3    0    0 -0.31626406550E+01 -0.94884259347E+01  0.38844557039E+02  0.40111635552E+02  0.10570000000E+00 0.  1.
         13    1    3    3    0    0  0.31626406550E+01  0.94884259347E+01  0.38140219012E+02  0.39429937882E+02  0.10570000000E+00 0. -1.
<mgrwt>
<rscale>  0 0.20005153E+02</rscale>
<asrwt>0</asrwt>
<pdfrwt beam="1">  1        4 0.12040490E-01 0.20005153E+02</pdfrwt>
<pdfrwt beam="2">  1       -4 0.19667670E-03 0.20005153E+02</pdfrwt>
<totfact> 0.10420792E+06</totfact>
</mgrwt>
</event>
<event>
 5    1  0.4710515E-007  0.2000475E+02  0.7818608E-02  0.1745234E+00
         -4   -1    0    0    0  501 -0.00000000000E+00  0.00000000000E+00  0.28021734913E+02  0.28057691059E+02  0.14200000000E+01 0.  1.
          4   -1    0    0  501    0  0.00000000000E+00 -0.00000000000E+00 -0.33892924262E+01  0.36747385145E+01  0.14200000000E+01 0. -1.
       1023    2    1    2    0    0  0.00000000000E+00  0.00000000000E+00  0.24632442487E+02  0.31732429573E+02  0.20004746030E+02 0.  0.
        -13    1    3    3    0    0  0.93778497648E+01  0.34766851349E+01  0.12205323456E+02  0.15780129876E+02  0.10570000000E+00 0. -1.
         13    1    3    3    0    0 -0.93778497648E+01 -0.34766851349E+01  0.12427119031E+02  0.15952299697E+02  0.10570000000E+00 0.  1.
<mgrwt>
<rscale>  0 0.20004746E+02</rscale>
<asrwt>0</asrwt>
<pdfrwt beam="2">  1        4 0.54615284E-03 0.20004746E+02</pdfrwt>
<pdfrwt beam="1">  1       -4 0.43357595E-02 0.20004746E+02</pdfrwt>
<totfact> 0.12360195E+06</totfact>
</mgrwt>
</event>
<event>
 5    1  0.4710515E-007  0.2000369E+02  0.7818608E-02  0.1745255E+00
         -4   -1    0    0    0  501 -0.00000000000E+00  0.00000000000E+00  0.18013708165E+02  0.18069589974E+02  0.14200000000E+01 0.  1.
          4   -1    0    0  501    0  0.00000000000E+00 -0.00000000000E+00 -0.53969070309E+01  0.55805918593E+01  0.14200000000E+01 0. -1.
       1023    2    1    2    0    0  0.00000000000E+00  0.00000000000E+00  0.12616801134E+02  0.23650181834E+02  0.20003685408E+02 0.  0.
        -13    1    3    3    0    0 -0.42031250485E+01 -0.90742826527E+01  0.64617303613E+01  0.11906888661E+02  0.10570000000E+00 0.  1.
         13    1    3    3    0    0  0.42031250485E+01  0.90742826527E+01  0.61550707725E+01  0.11743293173E+02  0.10570000000E+00 0. -1.
<mgrwt>
<rscale>  0 0.20003685E+02</rscale>
<asrwt>0</asrwt>
<pdfrwt beam="2">  1        4 0.84872159E-03 0.20003685E+02</pdfrwt>
<pdfrwt beam="1">  1       -4 0.27897679E-02 0.20003685E+02</pdfrwt>
<totfact> 0.12796737E+06</totfact>
</mgrwt>
</event>
<event>
 4    1  0.4710515E-007  0.2001388E+02  0.7818608E-02  0.1745052E+00
         -4   -1    0    0    0  501 -0.00000000000E+00  0.00000000000E+00  0.29248134265E+01  0.32512972149E+01  0.14200000000E+01 0.  1.
          4   -1    0    0  501    0  0.00000000000E+00 -0.00000000000E+00 -0.32084774556E+02  0.32116182188E+02  0.14200000000E+01 0. -1.
        -13    1    1    2    0    0  0.99963251313E+01  0.38353383274E+00 -0.14169219476E+02  0.17345073288E+02  0.10570000000E+00 0.  1.
         13    1    1    2    0    0 -0.99963251313E+01 -0.38353383274E+00 -0.14990741654E+02  0.18022406114E+02  0.10570000000E+00 0. -1.
<mgrwt>
<rscale>  0 0.20013877E+02</rscale>
<asrwt>0</asrwt>
<pdfrwt beam="2">  1        4 0.49636490E-02 0.20013877E+02</pdfrwt>
<pdfrwt beam="1">  1       -4 0.47750143E-03 0.20013877E+02</pdfrwt>
<totfact> 0.12166799E+06</totfact>
</mgrwt>
</event>
<event>
 5    1  0.4710515E-007  0.2000596E+02  0.7818608E-02  0.1745210E+00
          4   -1    0    0  501    0  0.00000000000E+00  0.00000000000E+00  0.43460690635E+00  0.14850195834E+01  0.14200000000E+01 0. -1.
         -4   -1    0    0    0  501 -0.00000000000E+00 -0.00000000000E+00 -0.10319107078E+03  0.10320084055E+03  0.14200000000E+01 0.  1.
       1023    2    1    2    0    0  0.00000000000E+00  0.00000000000E+00 -0.10275646388E+03  0.10468586013E+03  0.20005960175E+02 0.  0.
        -13    1    3    3    0    0 -0.71786297013E+00  0.99756365236E+01 -0.50642165615E+02  0.51620429695E+02  0.10570000000E+00 0. -1.
         13    1    3    3    0    0  0.71786297013E+00 -0.99756365236E+01 -0.52114298262E+02  0.53065430433E+02  0.10570000000E+00 0.  1.
<mgrwt>
<rscale>  0 0.20005960E+02</rscale>
<asrwt>0</asrwt>
<pdfrwt beam="1">  1        4 0.14841518E-03 0.20005960E+02</pdfrwt>
<pdfrwt beam="2">  1       -4 0.15957093E-01 0.20005960E+02</pdfrwt>
<totfact> 0.96640791E+05</totfact>
</mgrwt>
</event>
<event>
 4    1  0.4710515E-007  0.2006567E+02  0.7818608E-02  0.1744025E+00
          4   -1    0    0  501    0  0.00000000000E+00  0.00000000000E+00  0.22188032187E+02  0.22233424665E+02  0.14200000000E+01 0. -1.
         -4   -1    0    0    0  501 -0.00000000000E+00 -0.00000000000E+00 -0.43740771847E+01  0.45987988886E+01  0.14200000000E+01 0.  1.
        -13    1    1    2    0    0  0.52088708716E+01  0.85726483441E+01  0.86998200245E+01  0.13278579605E+02  0.10570000000E+00 0.  1.
         13    1    1    2    0    0 -0.52088708716E+01 -0.85726483441E+01  0.91141349778E+01  0.13553643948E+02  0.10570000000E+00 0. -1.
<mgrwt>
<rscale>  0 0.20065673E+02</rscale>
<asrwt>0</asrwt>
<pdfrwt beam="1">  1        4 0.34343214E-02 0.20065673E+02</pdfrwt>
<pdfrwt beam="2">  1       -4 0.69371297E-03 0.20065673E+02</pdfrwt>
<totfact> 0.12540649E+06</totfact>
</mgrwt>
</event>
<event>
 5    1  0.4710515E-007  0.2000284E+02  0.7818608E-02  0.1745272E+00
         -4   -1    0    0    0  501 -0.00000000000E+00  0.00000000000E+00  0.63027808688E+02  0.63043802772E+02  0.14200000000E+01 0.  1.
          4   -1    0    0  501    0  0.00000000000E+00 -0.00000000000E+00 -0.12498995594E+01  0.18917317222E+01  0.14200000000E+01 0. -1.
       1023    2    1    2    0    0  0.00000000000E+00  0.00000000000E+00  0.61777909128E+02  0.64935534494E+02  0.20002839393E+02 0.  0.
        -13    1    3    3    0    0  0.99636031579E+01 -0.85414649468E+00  0.31276741063E+02  0.32836696821E+02  0.10570000000E+00 0. -1.
         13    1    3    3    0    0 -0.99636031579E+01  0.85414649468E+00  0.30501168065E+02  0.32098837673E+02  0.10570000000E+00 0.  1.
<mgrwt>
<rscale>  0 0.20002839E+02</rscale>
<asrwt>0</asrwt>
<pdfrwt beam="2">  1        4 0.24289427E-03 0.20002839E+02</pdfrwt>
<pdfrwt beam="1">  1       -4 0.97471873E-02 0.20002839E+02</pdfrwt>
<totfact> 0.10930220E+06</totfact>
</mgrwt>
</event>
<event>
 5    1  0.4710515E-007  0.2000725E+02  0.7818608E-02  0.1745184E+00
          4   -1    0    0  501    0  0.00000000000E+00  0.00000000000E+00  0.20172685595E+02  0.20222602309E+02  0.14200000000E+01 0. -1.
         -4   -1    0    0    0  501 -0.00000000000E+00 -0.00000000000E+00 -0.48018389251E+01  0.50074002300E+01  0.14200000000E+01 0.  1.
       1023    2    1    2    0    0  0.00000000000E+00  0.00000000000E+00  0.15370846670E+02  0.25230002538E+02  0.20007251204E+02 0.  0.
        -13    1    3    3    0    0  0.87377674218E+01  0.48662806223E+01  0.79113087535E+01  0.12752617194E+02  0.10570000000E+00 0. -1.
         13    1    3    3    0    0 -0.87377674218E+01 -0.48662806223E+01  0.74595379168E+01  0.12477385344E+02  0.10570000000E+00 0.  1.
<mgrwt>
<rscale>  0 0.20007251E+02</rscale>
<asrwt>0</asrwt>
<pdfrwt beam="1">  1        4 0.31231422E-02 0.20007251E+02</pdfrwt>
<pdfrwt beam="2">  1       -4 0.75839662E-03 0.20007251E+02</pdfrwt>
<totfact> 0.12703399E+06</totfact>
</mgrwt>
</event>
<event>
 5    1  0.4764272E-007  0.2000214E+02  0.7818608E-02  0.1745286E+00
          4   -1    0    0  501    0  0.00000000000E+00  0.00000000000E+00  0.15876034434E+02  0.15939412453E+02  0.14200000000E+01 0. -1.
         -4   -1    0    0    0  501 -0.00000000000E+00 -0.00000000000E+00 -0.61430656287E+01  0.63050499854E+01  0.14200000000E+01 0.  1.
       1023    2    1    2    0    0  0.00000000000E+00  0.00000000000E+00  0.97329688056E+01  0.22244462439E+02  0.20002135571E+02 0.  0.
        -13    1    3    3    0    0  0.14174033839E+01 -0.98993707613E+01  0.49333083046E+01  0.11151469730E+02  0.10570000000E+00 0.  1.
         13    1    3    3    0    0 -0.14174033839E+01  0.98993707613E+01  0.47996605010E+01  0.11092992709E+02  0.10570000000E+00 0. -1.
<mgrwt>
<rscale>  0 0.20002136E+02</rscale>
<asrwt>0</asrwt>
<pdfrwt beam="1">  1        4 0.24598024E-02 0.20002136E+02</pdfrwt>
<pdfrwt beam="2">  1       -4 0.96242261E-03 0.20002136E+02</pdfrwt>
<totfact> 0.12879255E+06</totfact>
</mgrwt>
</event>
<event>
 5    1  0.4710515E-007  0.2000397E+02  0.7818608E-02  0.1745249E+00
         -4   -1    0    0    0  501 -0.00000000000E+00  0.00000000000E+00  0.36885059765E+01  0.39524013382E+01  0.14200000000E+01 0. -1.
          4   -1    0    0  501    0  0.00000000000E+00 -0.00000000000E+00 -0.25901278651E+02  0.25940174166E+02  0.14200000000E+01 0.  1.
       1023    2    1    2    0    0  0.00000000000E+00  0.00000000000E+00 -0.22212772675E+02  0.29892575505E+02  0.20003969616E+02 0.  0.
        -13    1    3    3    0    0  0.95256127877E+01 -0.30480955794E+01 -0.11078752716E+02  0.14925753578E+02  0.10570000000E+00 0.  1.
         13    1    3    3    0    0 -0.95256127877E+01  0.30480955794E+01 -0.11134019959E+02  0.14966821927E+02  0.10570000000E+00 0. -1.
<mgrwt>
<rscale>  0 0.20003970E+02</rscale>
<asrwt>0</asrwt>
<pdfrwt beam="2">  1        4 0.40081036E-02 0.20003970E+02</pdfrwt>
<pdfrwt beam="1">  1       -4 0.59075408E-03 0.20003970E+02</pdfrwt>
<totfact> 0.12456330E+06</totfact>
</mgrwt>
</event>
<event>
 5    1  0.4826372E-007  0.2000138E+02  0.7818608E-02  0.1745301E+00
         -4   -1    0    0    0  501 -0.00000000000E+00  0.00000000000E+00  0.43583991095E+02  0.43607117307E+02  0.14200000000E+01 0.  1.
          4   -1    0    0  501    0  0.00000000000E+00 -0.00000000000E+00 -0.20489638695E+01  0.24929205640E+01  0.14200000000E+01 0. -1.
       1023    2    1    2    0    0  0.00000000000E+00  0.00000000000E+00  0.41535027226E+02  0.46100037871E+02  0.20001375078E+02 0.  0.
        -13    1    3    3    0    0 -0.53118327908E+01 -0.84727208675E+01  0.20759439678E+02  0.23042744514E+02  0.10570000000E+00 0.  1.
         13    1    3    3    0    0  0.53118327908E+01  0.84727208675E+01  0.20775587548E+02  0.23057293357E+02  0.10570000000E+00 0. -1.
<mgrwt>
<rscale>  0 0.20001375E+02</rscale>
<asrwt>0</asrwt>
<pdfrwt beam="2">  1        4 0.35115471E-03 0.20001375E+02</pdfrwt>
<pdfrwt beam="1">  1       -4 0.67411579E-02 0.20001375E+02</pdfrwt>
<totfact> 0.11685817E+06</totfact>
</mgrwt>
</event>
<event>
 5    1  0.4710515E-007  0.2000244E+02  0.7818608E-02  0.1745280E+00
         -4   -1    0    0    0  501 -0.00000000000E+00  0.00000000000E+00  0.60923460699E+02  0.60940007085E+02  0.14200000000E+01 0.  1.
          4   -1    0    0  501    0  0.00000000000E+00 -0.00000000000E+00 -0.13147760559E+01  0.19352095693E+01  0.14200000000E+01 0. -1.
       1023    2    1    2    0    0  0.00000000000E+00  0.00000000000E+00  0.59608684643E+02  0.62875216654E+02  0.20002439463E+02 0.  0.
        -13    1    3    3    0    0  0.17332647553E+00 -0.99991590351E+01  0.29803121190E+02  0.31436450637E+02  0.10570000000E+00 0.  1.
         13    1    3    3    0    0 -0.17332647553E+00  0.99991590351E+01  0.29805563452E+02  0.31438766017E+02  0.10570000000E+00 0. -1.
<mgrwt>
<rscale>  0 0.20002439E+02</rscale>
<asrwt>0</asrwt>
<pdfrwt beam="2">  1        4 0.25127172E-03 0.20002439E+02</pdfrwt>
<pdfrwt beam="1">  1       -4 0.94218374E-02 0.20002439E+02</pdfrwt>
<totfact> 0.11007130E+06</totfact>
</mgrwt>
</event>
<event>
 4    1  0.4710515E-007  0.2004350E+02  0.7818608E-02  0.1744464E+00
         -4   -1    0    0    0  501 -0.00000000000E+00  0.00000000000E+00  0.17008667365E+02  0.17067840096E+02  0.14200000000E+01 0.  1.
          4   -1    0    0  501    0  0.00000000000E+00 -0.00000000000E+00 -0.57489973673E+01  0.59217709115E+01  0.14200000000E+01 0. -1.
        -13    1    1    2    0    0  0.89931109204E+01 -0.44170825943E+01  0.54072007092E+01  0.11385765441E+02  0.10570000000E+00 0.  1.
         13    1    1    2    0    0 -0.89931109204E+01  0.44170825943E+01  0.58524692887E+01  0.11603845567E+02  0.10570000000E+00 0. -1.
<mgrwt>
<rscale>  0 0.20043504E+02</rscale>
<asrwt>0</asrwt>
<pdfrwt beam="2">  1        4 0.90230314E-03 0.20043504E+02</pdfrwt>
<pdfrwt beam="1">  1       -4 0.26345601E-02 0.20043504E+02</pdfrwt>
<totfact> 0.12782415E+06</totfact>
</mgrwt>
</event>
<event>
 4    1  0.4710515E-007  0.2024760E+02  0.7818608E-02  0.1740449E+00
         -4   -1    0    0    0  501 -0.00000000000E+00  0.00000000000E+00  0.16868942434E+02  0.16928603570E+02  0.14200000000E+01 0. -1.
          4   -1    0    0  501    0  0.00000000000E+00 -0.00000000000E+00 -0.59212606949E+01  0.60891483983E+01  0.14200000000E+01 0.  1.
        -13    1    1    2    0    0  0.91696904779E+01 -0.42793580019E+01  0.51443771462E+01  0.11352176755E+02  0.10570000000E+00 0. -1.
         13    1    1    2    0    0 -0.91696904779E+01  0.42793580019E+01  0.58033045927E+01  0.11665575213E+02  0.10570000000E+00 0.  1.
<mgrwt>
<rscale>  0 0.20247597E+02</rscale>
<asrwt>0</asrwt>
<pdfrwt beam="2">  1        4 0.92846694E-03 0.20247597E+02</pdfrwt>
<pdfrwt beam="1">  1       -4 0.26127257E-02 0.20247597E+02</pdfrwt>
<totfact> 0.12519010E+06</totfact>
</mgrwt>
</event>
<event>
 4    1  0.4710515E-007  0.2006440E+02  0.7818608E-02  0.1744050E+00
          4   -1    0    0  501    0  0.00000000000E+00  0.00000000000E+00  0.27035320928E+02  0.27072587200E+02  0.14200000000E+01 0. -1.
         -4   -1    0    0    0  501 -0.00000000000E+00 -0.00000000000E+00 -0.35459208918E+01  0.38196799566E+01  0.14200000000E+01 0.  1.
        -13    1    1    2    0    0 -0.98519972215E+01  0.18557921153E+01  0.12295711454E+02  0.15865103412E+02  0.10570000000E+00 0.  1.
         13    1    1    2    0    0  0.98519972215E+01 -0.18557921153E+01  0.11193688582E+02  0.15027163744E+02  0.10570000000E+00 0. -1.
<mgrwt>
<rscale>  0 0.20064403E+02</rscale>
<asrwt>0</asrwt>
<pdfrwt beam="1">  1        4 0.41832051E-02 0.20064403E+02</pdfrwt>
<pdfrwt beam="2">  1       -4 0.56945132E-03 0.20064403E+02</pdfrwt>
<totfact> 0.12328590E+06</totfact>
</mgrwt>
</event>
<event>
 5    1  0.4710515E-007  0.2000416E+02  0.7818608E-02  0.1745245E+00
         -4   -1    0    0    0  501 -0.00000000000E+00  0.00000000000E+00  0.26453533894E+02  0.26491618589E+02  0.14200000000E+01 0.  1.
          4   -1    0    0  501    0  0.00000000000E+00 -0.00000000000E+00 -0.36061317658E+01  0.38756401164E+01  0.14200000000E+01 0. -1.
       1023    2    1    2    0    0  0.00000000000E+00  0.00000000000E+00  0.22847402128E+02  0.30367258705E+02  0.20004164998E+02 0.  0.
        -13    1    3    3    0    0  0.17647927944E+01 -0.98445882217E+01  0.11410912586E+02  0.15174007691E+02  0.10570000000E+00 0. -1.
         13    1    3    3    0    0 -0.17647927944E+01  0.98445882217E+01  0.11436489541E+02  0.15193251014E+02  0.10570000000E+00 0.  1.
<mgrwt>
<rscale>  0 0.20004165E+02</rscale>
<asrwt>0</asrwt>
<pdfrwt beam="2">  1        4 0.57845053E-03 0.20004165E+02</pdfrwt>
<pdfrwt beam="1">  1       -4 0.40934352E-02 0.20004165E+02</pdfrwt>
<totfact> 0.12431342E+06</totfact>
</mgrwt>
</event>
<event>
 5    1  0.4710515E-007  0.2000430E+02  0.7818608E-02  0.1745243E+00
         -4   -1    0    0    0  501 -0.00000000000E+00  0.00000000000E+00  0.27127409877E+01  0.30619215644E+01  0.14200000000E+01 0. -1.
          4   -1    0    0  501    0  0.00000000000E+00 -0.00000000000E+00 -0.34284198584E+02  0.34313593116E+02  0.14200000000E+01 0.  1.
       1023    2    1    2    0    0  0.00000000000E+00  0.00000000000E+00 -0.31571457596E+02  0.37375514680E+02  0.20004303609E+02 0.  0.
        -13    1    3    3    0    0 -0.96385700346E+01  0.26674121784E+01 -0.16012628080E+02  0.18879421351E+02  0.10570000000E+00 0. -1.
         13    1    3    3    0    0  0.96385700346E+01 -0.26674121784E+01 -0.15558829516E+02  0.18496093329E+02  0.10570000000E+00 0.  1.
<mgrwt>
<rscale>  0 0.20004304E+02</rscale>
<asrwt>0</asrwt>
<pdfrwt beam="2">  1        4 0.53036130E-02 0.20004304E+02</pdfrwt>
<pdfrwt beam="1">  1       -4 0.44646595E-03 0.20004304E+02</pdfrwt>
<totfact> 0.12081293E+06</totfact>
</mgrwt>
</event>
<event>
 5    1  0.4710515E-007  0.2000368E+02  0.7818608E-02  0.1745255E+00
          4   -1    0    0  501    0  0.00000000000E+00  0.00000000000E+00  0.19286170543E+01  0.23949872112E+01  0.14200000000E+01 0. -1.
         -4   -1    0    0    0  501 -0.00000000000E+00 -0.00000000000E+00 -0.45796151765E+02  0.45818161426E+02  0.14200000000E+01 0.  1.
       1023    2    1    2    0    0  0.00000000000E+00  0.00000000000E+00 -0.43867534710E+02  0.48213148637E+02  0.20003677160E+02 0.  0.
        -13    1    3    3    0    0  0.39241484297E+01 -0.91987887572E+01 -0.22161746085E+02  0.24314004555E+02  0.10570000000E+00 0. -1.
         13    1    3    3    0    0 -0.39241484297E+01  0.91987887572E+01 -0.21705788625E+02  0.23899144082E+02  0.10570000000E+00 0.  1.
<mgrwt>
<rscale>  0 0.20003677E+02</rscale>
<asrwt>0</asrwt>
<pdfrwt beam="1">  1        4 0.33427803E-03 0.20003677E+02</pdfrwt>
<pdfrwt beam="2">  1       -4 0.70831288E-02 0.20003677E+02</pdfrwt>
<totfact> 0.11591725E+06</totfact>
</mgrwt>
</event>
<event>
 5    1  0.4710515E-007  0.2000304E+02  0.7818608E-02  0.1745268E+00
         -4   -1    0    0    0  501 -0.00000000000E+00  0.00000000000E+00  0.58059366813E+02  0.58076729202E+02  0.14200000000E+01 0. -1.
          4   -1    0    0  501    0  0.00000000000E+00 -0.00000000000E+00 -0.14096155622E+01  0.20008538261E+01  0.14200000000E+01 0.  1.
       1023    2    1    2    0    0  0.00000000000E+00  0.00000000000E+00  0.56649751251E+02  0.60077583028E+02  0.20003041410E+02 0.  0.
        -13    1    3    3    0    0 -0.37322006748E+01 -0.92781115348E+01  0.28568289827E+02  0.30268317292E+02  0.10570000000E+00 0. -1.
         13    1    3    3    0    0  0.37322006748E+01  0.92781115348E+01  0.28081461424E+02  0.29809265736E+02  0.10570000000E+00 0.  1.
<mgrwt>
<rscale>  0 0.20003041E+02</rscale>
<asrwt>0</asrwt>
<pdfrwt beam="2">  1        4 0.26367938E-03 0.20003041E+02</pdfrwt>
<pdfrwt beam="1">  1       -4 0.89790252E-02 0.20003041E+02</pdfrwt>
<totfact> 0.11112477E+06</totfact>
</mgrwt>
</event>
<event>
 5    1  0.4710515E-007  0.2001159E+02  0.7818608E-02  0.1745098E+00
         -4   -1    0    0    0  501 -0.00000000000E+00  0.00000000000E+00  0.12012574188E+02  0.12096211747E+02  0.14200000000E+01 0. -1.
          4   -1    0    0  501    0  0.00000000000E+00 -0.00000000000E+00 -0.81601850544E+01  0.82828147463E+01  0.14200000000E+01 0.  1.
       1023    2    1    2    0    0  0.00000000000E+00  0.00000000000E+00  0.38523891338E+01  0.20379026493E+02  0.20011592110E+02 0.  0.
        -13    1    3    3    0    0  0.16793087747E+01 -0.98593706970E+01  0.22097193526E+01  0.10243109909E+02  0.10570000000E+00 0. -1.
         13    1    3    3    0    0 -0.16793087747E+01  0.98593706970E+01  0.16426697812E+01  0.10135916584E+02  0.10570000000E+00 0.  1.
<mgrwt>
<rscale>  0 0.20011592E+02</rscale>
<asrwt>0</asrwt>
<pdfrwt beam="2">  1        4 0.12712798E-02 0.20011592E+02</pdfrwt>
<pdfrwt beam="1">  1       -4 0.18639551E-02 0.20011592E+02</pdfrwt>
<totfact> 0.12976137E+06</totfact>
</mgrwt>
</event>
<event>
 5    1  0.4710515E-007  0.2000277E+02  0.7818608E-02  0.1745273E+00
         -4   -1    0    0    0  501 -0.00000000000E+00  0.00000000000E+00  0.33203847032E+01  0.36112815699E+01  0.14200000000E+01 0.  1.
          4   -1    0    0  501    0  0.00000000000E+00 -0.00000000000E+00 -0.28551816471E+02  0.28587105901E+02  0.14200000000E+01 0. -1.
       1023    2    1    2    0    0  0.00000000000E+00  0.00000000000E+00 -0.25231431768E+02  0.32198387471E+02  0.20002774974E+02 0.  0.
        -13    1    3    3    0    0 -0.76748921730E+01 -0.64114402724E+01 -0.12490583966E+02  0.16001137351E+02  0.10570000000E+00 0. -1.
         13    1    3    3    0    0  0.76748921730E+01  0.64114402724E+01 -0.12740847801E+02  0.16197250119E+02  0.10570000000E+00 0.  1.
<mgrwt>
<rscale>  0 0.20002775E+02</rscale>
<asrwt>0</asrwt>
<pdfrwt beam="2">  1        4 0.44176782E-02 0.20002775E+02</pdfrwt>
<pdfrwt beam="1">  1       -4 0.53591969E-03 0.20002775E+02</pdfrwt>
<totfact> 0.12338868E+06</totfact>
</mgrwt>
</event>
<event>
 4    1  0.4710515E-007  0.2089248E+02  0.7818608E-02  0.1728141E+00
          4   -1    0    0  501    0  0.00000000000E+00  0.00000000000E+00  0.29507279907E+02  0.29541427987E+02  0.14200000000E+01 0. -1.
         -4   -1    0    0    0  501 -0.00000000000E+00 -0.00000000000E+00 -0.35241729537E+01  0.37994993101E+01  0.14200000000E+01 0.  1.
        -13    1    1    2    0    0  0.10184763134E+02  0.21220385827E+01  0.11494293469E+02  0.15503625469E+02  0.10570000000E+00 0.  1.
         13    1    1    2    0    0 -0.10184763134E+02 -0.21220385827E+01  0.14488813485E+02  0.17837301828E+02  0.10570000000E+00 0. -1.
<mgrwt>
<rscale>  0 0.20892477E+02</rscale>
<asrwt>0</asrwt>
<pdfrwt beam="1">  1        4 0.45633873E-02 0.20892477E+02</pdfrwt>
<pdfrwt beam="2">  1       -4 0.56598617E-03 0.20892477E+02</pdfrwt>
<totfact> 0.11233453E+06</totfact>
</mgrwt>
</event>
<event>
 5    1  0.4758696E-007  0.2000249E+02  0.7818608E-02  0.1745278E+00
         -4   -1    0    0    0  501 -0.00000000000E+00  0.00000000000E+00  0.10284464919E+02  0.10382033455E+02  0.14200000000E+01 0.  1.
          4   -1    0    0  501    0  0.00000000000E+00 -0.00000000000E+00 -0.95294860567E+01  0.96347031353E+01  0.14200000000E+01 0. -1.
       1023    2    1    2    0    0  0.00000000000E+00  0.00000000000E+00  0.75497886206E+00  0.20016736591E+02  0.20002493611E+02 0.  0.
        -13    1    3    3    0    0 -0.10048887749E+01  0.99500428431E+01  0.35275050093E+00  0.10007435208E+02  0.10570000000E+00 0. -1.
         13    1    3    3    0    0  0.10048887749E+01 -0.99500428431E+01  0.40222836113E+00  0.10009301383E+02  0.10570000000E+00 0.  1.
<mgrwt>
<rscale>  0 0.20002494E+02</rscale>
<asrwt>0</asrwt>
<pdfrwt beam="2">  1        4 0.14816737E-02 0.20002494E+02</pdfrwt>
<pdfrwt beam="1">  1       -4 0.15978243E-02 0.20002494E+02</pdfrwt>
<totfact> 0.13009739E+06</totfact>
</mgrwt>
</event>
<event>
 5    1  0.4710515E-007  0.2000540E+02  0.7818608E-02  0.1745221E+00
          4   -1    0    0  501    0  0.00000000000E+00  0.00000000000E+00  0.17859036020E+02  0.17915400290E+02  0.14200000000E+01 0. -1.
         -4   -1    0    0    0  501 -0.00000000000E+00 -0.00000000000E+00 -0.54460573891E+01  0.56281383321E+01  0.14200000000E+01 0.  1.
       1023    2    1    2    0    0  0.00000000000E+00  0.00000000000E+00  0.12412978631E+02  0.23543538622E+02  0.20005403579E+02 0.  0.
        -13    1    3    3    0    0 -0.81433527990E+01  0.58067353451E+01  0.63270839155E+01  0.11835351010E+02  0.10570000000E+00 0. -1.
         13    1    3    3    0    0  0.81433527990E+01 -0.58067353451E+01  0.60858947151E+01  0.11708187612E+02  0.10570000000E+00 0.  1.
<mgrwt>
<rscale>  0 0.20005404E+02</rscale>
<asrwt>0</asrwt>
<pdfrwt beam="1">  1        4 0.27658859E-02 0.20005404E+02</pdfrwt>
<pdfrwt beam="2">  1       -4 0.85619693E-03 0.20005404E+02</pdfrwt>
<totfact> 0.12800544E+06</totfact>
</mgrwt>
</event>
<event>
 5    1  0.4710515E-007  0.2000299E+02  0.7818608E-02  0.1745269E+00
          4   -1    0    0  501    0  0.00000000000E+00  0.00000000000E+00  0.80109091871E+02  0.80121676220E+02  0.14200000000E+01 0.  1.
         -4   -1    0    0    0  501 -0.00000000000E+00 -0.00000000000E+00 -0.82809401490E+00  0.16438186328E+01  0.14200000000E+01 0. -1.
       1023    2    1    2    0    0  0.00000000000E+00  0.00000000000E+00  0.79280997856E+02  0.81765494853E+02  0.20002987966E+02 0.  0.
        -13    1    3    3    0    0  0.25807620771E+01  0.96622112271E+01  0.39669605421E+02  0.40910969500E+02  0.10570000000E+00 0.  1.
         13    1    3    3    0    0 -0.25807620771E+01 -0.96622112271E+01  0.39611392435E+02  0.40854525353E+02  0.10570000000E+00 0. -1.
<mgrwt>
<rscale>  0 0.20002988E+02</rscale>
<asrwt>0</asrwt>
<pdfrwt beam="1">  1        4 0.12388195E-01 0.20002988E+02</pdfrwt>
<pdfrwt beam="2">  1       -4 0.19111510E-03 0.20002988E+02</pdfrwt>
<totfact> 0.10350733E+06</totfact>
</mgrwt>
</event>
<event>
 4    1  0.4710515E-007  0.2007433E+02  0.7818608E-02  0.1743854E+00
          4   -1    0    0  501    0  0.00000000000E+00  0.00000000000E+00  0.55555296387E+01  0.57341354681E+01  0.14200000000E+01 0. -1.
         -4   -1    0    0    0  501 -0.00000000000E+00 -0.00000000000E+00 -0.17639660049E+02  0.17696723048E+02  0.14200000000E+01 0.  1.
        -13    1    1    2    0    0  0.75663574616E+01 -0.65830376000E+01 -0.64902003655E+01  0.11946548562E+02  0.10570000000E+00 0.  1.
         13    1    1    2    0    0 -0.75663574616E+01  0.65830376000E+01 -0.55939300445E+01  0.11484309954E+02  0.10570000000E+00 0. -1.
<mgrwt>
<rscale>  0 0.20074335E+02</rscale>
<asrwt>0</asrwt>
<pdfrwt beam="1">  1        4 0.87282525E-03 0.20074335E+02</pdfrwt>
<pdfrwt beam="2">  1       -4 0.27319222E-02 0.20074335E+02</pdfrwt>
<totfact> 0.12717433E+06</totfact>
</mgrwt>
</event>
<event>
 5    1  0.4710515E-007  0.2000253E+02  0.7818608E-02  0.1745278E+00
          4   -1    0    0  501    0  0.00000000000E+00  0.00000000000E+00  0.12450857081E+01  0.18885545850E+01  0.14200000000E+01 0.  1.
         -4   -1    0    0    0  501 -0.00000000000E+00 -0.00000000000E+00 -0.63186585903E+02  0.63202539807E+02  0.14200000000E+01 0. -1.
       1023    2    1    2    0    0  0.00000000000E+00  0.00000000000E+00 -0.61941500195E+02  0.65091094392E+02  0.20002527909E+02 0.  0.
        -13    1    3    3    0    0  0.95663723097E+01  0.29147136266E+01 -0.31151157336E+02  0.32717224983E+02  0.10570000000E+00 0. -1.
         13    1    3    3    0    0 -0.95663723097E+01 -0.29147136266E+01 -0.30790342858E+02  0.32373869409E+02  0.10570000000E+00 0.  1.
<mgrwt>
<rscale>  0 0.20002528E+02</rscale>
<asrwt>0</asrwt>
<pdfrwt beam="1">  1        4 0.24227653E-03 0.20002528E+02</pdfrwt>
<pdfrwt beam="2">  1       -4 0.97717361E-02 0.20002528E+02</pdfrwt>
<totfact> 0.10924843E+06</totfact>
</mgrwt>
</event>
<event>
 5    1  0.4710515E-007  0.2000298E+02  0.7818608E-02  0.1745269E+00
          4   -1    0    0  501    0  0.00000000000E+00  0.00000000000E+00  0.54261850412E+01  0.56089111334E+01  0.14200000000E+01 0.  1.
         -4   -1    0    0    0  501 -0.00000000000E+00 -0.00000000000E+00 -0.17918112708E+02  0.17974291725E+02  0.14200000000E+01 0. -1.
       1023    2    1    2    0    0  0.00000000000E+00  0.00000000000E+00 -0.12491927667E+02  0.23583202858E+02  0.20002979784E+02 0.  0.
        -13    1    3    3    0    0 -0.69707343445E+01 -0.71709201981E+01 -0.61593764592E+01  0.11745736445E+02  0.10570000000E+00 0.  1.
         13    1    3    3    0    0  0.69707343445E+01  0.71709201981E+01 -0.63325512076E+01  0.11837466413E+02  0.10570000000E+00 0. -1.
<mgrwt>
<rscale>  0 0.20002980E+02</rscale>
<asrwt>0</asrwt>
<pdfrwt beam="1">  1        4 0.85317502E-03 0.20002980E+02</pdfrwt>
<pdfrwt beam="2">  1       -4 0.27750100E-02 0.20002980E+02</pdfrwt>
<totfact> 0.12801454E+06</totfact>
</mgrwt>
</event>
<event>
 5    1  0.4710515E-007  0.2000211E+02  0.7818608E-02  0.1745286E+00
          4   -1    0    0  501    0  0.00000000000E+00  0.00000000000E+00  0.85167536204E+02  0.85179373226E+02  0.14200000000E+01 0.  1.
         -4   -1    0    0    0  501 -0.00000000000E+00 -0.00000000000E+00 -0.72880436648E+00  0.15961064515E+01  0.14200000000E+01 0. -1.
       1023    2    1    2    0    0  0.00000000000E+00  0.00000000000E+00  0.84438731838E+02  0.86775479677E+02  0.20002110859E+02 0.  0.
        -13    1    3    3    0    0 -0.54092313179E+01 -0.84112570066E+01  0.42088543364E+02  0.43260440160E+02  0.10570000000E+00 0. -1.
         13    1    3    3    0    0  0.54092313179E+01  0.84112570066E+01  0.42350188474E+02  0.43515039517E+02  0.10570000000E+00 0.  1.
<mgrwt>
<rscale>  0 0.20002111E+02</rscale>
<asrwt>0</asrwt>
<pdfrwt beam="1">  1        4 0.13170327E-01 0.20002111E+02</pdfrwt>
<pdfrwt beam="2">  1       -4 0.17974980E-03 0.20002111E+02</pdfrwt>
<totfact> 0.10192886E+06</totfact>
</mgrwt>
</event>
<event>
 5    1  0.4710515E-007  0.2000426E+02  0.7818608E-02  0.1745243E+00
          4   -1    0    0  501    0  0.00000000000E+00  0.00000000000E+00  0.47618003174E+01  0.49690182393E+01  0.14200000000E+01 0. -1.
         -4   -1    0    0    0  501 -0.00000000000E+00 -0.00000000000E+00 -0.20329492406E+02  0.20379025038E+02  0.14200000000E+01 0.  1.
       1023    2    1    2    0    0  0.00000000000E+00  0.00000000000E+00 -0.15567692089E+02  0.25348043277E+02  0.20004256072E+02 0.  0.
        -13    1    3    3    0    0  0.49227180134E+01 -0.87049965621E+01 -0.75990228093E+01  0.12560511054E+02  0.10570000000E+00 0.  1.
         13    1    3    3    0    0 -0.49227180134E+01  0.87049965621E+01 -0.79686692793E+01  0.12787532223E+02  0.10570000000E+00 0. -1.
<mgrwt>
<rscale>  0 0.20004256E+02</rscale>
<asrwt>0</asrwt>
<pdfrwt beam="1">  1        4 0.75233471E-03 0.20004256E+02</pdfrwt>
<pdfrwt beam="2">  1       -4 0.31473642E-02 0.20004256E+02</pdfrwt>
<totfact> 0.12700714E+06</totfact>
</mgrwt>
</event>
<event>
 5    1  0.4710515E-007  0.2000751E+02  0.7818608E-02  0.1745179E+00
          4   -1    0    0  501    0  0.00000000000E+00  0.00000000000E+00  0.21708917759E+01  0.25940645911E+01  0.14200000000E+01 0.  1.
         -4   -1    0    0    0  501 -0.00000000000E+00 -0.00000000000E+00 -0.41568254246E+02  0.41592501260E+02  0.14200000000E+01 0. -1.
       1023    2    1    2    0    0  0.00000000000E+00  0.00000000000E+00 -0.39397362470E+02  0.44186565851E+02  0.20007509393E+02 0.  0.
        -13    1    3    3    0    0  0.85412093198E+01 -0.52010250314E+01 -0.19153143905E+02  0.21606874183E+02  0.10570000000E+00 0.  1.
         13    1    3    3    0    0 -0.85412093198E+01  0.52010250314E+01 -0.20244218565E+02  0.22579691668E+02  0.10570000000E+00 0. -1.
<mgrwt>
<rscale>  0 0.20007509E+02</rscale>
<asrwt>0</asrwt>
<pdfrwt beam="1">  1        4 0.36840029E-03 0.20007509E+02</pdfrwt>
<pdfrwt beam="2">  1       -4 0.64295324E-02 0.20007509E+02</pdfrwt>
<totfact> 0.11762999E+06</totfact>
</mgrwt>
</event>
<event>
 5    1  0.4710515E-007  0.2000423E+02  0.7818608E-02  0.1745244E+00
          4   -1    0    0  501    0  0.00000000000E+00  0.00000000000E+00  0.40839893466E+02  0.40864572655E+02  0.14200000000E+01 0. -1.
         -4   -1    0    0    0  501 -0.00000000000E+00 -0.00000000000E+00 -0.22161888231E+01  0.26320890752E+01  0.14200000000E+01 0.  1.
       1023    2    1    2    0    0  0.00000000000E+00  0.00000000000E+00  0.38623704643E+02  0.43496661730E+02  0.20004225088E+02 0.  0.
        -13    1    3    3    0    0 -0.60707287656E+01  0.79481952379E+01  0.19440995609E+02  0.21863006153E+02  0.10570000000E+00 0.  1.
         13    1    3    3    0    0  0.60707287656E+01 -0.79481952379E+01  0.19182709033E+02  0.21633655577E+02  0.10570000000E+00 0. -1.
<mgrwt>
<rscale>  0 0.20004225E+02</rscale>
<asrwt>0</asrwt>
<pdfrwt beam="1">  1        4 0.63169513E-02 0.20004225E+02</pdfrwt>
<pdfrwt beam="2">  1       -4 0.37484285E-03 0.20004225E+02</pdfrwt>
<totfact> 0.11797763E+06</totfact>
</mgrwt>
</event>
<event>
 5    1  0.4710515E-007  0.2000933E+02  0.7818608E-02  0.1745143E+00
         -4   -1    0    0    0  501 -0.00000000000E+00  0.00000000000E+00  0.21864523805E+01  0.26071006908E+01  0.14200000000E+01 0. -1.
          4   -1    0    0  501    0  0.00000000000E+00 -0.00000000000E+00 -0.41327724928E+02  0.41352112978E+02  0.14200000000E+01 0.  1.
       1023    2    1    2    0    0  0.00000000000E+00  0.00000000000E+00 -0.39141272548E+02  0.43959213669E+02  0.20009329067E+02 0.  0.
        -13    1    3    3    0    0 -0.13586863160E+01  0.99106688980E+01 -0.19837484248E+02  0.22217208202E+02  0.10570000000E+00 0.  1.
         13    1    3    3    0    0  0.13586863160E+01 -0.99106688980E+01 -0.19303788300E+02  0.21742005467E+02  0.10570000000E+00 0. -1.
<mgrwt>
<rscale>  0 0.20009329E+02</rscale>
<asrwt>0</asrwt>
<pdfrwt beam="2">  1        4 0.63923446E-02 0.20009329E+02</pdfrwt>
<pdfrwt beam="1">  1       -4 0.37061089E-03 0.20009329E+02</pdfrwt>
<totfact> 0.11770976E+06</totfact>
</mgrwt>
</event>
<event>
 5    1  0.4742290E-007  0.2000195E+02  0.7818608E-02  0.1745289E+00
          4   -1    0    0  501    0  0.00000000000E+00  0.00000000000E+00  0.22276187910E+01  0.26417201740E+01  0.14200000000E+01 0. -1.
         -4   -1    0    0    0  501 -0.00000000000E+00 -0.00000000000E+00 -0.40653774601E+02  0.40678566706E+02  0.14200000000E+01 0.  1.
       1023    2    1    2    0    0  0.00000000000E+00  0.00000000000E+00 -0.38426155810E+02  0.43320286880E+02  0.20001945033E+02 0.  0.
        -13    1    3    3    0    0  0.16321908038E+01  0.98662960057E+01 -0.19167901804E+02  0.21620071132E+02  0.10570000000E+00 0. -1.
         13    1    3    3    0    0 -0.16321908038E+01 -0.98662960057E+01 -0.19258254005E+02  0.21700215748E+02  0.10570000000E+00 0.  1.
<mgrwt>
<rscale>  0 0.20001945E+02</rscale>
<asrwt>0</asrwt>
<pdfrwt beam="1">  1        4 0.37647165E-03 0.20001945E+02</pdfrwt>
<pdfrwt beam="2">  1       -4 0.62881874E-02 0.20001945E+02</pdfrwt>
<totfact> 0.11808410E+06</totfact>
</mgrwt>
</event>
<event>
 5    1  0.4710515E-007  0.2000291E+02  0.7818608E-02  0.1745270E+00
         -4   -1    0    0    0  501 -0.00000000000E+00  0.00000000000E+00  0.47499249320E+01  0.49576392426E+01  0.14200000000E+01 0. -1.
          4   -1    0    0  501    0  0.00000000000E+00 -0.00000000000E+00 -0.20375541798E+02  0.20424962755E+02  0.14200000000E+01 0.  1.
       1023    2    1    2    0    0  0.00000000000E+00  0.00000000000E+00 -0.15625616866E+02  0.25382601998E+02  0.20002914331E+02 0.  0.
        -13    1    3    3    0    0  0.58754668187E+01  0.80928434576E+01 -0.77462961242E+01  0.12650355793E+02  0.10570000000E+00 0.  1.
         13    1    3    3    0    0 -0.58754668187E+01 -0.80928434576E+01 -0.78793207415E+01  0.12732246204E+02  0.10570000000E+00 0. -1.
<mgrwt>
<rscale>  0 0.20002914E+02</rscale>
<asrwt>0</asrwt>
<pdfrwt beam="2">  1        4 0.31544783E-02 0.20002914E+02</pdfrwt>
<pdfrwt beam="1">  1       -4 0.75053733E-03 0.20002914E+02</pdfrwt>
<totfact> 0.12700530E+06</totfact>
</mgrwt>
</event>
<event>
 5    1  0.4710515E-007  0.2000274E+02  0.7818608E-02  0.1745274E+00
         -4   -1    0    0    0  501 -0.00000000000E+00  0.00000000000E+00  0.42852101703E+01  0.45143577842E+01  0.14200000000E+01 0. -1.
          4   -1    0    0  501    0  0.00000000000E+00 -0.00000000000E+00 -0.22482490364E+02  0.22527289517E+02  0.14200000000E+01 0.  1.
       1023    2    1    2    0    0  0.00000000000E+00  0.00000000000E+00 -0.18197280194E+02  0.27041647301E+02  0.20002741870E+02 0.  0.
        -13    1    3    3    0    0  0.99147493135E+01 -0.13050307391E+01 -0.89575697492E+01  0.13425892428E+02  0.10570000000E+00 0.  1.
         13    1    3    3    0    0 -0.99147493135E+01  0.13050307391E+01 -0.92397104449E+01  0.13615754874E+02  0.10570000000E+00 0. -1.
<mgrwt>
<rscale>  0 0.20002742E+02</rscale>
<asrwt>0</asrwt>
<pdfrwt beam="2">  1        4 0.34799174E-02 0.20002742E+02</pdfrwt>
<pdfrwt beam="1">  1       -4 0.68033594E-03 0.20002742E+02</pdfrwt>
<totfact> 0.12609717E+06</totfact>
</mgrwt>
</event>
<event>
 5    1  0.4710515E-007  0.2000346E+02  0.7818608E-02  0.1745259E+00
         -4   -1    0    0    0  501 -0.00000000000E+00  0.00000000000E+00  0.63540700157E+01  0.65108068443E+01  0.14200000000E+01 0.  1.
          4   -1    0    0  501    0  0.00000000000E+00 -0.00000000000E+00 -0.15361696242E+02  0.15427187412E+02  0.14200000000E+01 0. -1.
       1023    2    1    2    0    0  0.00000000000E+00  0.00000000000E+00 -0.90076262265E+01  0.21937994256E+02  0.20003456245E+02 0.  0.
        -13    1    3    3    0    0 -0.90533475610E+01 -0.42495181354E+01 -0.45514475045E+01  0.10988555561E+02  0.10570000000E+00 0. -1.
         13    1    3    3    0    0  0.90533475610E+01  0.42495181354E+01 -0.44561787220E+01  0.10949438695E+02  0.10570000000E+00 0.  1.
<mgrwt>
<rscale>  0 0.20003456E+02</rscale>
<asrwt>0</asrwt>
<pdfrwt beam="2">  1        4 0.23804323E-02 0.20003456E+02</pdfrwt>
<pdfrwt beam="1">  1       -4 0.99464370E-03 0.20003456E+02</pdfrwt>
<totfact> 0.12895280E+06</totfact>
</mgrwt>
</event>
<event>
 5    1  0.4885127E-007  0.2000312E+02  0.7818608E-02  0.1745266E+00
          4   -1    0    0  501    0  0.00000000000E+00  0.00000000000E+00  0.11043353832E+02  0.11134274285E+02  0.14200000000E+01 0.  1.
         -4   -1    0    0    0  501 -0.00000000000E+00 -0.00000000000E+00 -0.88733056352E+01  0.89862090391E+01  0.14200000000E+01 0. -1.
       1023    2    1    2    0    0  0.00000000000E+00  0.00000000000E+00  0.21700481970E+01  0.20120483325E+02  0.20003118258E+02 0.  0.
        -13    1    3    3    0    0  0.43919632088E+01  0.89850230645E+01  0.10907338383E+01  0.10060857473E+02  0.10570000000E+00 0. -1.
         13    1    3    3    0    0 -0.43919632088E+01 -0.89850230645E+01  0.10793143587E+01  0.10059625851E+02  0.10570000000E+00 0.  1.
<mgrwt>
<rscale>  0 0.20003118E+02</rscale>
<asrwt>0</asrwt>
<pdfrwt beam="1">  1        4 0.17146563E-02 0.20003118E+02</pdfrwt>
<pdfrwt beam="2">  1       -4 0.13808027E-02 0.20003118E+02</pdfrwt>
<totfact> 0.13002754E+06</totfact>
</mgrwt>
</event>
<event>
 5    1  0.4710515E-007  0.2000320E+02  0.7818608E-02  0.1745264E+00
          4   -1    0    0  501    0  0.00000000000E+00  0.00000000000E+00  0.28513047563E+01  0.31853318215E+01  0.14200000000E+01 0. -1.
         -4   -1    0    0    0  501 -0.00000000000E+00 -0.00000000000E+00 -0.32791403486E+02  0.32822134949E+02  0.14200000000E+01 0.  1.
       1023    2    1    2    0    0  0.00000000000E+00  0.00000000000E+00 -0.29940098730E+02  0.36007466770E+02  0.20003203525E+02 0.  0.
        -13    1    3    3    0    0 -0.43008021604E+01  0.90286621074E+01 -0.15123074068E+02  0.18130972959E+02  0.10570000000E+00 0.  1.
         13    1    3    3    0    0  0.43008021604E+01 -0.90286621074E+01 -0.14817024662E+02  0.17876493811E+02  0.10570000000E+00 0. -1.
<mgrwt>
<rscale>  0 0.20003204E+02</rscale>
<asrwt>0</asrwt>
<pdfrwt beam="1">  1        4 0.46672064E-03 0.20003204E+02</pdfrwt>
<pdfrwt beam="2">  1       -4 0.50728894E-02 0.20003204E+02</pdfrwt>
<totfact> 0.12148701E+06</totfact>
</mgrwt>
</event>
<event>
 5    1  0.4753912E-007  0.2000122E+02  0.7818608E-02  0.1745304E+00
         -4   -1    0    0    0  501 -0.00000000000E+00  0.00000000000E+00  0.98807213788E+00  0.17299383081E+01  0.14200000000E+01 0.  1.
          4   -1    0    0  501    0  0.00000000000E+00 -0.00000000000E+00 -0.72841548936E+02  0.72855388623E+02  0.14200000000E+01 0. -1.
       1023    2    1    2    0    0  0.00000000000E+00  0.00000000000E+00 -0.71853476799E+02  0.74585326931E+02  0.20001221598E+02 0.  0.
        -13    1    3    3    0    0  0.57493292661E+01  0.81820413075E+01 -0.36006447333E+02  0.37369452886E+02  0.10570000000E+00 0.  1.
         13    1    3    3    0    0 -0.57493292661E+01 -0.81820413075E+01 -0.35847029466E+02  0.37215874045E+02  0.10570000000E+00 0. -1.
<mgrwt>
<rscale>  0 0.20001222E+02</rscale>
<asrwt>0</asrwt>
<pdfrwt beam="2">  1        4 0.11264520E-01 0.20001222E+02</pdfrwt>
<pdfrwt beam="1">  1       -4 0.21014237E-03 0.20001222E+02</pdfrwt>
<totfact> 0.10590518E+06</totfact>
</mgrwt>
</event>
<event>
 5    1  0.4710515E-007  0.2000528E+02  0.7818608E-02  0.1745223E+00
          4   -1    0    0  501    0  0.00000000000E+00  0.00000000000E+00  0.20837174964E+01  0.25215627307E+01  0.14200000000E+01 0.  1.
         -4   -1    0    0    0  501 -0.00000000000E+00 -0.00000000000E+00 -0.43000653031E+02  0.43024092798E+02  0.14200000000E+01 0. -1.
       1023    2    1    2    0    0  0.00000000000E+00  0.00000000000E+00 -0.40916935535E+02  0.45545655529E+02  0.20005277404E+02 0.  0.
        -13    1    3    3    0    0  0.42724811354E+01 -0.90435578131E+01 -0.20548836214E+02  0.22854012234E+02  0.10570000000E+00 0.  1.
         13    1    3    3    0    0 -0.42724811354E+01  0.90435578131E+01 -0.20368099321E+02  0.22691643295E+02  0.10570000000E+00 0. -1.
<mgrwt>
<rscale>  0 0.20005277E+02</rscale>
<asrwt>0</asrwt>
<pdfrwt beam="1">  1        4 0.35605542E-03 0.20005277E+02</pdfrwt>
<pdfrwt beam="2">  1       -4 0.66509679E-02 0.20005277E+02</pdfrwt>
<totfact> 0.11705506E+06</totfact>
</mgrwt>
</event>
<event>
 5    1  0.4710515E-007  0.2000395E+02  0.7818608E-02  0.1745250E+00
         -4   -1    0    0    0  501 -0.00000000000E+00  0.00000000000E+00  0.24086328379E+02  0.24128149842E+02  0.14200000000E+01 0. -1.
          4   -1    0    0  501    0  0.00000000000E+00 -0.00000000000E+00 -0.39851255961E+01  0.42305585939E+01  0.14200000000E+01 0.  1.
       1023    2    1    2    0    0  0.00000000000E+00  0.00000000000E+00  0.20101202783E+02  0.28358708436E+02  0.20003949381E+02 0.  0.
        -13    1    3    3    0    0 -0.31765061624E+01  0.94833305451E+01  0.10146495983E+02  0.14247326165E+02  0.10570000000E+00 0.  1.
         13    1    3    3    0    0  0.31765061624E+01 -0.94833305451E+01  0.99547068001E+01  0.14111382271E+02  0.10570000000E+00 0. -1.
<mgrwt>
<rscale>  0 0.20003949E+02</rscale>
<asrwt>0</asrwt>
<pdfrwt beam="2">  1        4 0.63519274E-03 0.20003949E+02</pdfrwt>
<pdfrwt beam="1">  1       -4 0.37276855E-02 0.20003949E+02</pdfrwt>
<totfact> 0.12537336E+06</totfact>
</mgrwt>
</event>
<event>
 5    1  0.4710515E-007  0.2000252E+02  0.7818608E-02  0.1745278E+00
          4   -1    0    0  501    0  0.00000000000E+00  0.00000000000E+00  0.55480992917E+00  0.15245373257E+01  0.14200000000E+01 0.  1.
         -4   -1    0    0    0  501 -0.00000000000E+00 -0.00000000000E+00 -0.95230802772E+02  0.95241389094E+02  0.14200000000E+01 0. -1.
       1023    2    1    2    0    0  0.00000000000E+00  0.00000000000E+00 -0.94675992843E+02  0.96765926420E+02  0.20002522219E+02 0.  0.
        -13    1    3    3    0    0  0.88567849516E+01  0.46444226696E+01 -0.47470453787E+02  0.48512559785E+02  0.10570000000E+00 0. -1.
         13    1    3    3    0    0 -0.88567849516E+01 -0.46444226696E+01 -0.47205539055E+02  0.48253366635E+02  0.10570000000E+00 0.  1.
<mgrwt>
<rscale>  0 0.20002522E+02</rscale>
<asrwt>0</asrwt>
<pdfrwt beam="1">  1        4 0.16076420E-03 0.20002522E+02</pdfrwt>
<pdfrwt beam="2">  1       -4 0.14726294E-01 0.20002522E+02</pdfrwt>
<totfact> 0.98918361E+05</totfact>
</mgrwt>
</event>
<event>
 5    1  0.4710515E-007  0.2000496E+02  0.7818608E-02  0.1745230E+00
          4   -1    0    0  501    0  0.00000000000E+00  0.00000000000E+00  0.15200221240E+02  0.15266405135E+02  0.14200000000E+01 0. -1.
         -4   -1    0    0    0  501 -0.00000000000E+00 -0.00000000000E+00 -0.64239248437E+01  0.65789976743E+01  0.14200000000E+01 0.  1.
       1023    2    1    2    0    0  0.00000000000E+00  0.00000000000E+00  0.87762963960E+01  0.21845402809E+02  0.20004955522E+02 0.  0.
        -13    1    3    3    0    0  0.96729490659E+01  0.25439398646E+01  0.44193267911E+01  0.10935227270E+02  0.10570000000E+00 0.  1.
         13    1    3    3    0    0 -0.96729490659E+01 -0.25439398646E+01  0.43569696048E+01  0.10910175539E+02  0.10570000000E+00 0. -1.
<mgrwt>
<rscale>  0 0.20004956E+02</rscale>
<asrwt>0</asrwt>
<pdfrwt beam="1">  1        4 0.23555153E-02 0.20004956E+02</pdfrwt>
<pdfrwt beam="2">  1       -4 0.10053159E-02 0.20004956E+02</pdfrwt>
<totfact> 0.12898690E+06</totfact>
</mgrwt>
</event>
<event>
 5    1  0.4710515E-007  0.2000435E+02  0.7818608E-02  0.1745242E+00
         -4   -1    0    0    0  501 -0.00000000000E+00  0.00000000000E+00  0.70283494784E+01  0.71703623611E+01  0.14200000000E+01 0.  1.
          4   -1    0    0  501    0  0.00000000000E+00 -0.00000000000E+00 -0.13913398668E+02  0.13985673473E+02  0.14200000000E+01 0. -1.
       1023    2    1    2    0    0  0.00000000000E+00  0.00000000000E+00 -0.68850491894E+01  0.21156035834E+02  0.20004348274E+02 0.  0.
        -13    1    3    3    0    0  0.44431544259E+01  0.89605067384E+01 -0.34387535369E+01  0.10576790659E+02  0.10570000000E+00 0.  1.
         13    1    3    3    0    0 -0.44431544259E+01 -0.89605067384E+01 -0.34462956525E+01  0.10579245175E+02  0.10570000000E+00 0. -1.
<mgrwt>
<rscale>  0 0.20004348E+02</rscale>
<asrwt>0</asrwt>
<pdfrwt beam="2">  1        4 0.21570065E-02 0.20004348E+02</pdfrwt>
<pdfrwt beam="1">  1       -4 0.10977682E-02 0.20004348E+02</pdfrwt>
<totfact> 0.12939812E+06</totfact>
</mgrwt>
</event>
<event>
 4    1  0.7299641E-007  0.2070584E+02  0.7818608E-02  0.1731645E+00
         -4   -1    0    0    0  501 -0.00000000000E+00  0.00000000000E+00  0.28854244414E+02  0.28889164417E+02  0.14200000000E+01 0. -1.
          4   -1    0    0  501    0  0.00000000000E+00 -0.00000000000E+00 -0.35403050343E+01  0.38144671627E+01  0.14200000000E+01 0.  1.
        -13    1    1    2    0    0 -0.35618685724E+01 -0.95068348182E+01  0.15857044380E+02  0.18828803598E+02  0.10570000000E+00 0. -1.
         13    1    1    2    0    0  0.35618685724E+01  0.95068348182E+01  0.94568950005E+01  0.13874827982E+02  0.10570000000E+00 0.  1.
<mgrwt>
<rscale>  0 0.20705844E+02</rscale>
<asrwt>0</asrwt>
<pdfrwt beam="2">  1        4 0.56843784E-03 0.20705844E+02</pdfrwt>
<pdfrwt beam="1">  1       -4 0.44628902E-02 0.20705844E+02</pdfrwt>
<totfact> 0.11472892E+06</totfact>
</mgrwt>
</event>
<event>
 5    1  0.4710515E-007  0.2000539E+02  0.7818608E-02  0.1745221E+00
          4   -1    0    0  501    0  0.00000000000E+00  0.00000000000E+00  0.12831510827E+02  0.12909843923E+02  0.14200000000E+01 0. -1.
         -4   -1    0    0    0  501 -0.00000000000E+00 -0.00000000000E+00 -0.76297436441E+01  0.77607595038E+01  0.14200000000E+01 0.  1.
       1023    2    1    2    0    0  0.00000000000E+00  0.00000000000E+00  0.52017671833E+01  0.20670603427E+02  0.20005385880E+02 0.  0.
        -13    1    3    3    0    0  0.79773608610E+01  0.60328447146E+01  0.26999460119E+01  0.10360230819E+02  0.10570000000E+00 0.  1.
         13    1    3    3    0    0 -0.79773608610E+01 -0.60328447146E+01  0.25018211715E+01  0.10310372608E+02  0.10570000000E+00 0. -1.
<mgrwt>
<rscale>  0 0.20005386E+02</rscale>
<asrwt>0</asrwt>
<pdfrwt beam="1">  1        4 0.19901823E-02 0.20005386E+02</pdfrwt>
<pdfrwt beam="2">  1       -4 0.11899105E-02 0.20005386E+02</pdfrwt>
<totfact> 0.12967108E+06</totfact>
</mgrwt>
</event>
<event>
 5    1  0.4710515E-007  0.2000505E+02  0.7818608E-02  0.1745228E+00
         -4   -1    0    0    0  501 -0.00000000000E+00  0.00000000000E+00  0.10732786545E+03  0.10733725868E+03  0.14200000000E+01 0. -1.
          4   -1    0    0  501    0  0.00000000000E+00 -0.00000000000E+00 -0.37642701926E+00  0.14690463917E+01  0.14200000000E+01 0.  1.
       1023    2    1    2    0    0  0.00000000000E+00  0.00000000000E+00  0.10695143843E+03  0.10880630508E+03  0.20005045415E+02 0.  0.
        -13    1    3    3    0    0 -0.93110223311E+01  0.36489136381E+01  0.54411161122E+02  0.55322647575E+02  0.10570000000E+00 0. -1.
         13    1    3    3    0    0  0.93110223311E+01 -0.36489136381E+01  0.52540277307E+02  0.53483657500E+02  0.10570000000E+00 0.  1.
<mgrwt>
<rscale>  0 0.20005045E+02</rscale>
<asrwt>0</asrwt>
<pdfrwt beam="2">  1        4 0.14268204E-03 0.20005045E+02</pdfrwt>
<pdfrwt beam="1">  1       -4 0.16596750E-01 0.20005045E+02</pdfrwt>
<totfact> 0.95525438E+05</totfact>
</mgrwt>
</event>
<event>
 5    1  0.4710515E-007  0.2000919E+02  0.7818608E-02  0.1745145E+00
         -4   -1    0    0    0  501 -0.00000000000E+00  0.00000000000E+00  0.45964063416E+01  0.48107537098E+01  0.14200000000E+01 0.  1.
          4   -1    0    0  501    0  0.00000000000E+00 -0.00000000000E+00 -0.21041129938E+02  0.21088991182E+02  0.14200000000E+01 0. -1.
       1023    2    1    2    0    0  0.00000000000E+00  0.00000000000E+00 -0.16444723597E+02  0.25899744892E+02  0.20009194169E+02 0.  0.
        -13    1    3    3    0    0  0.67233079353E+01  0.74068848959E+01 -0.80587510276E+01  0.12845989805E+02  0.10570000000E+00 0.  1.
         13    1    3    3    0    0 -0.67233079353E+01 -0.74068848959E+01 -0.83859725692E+01  0.13053755087E+02  0.10570000000E+00 0. -1.
<mgrwt>
<rscale>  0 0.20009194E+02</rscale>
<asrwt>0</asrwt>
<pdfrwt beam="2">  1        4 0.32572667E-02 0.20009194E+02</pdfrwt>
<pdfrwt beam="1">  1       -4 0.72730934E-03 0.20009194E+02</pdfrwt>
<totfact> 0.12663837E+06</totfact>
</mgrwt>
</event>
<event>
 5    1  0.4710515E-007  0.2000431E+02  0.7818608E-02  0.1745242E+00
         -4   -1    0    0    0  501 -0.00000000000E+00  0.00000000000E+00  0.36550136674E+00  0.14662848458E+01  0.14200000000E+01 0.  1.
          4   -1    0    0  501    0  0.00000000000E+00 -0.00000000000E+00 -0.10812181562E+03  0.10813113989E+03  0.14200000000E+01 0. -1.
       1023    2    1    2    0    0  0.00000000000E+00  0.00000000000E+00 -0.10775631426E+03  0.10959742474E+03  0.20004305695E+02 0.  0.
        -13    1    3    3    0    0 -0.94775558870E+01 -0.31939695236E+01 -0.54315842009E+02  0.55229044646E+02  0.10570000000E+00 0.  1.
         13    1    3    3    0    0  0.94775558870E+01  0.31939695236E+01 -0.53440472248E+02  0.54368380089E+02  0.10570000000E+00 0. -1.
<mgrwt>
<rscale>  0 0.20004306E+02</rscale>
<asrwt>0</asrwt>
<pdfrwt beam="2">  1        4 0.16719508E-01 0.20004306E+02</pdfrwt>
<pdfrwt beam="1">  1       -4 0.14162397E-03 0.20004306E+02</pdfrwt>
<totfact> 0.95319945E+05</totfact>
</mgrwt>
</event>
<event>
 5    1  0.4788655E-007  0.2000330E+02  0.7818608E-02  0.1745262E+00
         -4   -1    0    0    0  501 -0.00000000000E+00  0.00000000000E+00  0.11503325984E+02  0.11590638839E+02  0.14200000000E+01 0. -1.
          4   -1    0    0  501    0  0.00000000000E+00 -0.00000000000E+00 -0.85168144301E+01  0.86343805821E+01  0.14200000000E+01 0.  1.
       1023    2    1    2    0    0  0.00000000000E+00  0.00000000000E+00  0.29865115542E+01  0.20225019421E+02  0.20003303710E+02 0.  0.
        -13    1    3    3    0    0  0.29552475356E+01  0.95541771210E+01  0.15720871770E+01  0.10124150287E+02  0.10570000000E+00 0.  1.
         13    1    3    3    0    0 -0.29552475356E+01 -0.95541771210E+01  0.14144243772E+01  0.10100869134E+02  0.10570000000E+00 0. -1.
<mgrwt>
<rscale>  0 0.20003304E+02</rscale>
<asrwt>0</asrwt>
<pdfrwt beam="2">  1        4 0.13260391E-02 0.20003304E+02</pdfrwt>
<pdfrwt beam="1">  1       -4 0.17855024E-02 0.20003304E+02</pdfrwt>
<totfact> 0.12996269E+06</totfact>
</mgrwt>
</event>
<event>
 5    1  0.4851032E-007  0.2000172E+02  0.7818608E-02  0.1745294E+00
         -4   -1    0    0    0  501 -0.00000000000E+00  0.00000000000E+00  0.74421538180E+01  0.75764142871E+01  0.14200000000E+01 0.  1.
          4   -1    0    0  501    0  0.00000000000E+00 -0.00000000000E+00 -0.13146307961E+02  0.13222776298E+02  0.14200000000E+01 0. -1.
       1023    2    1    2    0    0  0.00000000000E+00  0.00000000000E+00 -0.57041541434E+01  0.20799190585E+02  0.20001723788E+02 0.  0.
        -13    1    3    3    0    0  0.63247827662E+01  0.77461445850E+01 -0.28737193772E+01  0.10405530670E+02  0.10570000000E+00 0. -1.
         13    1    3    3    0    0 -0.63247827662E+01 -0.77461445850E+01 -0.28304347661E+01  0.10393659915E+02  0.10570000000E+00 0.  1.
<mgrwt>
<rscale>  0 0.20001724E+02</rscale>
<asrwt>0</asrwt>
<pdfrwt beam="2">  1        4 0.20387188E-02 0.20001724E+02</pdfrwt>
<pdfrwt beam="1">  1       -4 0.11611566E-02 0.20001724E+02</pdfrwt>
<totfact> 0.12964345E+06</totfact>
</mgrwt>
</event>
<event>
 5    1  0.4751121E-007  0.2000166E+02  0.7818608E-02  0.1745295E+00
          4   -1    0    0  501    0  0.00000000000E+00  0.00000000000E+00  0.20726832354E+01  0.25124521477E+01  0.14200000000E+01 0. -1.
         -4   -1    0    0    0  501 -0.00000000000E+00 -0.00000000000E+00 -0.43173903141E+02  0.43197248899E+02  0.14200000000E+01 0.  1.
       1023    2    1    2    0    0  0.00000000000E+00  0.00000000000E+00 -0.41101219906E+02  0.45709701047E+02  0.20001662232E+02 0.  0.
        -13    1    3    3    0    0  0.99984218285E+01  0.18651698217E+00 -0.20442864354E+02  0.22757967904E+02  0.10570000000E+00 0.  1.
         13    1    3    3    0    0 -0.99984218285E+01 -0.18651698217E+00 -0.20658355552E+02  0.22951733143E+02  0.10570000000E+00 0. -1.
<mgrwt>
<rscale>  0 0.20001662E+02</rscale>
<asrwt>0</asrwt>
<pdfrwt beam="1">  1        4 0.35449858E-03 0.20001662E+02</pdfrwt>
<pdfrwt beam="2">  1       -4 0.66777625E-02 0.20001662E+02</pdfrwt>
<totfact> 0.11702575E+06</totfact>
</mgrwt>
</event>
<event>
 5    1  0.4818369E-007  0.2000185E+02  0.7818608E-02  0.1745291E+00
          4   -1    0    0  501    0  0.00000000000E+00  0.00000000000E+00  0.62133231194E+01  0.63735221178E+01  0.14200000000E+01 0. -1.
         -4   -1    0    0    0  501 -0.00000000000E+00 -0.00000000000E+00 -0.15699900925E+02  0.15763987092E+02  0.14200000000E+01 0.  1.
       1023    2    1    2    0    0  0.00000000000E+00  0.00000000000E+00 -0.94865778053E+01  0.22137509210E+02  0.20001853803E+02 0.  0.
        -13    1    3    3    0    0  0.99325170659E+01  0.11620844464E+01 -0.47931658971E+01  0.11090128373E+02  0.10570000000E+00 0. -1.
         13    1    3    3    0    0 -0.99325170659E+01 -0.11620844464E+01 -0.46934119082E+01  0.11047380837E+02  0.10570000000E+00 0.  1.
<mgrwt>
<rscale>  0 0.20001854E+02</rscale>
<asrwt>0</asrwt>
<pdfrwt beam="1">  1        4 0.97314858E-03 0.20001854E+02</pdfrwt>
<pdfrwt beam="2">  1       -4 0.24326221E-02 0.20001854E+02</pdfrwt>
<totfact> 0.12885814E+06</totfact>
</mgrwt>
</event>
<event>
 5    1  0.4848113E-007  0.2000264E+02  0.7818608E-02  0.1745276E+00
          4   -1    0    0  501    0  0.00000000000E+00  0.00000000000E+00  0.25635218384E+02  0.25674516969E+02  0.14200000000E+01 0. -1.
         -4   -1    0    0    0  501 -0.00000000000E+00 -0.00000000000E+00 -0.37289139446E+01  0.39901377428E+01  0.14200000000E+01 0.  1.
       1023    2    1    2    0    0  0.00000000000E+00  0.00000000000E+00  0.21906304440E+02  0.29664654712E+02  0.20002638951E+02 0.  0.
        -13    1    3    3    0    0 -0.45814384991E+01  0.88893553277E+01  0.10848265808E+02  0.14754872429E+02  0.10570000000E+00 0. -1.
         13    1    3    3    0    0  0.45814384991E+01 -0.88893553277E+01  0.11058038631E+02  0.14909782283E+02  0.10570000000E+00 0.  1.
<mgrwt>
<rscale>  0 0.20002639E+02</rscale>
<asrwt>0</asrwt>
<pdfrwt beam="1">  1        4 0.39669967E-02 0.20002639E+02</pdfrwt>
<pdfrwt beam="2">  1       -4 0.59679619E-03 0.20002639E+02</pdfrwt>
<totfact> 0.12469949E+06</totfact>
</mgrwt>
</event>
<event>
 5    1  0.4710515E-007  0.2000454E+02  0.7818608E-02  0.1745238E+00
          4   -1    0    0  501    0  0.00000000000E+00  0.00000000000E+00  0.37471198524E+02  0.37498094869E+02  0.14200000000E+01 0.  1.
         -4   -1    0    0    0  501 -0.00000000000E+00 -0.00000000000E+00 -0.24512032382E+01  0.28328073205E+01  0.14200000000E+01 0. -1.
       1023    2    1    2    0    0  0.00000000000E+00  0.00000000000E+00  0.35019995285E+02  0.40330902189E+02  0.20004539525E+02 0.  0.
        -13    1    3    3    0    0 -0.84754917466E+01  0.53095046935E+01  0.17705750062E+02  0.20335426186E+02  0.10570000000E+00 0. -1.
         13    1    3    3    0    0  0.84754917466E+01 -0.53095046935E+01  0.17314245224E+02  0.19995476003E+02  0.10570000000E+00 0.  1.
<mgrwt>
<rscale>  0 0.20004540E+02</rscale>
<asrwt>0</asrwt>
<pdfrwt beam="1">  1        4 0.57962225E-02 0.20004540E+02</pdfrwt>
<pdfrwt beam="2">  1       -4 0.40853132E-03 0.20004540E+02</pdfrwt>
<totfact> 0.11941749E+06</totfact>
</mgrwt>
</event>
<event>
 4    1  0.4710515E-007  0.2001932E+02  0.7818608E-02  0.1744944E+00
          4   -1    0    0  501    0  0.00000000000E+00  0.00000000000E+00  0.61011028972E+01  0.62641724563E+01  0.14200000000E+01 0.  1.
         -4   -1    0    0    0  501 -0.00000000000E+00 -0.00000000000E+00 -0.16010690742E+02  0.16073537819E+02  0.14200000000E+01 0. -1.
        -13    1    1    2    0    0  0.81431146348E+00  0.99750953192E+01 -0.50982956011E+01  0.11232516206E+02  0.10570000000E+00 0. -1.
         13    1    1    2    0    0 -0.81431146348E+00 -0.99750953192E+01 -0.48112922434E+01  0.11105194070E+02  0.10570000000E+00 0.  1.
<mgrwt>
<rscale>  0 0.20019325E+02</rscale>
<asrwt>0</asrwt>
<pdfrwt beam="1">  1        4 0.95600942E-03 0.20019325E+02</pdfrwt>
<pdfrwt beam="2">  1       -4 0.24805614E-02 0.20019325E+02</pdfrwt>
<totfact> 0.12851334E+06</totfact>
</mgrwt>
</event>
<event>
 4    1  0.4710515E-007  0.2005136E+02  0.7818608E-02  0.1744309E+00
          4   -1    0    0  501    0  0.00000000000E+00  0.00000000000E+00  0.22276160157E+01  0.26417178338E+01  0.14200000000E+01 0.  1.
         -4   -1    0    0    0  501 -0.00000000000E+00 -0.00000000000E+00 -0.40857105498E+02  0.40881774297E+02  0.14200000000E+01 0. -1.
        -13    1    1    2    0    0 -0.98057326371E+01  0.20196445809E+01 -0.20446163281E+02  0.22765942154E+02  0.10570000000E+00 0. -1.
         13    1    1    2    0    0  0.98057326371E+01 -0.20196445809E+01 -0.18183326201E+02  0.20757549976E+02  0.10570000000E+00 0.  1.
<mgrwt>
<rscale>  0 0.20051357E+02</rscale>
<asrwt>0</asrwt>
<pdfrwt beam="1">  1        4 0.37646177E-03 0.20051357E+02</pdfrwt>
<pdfrwt beam="2">  1       -4 0.63194596E-02 0.20051357E+02</pdfrwt>
<totfact> 0.11740549E+06</totfact>
</mgrwt>
</event>
<event>
 5    1  0.4710515E-007  0.2000467E+02  0.7818608E-02  0.1745235E+00
         -4   -1    0    0    0  501 -0.00000000000E+00  0.00000000000E+00  0.31058576188E+02  0.31091020485E+02  0.14200000000E+01 0.  1.
          4   -1    0    0  501    0  0.00000000000E+00 -0.00000000000E+00 -0.30288443421E+01  0.33451902859E+01  0.14200000000E+01 0. -1.
       1023    2    1    2    0    0  0.00000000000E+00  0.00000000000E+00  0.28029731845E+02  0.34436210771E+02  0.20004668078E+02 0.  0.
        -13    1    3    3    0    0  0.69390952552E+01  0.72015406030E+01  0.14271833243E+02  0.17427266757E+02  0.10570000000E+00 0. -1.
         13    1    3    3    0    0 -0.69390952552E+01 -0.72015406030E+01  0.13757898603E+02  0.17008944014E+02  0.10570000000E+00 0.  1.
<mgrwt>
<rscale>  0 0.20004668E+02</rscale>
<asrwt>0</asrwt>
<pdfrwt beam="2">  1        4 0.49280608E-03 0.20004668E+02</pdfrwt>
<pdfrwt beam="1">  1       -4 0.48050724E-02 0.20004668E+02</pdfrwt>
<totfact> 0.12224069E+06</totfact>
</mgrwt>
</event>
<event>
 5    1  0.4710515E-007  0.2000546E+02  0.7818608E-02  0.1745220E+00
         -4   -1    0    0    0  501 -0.00000000000E+00  0.00000000000E+00  0.20789892517E+02  0.20838330808E+02  0.14200000000E+01 0.  1.
          4   -1    0    0  501    0  0.00000000000E+00 -0.00000000000E+00 -0.46525561200E+01  0.48644299203E+01  0.14200000000E+01 0. -1.
       1023    2    1    2    0    0  0.00000000000E+00  0.00000000000E+00  0.16137336397E+02  0.25702760729E+02  0.20005456333E+02 0.  0.
        -13    1    3    3    0    0 -0.75523392539E+01 -0.65565652499E+01  0.79010430724E+01  0.12746137854E+02  0.10570000000E+00 0.  1.
         13    1    3    3    0    0  0.75523392539E+01  0.65565652499E+01  0.82362933247E+01  0.12956622874E+02  0.10570000000E+00 0. -1.
<mgrwt>
<rscale>  0 0.20005456E+02</rscale>
<asrwt>0</asrwt>
<pdfrwt beam="2">  1        4 0.73580186E-03 0.20005456E+02</pdfrwt>
<pdfrwt beam="1">  1       -4 0.32184690E-02 0.20005456E+02</pdfrwt>
<totfact> 0.12679520E+06</totfact>
</mgrwt>
</event>
<event>
 5    1  0.4710515E-007  0.2000187E+02  0.7818608E-02  0.1745291E+00
          4   -1    0    0  501    0  0.00000000000E+00  0.00000000000E+00  0.11582208951E+03  0.11583079392E+03  0.14200000000E+01 0.  1.
         -4   -1    0    0    0  501 -0.00000000000E+00 -0.00000000000E+00 -0.26506347158E+00  0.14445271351E+01  0.14200000000E+01 0. -1.
       1023    2    1    2    0    0  0.00000000000E+00  0.00000000000E+00  0.11555702604E+03  0.11727532105E+03  0.20001866414E+02 0.  0.
        -13    1    3    3    0    0 -0.42883793469E+01  0.90341462921E+01  0.57551744265E+02  0.58414214341E+02  0.10570000000E+00 0. -1.
         13    1    3    3    0    0  0.42883793469E+01 -0.90341462921E+01  0.58005281778E+02  0.58861106711E+02  0.10570000000E+00 0.  1.
<mgrwt>
<rscale>  0 0.20001866E+02</rscale>
<asrwt>0</asrwt>
<pdfrwt beam="1">  1        4 0.17910168E-01 0.20001866E+02</pdfrwt>
<pdfrwt beam="2">  1       -4 0.13217663E-03 0.20001866E+02</pdfrwt>
<totfact> 0.93332447E+05</totfact>
</mgrwt>
</event>
<event>
 5    1  0.4710515E-007  0.2000566E+02  0.7818608E-02  0.1745216E+00
         -4   -1    0    0    0  501 -0.00000000000E+00  0.00000000000E+00  0.14109957590E+02  0.14181230665E+02  0.14200000000E+01 0. -1.
          4   -1    0    0  501    0  0.00000000000E+00 -0.00000000000E+00 -0.69298885965E+01  0.70738784242E+01  0.14200000000E+01 0.  1.
       1023    2    1    2    0    0  0.00000000000E+00  0.00000000000E+00  0.71800689931E+01  0.21255109089E+02  0.20005655992E+02 0.  0.
        -13    1    3    3    0    0 -0.28044610217E+00  0.99970418914E+01  0.37610165781E+01  0.10685313041E+02  0.10570000000E+00 0.  1.
         13    1    3    3    0    0  0.28044610217E+00 -0.99970418914E+01  0.34190524150E+01  0.10569796048E+02  0.10570000000E+00 0. -1.
<mgrwt>
<rscale>  0 0.20005656E+02</rscale>
<asrwt>0</asrwt>
<pdfrwt beam="2">  1        4 0.10826954E-02 0.20005656E+02</pdfrwt>
<pdfrwt beam="1">  1       -4 0.21873214E-02 0.20005656E+02</pdfrwt>
<totfact> 0.12932263E+06</totfact>
</mgrwt>
</event>
<event>
 5    1  0.4710515E-007  0.2000217E+02  0.7818608E-02  0.1745285E+00
          4   -1    0    0  501    0  0.00000000000E+00  0.00000000000E+00  0.96279221292E+02  0.96289692349E+02  0.14200000000E+01 0.  1.
         -4   -1    0    0    0  501 -0.00000000000E+00 -0.00000000000E+00 -0.53809822156E+00  0.15185353786E+01  0.14200000000E+01 0. -1.
       1023    2    1    2    0    0  0.00000000000E+00  0.00000000000E+00  0.95741123071E+02  0.97808227728E+02  0.20002168991E+02 0.  0.
        -13    1    3    3    0    0  0.75551507094E+00  0.99718242677E+01  0.47629199929E+02  0.48667853257E+02  0.10570000000E+00 0.  1.
         13    1    3    3    0    0 -0.75551507094E+00 -0.99718242677E+01  0.48111923142E+02  0.49140374471E+02  0.10570000000E+00 0. -1.
<mgrwt>
<rscale>  0 0.20002169E+02</rscale>
<asrwt>0</asrwt>
<pdfrwt beam="1">  1        4 0.14888406E-01 0.20002169E+02</pdfrwt>
<pdfrwt beam="2">  1       -4 0.15900811E-03 0.20002169E+02</pdfrwt>
<totfact> 0.98619767E+05</totfact>
</mgrwt>
</event>
<event>
 4    1  0.4710515E-007  0.2002345E+02  0.7818608E-02  0.1744862E+00
          4   -1    0    0  501    0  0.00000000000E+00  0.00000000000E+00  0.64868659311E+00  0.15611515929E+01  0.14200000000E+01 0. -1.
         -4   -1    0    0    0  501 -0.00000000000E+00 -0.00000000000E+00 -0.89796310168E+02  0.89807537099E+02  0.14200000000E+01 0.  1.
        -13    1    1    2    0    0  0.44431016903E+01 -0.89632477128E+01 -0.46296256103E+02  0.47364918070E+02  0.10570000000E+00 0.  1.
         13    1    1    2    0    0 -0.44431016903E+01  0.89632477128E+01 -0.42851367472E+02  0.44003770622E+02  0.10570000000E+00 0. -1.
<mgrwt>
<rscale>  0 0.20023448E+02</rscale>
<asrwt>0</asrwt>
<pdfrwt beam="1">  1        4 0.17085123E-03 0.20023448E+02</pdfrwt>
<pdfrwt beam="2">  1       -4 0.13885864E-01 0.20023448E+02</pdfrwt>
<totfact> 0.10030702E+06</totfact>
</mgrwt>
</event>
<event>
 5    1  0.4710515E-007  0.2000910E+02  0.7818608E-02  0.1745147E+00
         -4   -1    0    0    0  501 -0.00000000000E+00  0.00000000000E+00  0.24215306374E+02  0.24256905466E+02  0.14200000000E+01 0.  1.
          4   -1    0    0  501    0  0.00000000000E+00 -0.00000000000E+00 -0.39648172087E+01  0.42114339005E+01  0.14200000000E+01 0. -1.
       1023    2    1    2    0    0  0.00000000000E+00  0.00000000000E+00  0.20250489165E+02  0.28468339367E+02  0.20009098802E+02 0.  0.
        -13    1    3    3    0    0 -0.31009938018E+01 -0.95094136993E+01  0.98601174171E+01  0.14045575796E+02  0.10570000000E+00 0.  1.
         13    1    3    3    0    0  0.31009938018E+01  0.95094136993E+01  0.10390371748E+02  0.14422763571E+02  0.10570000000E+00 0. -1.
<mgrwt>
<rscale>  0 0.20009099E+02</rscale>
<asrwt>0</asrwt>
<pdfrwt beam="2">  1        4 0.63214233E-03 0.20009099E+02</pdfrwt>
<pdfrwt beam="1">  1       -4 0.37476022E-02 0.20009099E+02</pdfrwt>
<totfact> 0.12524937E+06</totfact>
</mgrwt>
</event>
<event>
 5    1  0.4710515E-007  0.2000484E+02  0.7818608E-02  0.1745232E+00
         -4   -1    0    0    0  501 -0.00000000000E+00  0.00000000000E+00  0.40909183167E+02  0.40933820581E+02  0.14200000000E+01 0. -1.
          4   -1    0    0  501    0  0.00000000000E+00 -0.00000000000E+00 -0.22118958893E+01  0.26284754945E+01  0.14200000000E+01 0.  1.
       1023    2    1    2    0    0  0.00000000000E+00  0.00000000000E+00  0.38697287278E+02  0.43562296076E+02  0.20004839333E+02 0.  0.
        -13    1    3    3    0    0  0.44414428563E+01 -0.89613548261E+01  0.19195719683E+02  0.21645302530E+02  0.10570000000E+00 0. -1.
         13    1    3    3    0    0 -0.44414428563E+01  0.89613548261E+01  0.19501567595E+02  0.21916993546E+02  0.10570000000E+00 0.  1.
<mgrwt>
<rscale>  0 0.20004839E+02</rscale>
<asrwt>0</asrwt>
<pdfrwt beam="2">  1        4 0.37423146E-03 0.20004839E+02</pdfrwt>
<pdfrwt beam="1">  1       -4 0.63276601E-02 0.20004839E+02</pdfrwt>
<totfact> 0.11794086E+06</totfact>
</mgrwt>
</event>
<event>
 4    1  0.5861434E-007  0.2144064E+02  0.7818608E-02  0.1718109E+00
          4   -1    0    0  501    0  0.00000000000E+00  0.00000000000E+00  0.12088256870E+01  0.18648483964E+01  0.14200000000E+01 0.  1.
         -4   -1    0    0    0  501 -0.00000000000E+00 -0.00000000000E+00 -0.74116138559E+02  0.74129740287E+02  0.14200000000E+01 0. -1.
        -13    1    1    2    0    0 -0.10541403100E+02 -0.45350058933E+00 -0.29740474998E+02  0.31556835515E+02  0.10570000000E+00 0. -1.
         13    1    1    2    0    0  0.10541403100E+02  0.45350058933E+00 -0.43166837874E+02  0.44437753168E+02  0.10570000000E+00 0.  1.
<mgrwt>
<rscale>  0 0.21440645E+02</rscale>
<asrwt>0</asrwt>
<pdfrwt beam="1">  1        4 0.23748281E-03 0.21440645E+02</pdfrwt>
<pdfrwt beam="2">  1       -4 0.11453990E-01 0.21440645E+02</pdfrwt>
<totfact> 0.91549483E+05</totfact>
</mgrwt>
</event>
<event>
 5    1  0.4710515E-007  0.2000119E+02  0.7818608E-02  0.1745304E+00
          4   -1    0    0  501    0  0.00000000000E+00  0.00000000000E+00  0.37349071158E+01  0.39957391261E+01  0.14200000000E+01 0.  1.
         -4   -1    0    0    0  501 -0.00000000000E+00 -0.00000000000E+00 -0.25592957954E+02  0.25632321331E+02  0.14200000000E+01 0. -1.
       1023    2    1    2    0    0  0.00000000000E+00  0.00000000000E+00 -0.21858050838E+02  0.29628060457E+02  0.20001189465E+02 0.  0.
        -13    1    3    3    0    0 -0.99258171238E+01 -0.12158666782E+01 -0.10963612205E+02  0.14839546571E+02  0.10570000000E+00 0.  1.
         13    1    3    3    0    0  0.99258171238E+01  0.12158666782E+01 -0.10894438633E+02  0.14788513886E+02  0.10570000000E+00 0. -1.
<mgrwt>
<rscale>  0 0.20001189E+02</rscale>
<asrwt>0</asrwt>
<pdfrwt beam="1">  1        4 0.59769306E-03 0.20001189E+02</pdfrwt>
<pdfrwt beam="2">  1       -4 0.39604700E-02 0.20001189E+02</pdfrwt>
<totfact> 0.12473705E+06</totfact>
</mgrwt>
</event>
<event>
 5    1  0.4873122E-007  0.2000318E+02  0.7818608E-02  0.1745265E+00
         -4   -1    0    0    0  501 -0.00000000000E+00  0.00000000000E+00  0.17778149273E+02  0.17834769176E+02  0.14200000000E+01 0. -1.
          4   -1    0    0  501    0  0.00000000000E+00 -0.00000000000E+00 -0.54703094886E+01  0.56516091426E+01  0.14200000000E+01 0.  1.
       1023    2    1    2    0    0  0.00000000000E+00  0.00000000000E+00  0.12307839784E+02  0.23486378319E+02  0.20003175907E+02 0.  0.
        -13    1    3    3    0    0  0.41256884591E+01 -0.91093790562E+01  0.63136064567E+01  0.11826871566E+02  0.10570000000E+00 0. -1.
         13    1    3    3    0    0 -0.41256884591E+01  0.91093790562E+01  0.59942333276E+01  0.11659506753E+02  0.10570000000E+00 0.  1.
<mgrwt>
<rscale>  0 0.20003176E+02</rscale>
<asrwt>0</asrwt>
<pdfrwt beam="2">  1        4 0.85988758E-03 0.20003176E+02</pdfrwt>
<pdfrwt beam="1">  1       -4 0.27534014E-02 0.20003176E+02</pdfrwt>
<totfact> 0.12806695E+06</totfact>
</mgrwt>
</event>
<event>
 5    1  0.4710515E-007  0.2000381E+02  0.7818608E-02  0.1745252E+00
          4   -1    0    0  501    0  0.00000000000E+00  0.00000000000E+00  0.16000885084E+02  0.16063770525E+02  0.14200000000E+01 0. -1.
         -4   -1    0    0    0  501 -0.00000000000E+00 -0.00000000000E+00 -0.60951144468E+01  0.62583400450E+01  0.14200000000E+01 0.  1.
       1023    2    1    2    0    0  0.00000000000E+00  0.00000000000E+00  0.99057706371E+01  0.22322110570E+02  0.20003807847E+02 0.  0.
        -13    1    3    3    0    0 -0.95320506829E+01 -0.30270204397E+01  0.48817245989E+01  0.11129476651E+02  0.10570000000E+00 0. -1.
         13    1    3    3    0    0  0.95320506829E+01  0.30270204397E+01  0.50240460381E+01  0.11192633919E+02  0.10570000000E+00 0.  1.
<mgrwt>
<rscale>  0 0.20003808E+02</rscale>
<asrwt>0</asrwt>
<pdfrwt beam="1">  1        4 0.24790678E-02 0.20003808E+02</pdfrwt>
<pdfrwt beam="2">  1       -4 0.95510306E-03 0.20003808E+02</pdfrwt>
<totfact> 0.12872573E+06</totfact>
</mgrwt>
</event>
<event>
 5    1  0.4759619E-007  0.2000462E+02  0.7818608E-02  0.1745236E+00
         -4   -1    0    0    0  501 -0.00000000000E+00  0.00000000000E+00  0.33712802905E+01  0.36581321460E+01  0.14200000000E+01 0. -1.
          4   -1    0    0  501    0  0.00000000000E+00 -0.00000000000E+00 -0.28159563946E+02  0.28195344326E+02  0.14200000000E+01 0.  1.
       1023    2    1    2    0    0  0.00000000000E+00  0.00000000000E+00 -0.24788283656E+02  0.31853476472E+02  0.20004623384E+02 0.  0.
        -13    1    3    3    0    0 -0.75000827646E+01  0.66148967783E+01 -0.12132664913E+02  0.15723257653E+02  0.10570000000E+00 0. -1.
         13    1    3    3    0    0  0.75000827646E+01 -0.66148967783E+01 -0.12655618743E+02  0.16130218818E+02  0.10570000000E+00 0.  1.
<mgrwt>
<rscale>  0 0.20004623E+02</rscale>
<asrwt>0</asrwt>
<pdfrwt beam="2">  1        4 0.43570583E-02 0.20004623E+02</pdfrwt>
<pdfrwt beam="1">  1       -4 0.54347639E-03 0.20004623E+02</pdfrwt>
<totfact> 0.12354155E+06</totfact>
</mgrwt>
</event>
<event>
 5    1  0.5082464E-007  0.2000141E+02  0.7818608E-02  0.1745300E+00
          4   -1    0    0  501    0  0.00000000000E+00  0.00000000000E+00  0.22505868328E+02  0.22550621038E+02  0.14200000000E+01 0.  1.
         -4   -1    0    0    0  501 -0.00000000000E+00 -0.00000000000E+00 -0.42799255063E+01  0.45093416748E+01  0.14200000000E+01 0. -1.
       1023    2    1    2    0    0  0.00000000000E+00  0.00000000000E+00  0.18225942822E+02  0.27059962713E+02  0.20001414707E+02 0.  0.
        -13    1    3    3    0    0  0.98524828984E+01 -0.17119606875E+01  0.90760091692E+01  0.13505085842E+02  0.10570000000E+00 0.  1.
         13    1    3    3    0    0 -0.98524828984E+01  0.17119606875E+01  0.91499336528E+01  0.13554876871E+02  0.10570000000E+00 0. -1.
<mgrwt>
<rscale>  0 0.20001415E+02</rscale>
<asrwt>0</asrwt>
<pdfrwt beam="1">  1        4 0.34835312E-02 0.20001415E+02</pdfrwt>
<pdfrwt beam="2">  1       -4 0.67953999E-03 0.20001415E+02</pdfrwt>
<totfact> 0.12610426E+06</totfact>
</mgrwt>
</event>
<event>
 4    1  0.6104445E-007  0.2026284E+02  0.7818608E-02  0.1740151E+00
          4   -1    0    0  501    0  0.00000000000E+00  0.00000000000E+00  0.92351172896E+00  0.16938931234E+01  0.14200000000E+01 0.  1.
         -4   -1    0    0    0  501 -0.00000000000E+00 -0.00000000000E+00 -0.77654373731E+02  0.77667355817E+02  0.14200000000E+01 0. -1.
        -13    1    1    2    0    0  0.97704142432E+01 -0.23031920255E+01 -0.33011289589E+02  0.34503943265E+02  0.10570000000E+00 0. -1.
         13    1    1    2    0    0 -0.97704142432E+01  0.23031920255E+01 -0.43719572413E+02  0.44857305675E+02  0.10570000000E+00 0.  1.
<mgrwt>
<rscale>  0 0.20262839E+02</rscale>
<asrwt>0</asrwt>
<pdfrwt beam="1">  1        4 0.20233752E-03 0.20262839E+02</pdfrwt>
<pdfrwt beam="2">  1       -4 0.12007082E-01 0.20262839E+02</pdfrwt>
<totfact> 0.10162273E+06</totfact>
</mgrwt>
</event>
<event>
 5    1  0.4710515E-007  0.2000203E+02  0.7818608E-02  0.1745288E+00
         -4   -1    0    0    0  501 -0.00000000000E+00  0.00000000000E+00  0.59031850468E+01  0.60715725885E+01  0.14200000000E+01 0. -1.
          4   -1    0    0  501    0  0.00000000000E+00 -0.00000000000E+00 -0.16505887967E+02  0.16566856599E+02  0.14200000000E+01 0.  1.
       1023    2    1    2    0    0  0.00000000000E+00  0.00000000000E+00 -0.10602702920E+02  0.22638429187E+02  0.20002029069E+02 0.  0.
        -13    1    3    3    0    0 -0.88696633084E+01 -0.46191081137E+01 -0.52503289903E+01  0.11295318232E+02  0.10570000000E+00 0. -1.
         13    1    3    3    0    0  0.88696633084E+01  0.46191081137E+01 -0.53523739296E+01  0.11343110955E+02  0.10570000000E+00 0.  1.
<mgrwt>
<rscale>  0 0.20002029E+02</rscale>
<asrwt>0</asrwt>
<pdfrwt beam="2">  1        4 0.25570101E-02 0.20002029E+02</pdfrwt>
<pdfrwt beam="1">  1       -4 0.92582511E-03 0.20002029E+02</pdfrwt>
<totfact> 0.12856666E+06</totfact>
</mgrwt>
</event>
<event>
 5    1  0.4710515E-007  0.2000573E+02  0.7818608E-02  0.1745214E+00
         -4   -1    0    0    0  501 -0.00000000000E+00  0.00000000000E+00  0.39911693564E+02  0.39936946342E+02  0.14200000000E+01 0.  1.
          4   -1    0    0  501    0  0.00000000000E+00 -0.00000000000E+00 -0.22776627982E+01  0.26840543628E+01  0.14200000000E+01 0. -1.
       1023    2    1    2    0    0  0.00000000000E+00  0.00000000000E+00  0.37634030765E+02  0.42621000705E+02  0.20005734913E+02 0.  0.
        -13    1    3    3    0    0 -0.58035932843E+01  0.81453847168E+01  0.18537629835E+02  0.21063804965E+02  0.10570000000E+00 0. -1.
         13    1    3    3    0    0  0.58035932843E+01 -0.81453847168E+01  0.19096400930E+02  0.21557195740E+02  0.10570000000E+00 0.  1.
<mgrwt>
<rscale>  0 0.20005735E+02</rscale>
<asrwt>0</asrwt>
<pdfrwt beam="2">  1        4 0.38361308E-03 0.20005735E+02</pdfrwt>
<pdfrwt beam="1">  1       -4 0.61734638E-02 0.20005735E+02</pdfrwt>
<totfact> 0.11835448E+06</totfact>
</mgrwt>
</event>
<event>
 4    1  0.4710515E-007  0.2011340E+02  0.7818608E-02  0.1743082E+00
         -4   -1    0    0    0  501 -0.00000000000E+00  0.00000000000E+00  0.14941609412E+01  0.20612901101E+01  0.14200000000E+01 0. -1.
          4   -1    0    0  501    0  0.00000000000E+00 -0.00000000000E+00 -0.56313860576E+02  0.56331760961E+02  0.14200000000E+01 0.  1.
        -13    1    1    2    0    0  0.99677809552E+01 -0.95474032045E+00 -0.30098834291E+02  0.31720958126E+02  0.10570000000E+00 0. -1.
         13    1    1    2    0    0 -0.99677809552E+01  0.95474032045E+00 -0.24720865343E+02  0.26672092945E+02  0.10570000000E+00 0.  1.
<mgrwt>
<rscale>  0 0.20113402E+02</rscale>
<asrwt>0</asrwt>
<pdfrwt beam="2">  1        4 0.87086718E-02 0.20113402E+02</pdfrwt>
<pdfrwt beam="1">  1       -4 0.27487323E-03 0.20113402E+02</pdfrwt>
<totfact> 0.11054311E+06</totfact>
</mgrwt>
</event>
<event>
 5    1  0.4710515E-007  0.2000848E+02  0.7818608E-02  0.1745159E+00
         -4   -1    0    0    0  501 -0.00000000000E+00  0.00000000000E+00  0.73261597853E+01  0.74625074338E+01  0.14200000000E+01 0. -1.
          4   -1    0    0  501    0  0.00000000000E+00 -0.00000000000E+00 -0.13361025167E+02  0.13436271563E+02  0.14200000000E+01 0.  1.
       1023    2    1    2    0    0  0.00000000000E+00  0.00000000000E+00 -0.60348653819E+01  0.20898778997E+02  0.20008482286E+02 0.  0.
        -13    1    3    3    0    0  0.68903003882E+01 -0.72515992358E+01 -0.29042725595E+01  0.10416712654E+02  0.10570000000E+00 0. -1.
         13    1    3    3    0    0 -0.68903003882E+01  0.72515992358E+01 -0.31305928223E+01  0.10482066343E+02  0.10570000000E+00 0.  1.
<mgrwt>
<rscale>  0 0.20008482E+02</rscale>
<asrwt>0</asrwt>
<pdfrwt beam="2">  1        4 0.20718188E-02 0.20008482E+02</pdfrwt>
<pdfrwt beam="1">  1       -4 0.11433780E-02 0.20008482E+02</pdfrwt>
<totfact> 0.12949521E+06</totfact>
</mgrwt>
</event>
<event>
 5    1  0.4710515E-007  0.2000863E+02  0.7818608E-02  0.1745156E+00
          4   -1    0    0  501    0  0.00000000000E+00  0.00000000000E+00  0.20646451345E+01  0.25058251199E+01  0.14200000000E+01 0.  1.
         -4   -1    0    0    0  501 -0.00000000000E+00 -0.00000000000E+00 -0.43343029159E+02  0.43366283870E+02  0.14200000000E+01 0. -1.
       1023    2    1    2    0    0  0.00000000000E+00  0.00000000000E+00 -0.41278384024E+02  0.45872108989E+02  0.20008633024E+02 0.  0.
        -13    1    3    3    0    0  0.85277818426E+01  0.52232544267E+01 -0.20033809351E+02  0.22391296067E+02  0.10570000000E+00 0.  1.
         13    1    3    3    0    0 -0.85277818426E+01 -0.52232544267E+01 -0.21244574673E+02  0.23480812922E+02  0.10570000000E+00 0. -1.
<mgrwt>
<rscale>  0 0.20008633E+02</rscale>
<asrwt>0</asrwt>
<pdfrwt beam="1">  1        4 0.35336349E-03 0.20008633E+02</pdfrwt>
<pdfrwt beam="2">  1       -4 0.67038834E-02 0.20008633E+02</pdfrwt>
<totfact> 0.11687223E+06</totfact>
</mgrwt>
</event>
<event>
 5    1  0.4710515E-007  0.2000300E+02  0.7818608E-02  0.1745268E+00
          4   -1    0    0  501    0  0.00000000000E+00  0.00000000000E+00  0.68320872647E+01  0.69780954703E+01  0.14200000000E+01 0.  1.
         -4   -1    0    0    0  501 -0.00000000000E+00 -0.00000000000E+00 -0.14304878994E+02  0.14375185670E+02  0.14200000000E+01 0. -1.
       1023    2    1    2    0    0  0.00000000000E+00  0.00000000000E+00 -0.74727917295E+01  0.21353281140E+02  0.20002999755E+02 0.  0.
        -13    1    3    3    0    0  0.91014036965E+01 -0.41446603355E+01 -0.38123971209E+01  0.10703237961E+02  0.10570000000E+00 0. -1.
         13    1    3    3    0    0 -0.91014036965E+01  0.41446603355E+01 -0.36603946086E+01  0.10650043179E+02  0.10570000000E+00 0.  1.
<mgrwt>
<rscale>  0 0.20003000E+02</rscale>
<asrwt>0</asrwt>
<pdfrwt beam="1">  1        4 0.10677300E-02 0.20003000E+02</pdfrwt>
<pdfrwt beam="2">  1       -4 0.22173902E-02 0.20003000E+02</pdfrwt>
<totfact> 0.12930005E+06</totfact>
</mgrwt>
</event>
<event>
 5    1  0.4710515E-007  0.2000199E+02  0.7818608E-02  0.1745288E+00
         -4   -1    0    0    0  501 -0.00000000000E+00  0.00000000000E+00  0.14248321899E+01  0.20116030348E+01  0.14200000000E+01 0. -1.
          4   -1    0    0  501    0  0.00000000000E+00 -0.00000000000E+00 -0.57614435907E+02  0.57631932337E+02  0.14200000000E+01 0.  1.
       1023    2    1    2    0    0  0.00000000000E+00  0.00000000000E+00 -0.56189603717E+02  0.59643535372E+02  0.20001993544E+02 0.  0.
        -13    1    3    3    0    0 -0.66373855810E+01  0.74799016531E+01 -0.27885053470E+02  0.29624165737E+02  0.10570000000E+00 0. -1.
         13    1    3    3    0    0  0.66373855810E+01 -0.74799016531E+01 -0.28304550247E+02  0.30019369634E+02  0.10570000000E+00 0.  1.
<mgrwt>
<rscale>  0 0.20001994E+02</rscale>
<asrwt>0</asrwt>
<pdfrwt beam="2">  1        4 0.89102400E-02 0.20001994E+02</pdfrwt>
<pdfrwt beam="1">  1       -4 0.26568709E-03 0.20001994E+02</pdfrwt>
<totfact> 0.11130330E+06</totfact>
</mgrwt>
</event>
<event>
 5    1  0.4710515E-007  0.2000222E+02  0.7818608E-02  0.1745284E+00
          4   -1    0    0  501    0  0.00000000000E+00  0.00000000000E+00  0.26644623546E+02  0.26682435495E+02  0.14200000000E+01 0.  1.
         -4   -1    0    0    0  501 -0.00000000000E+00 -0.00000000000E+00 -0.35776109431E+01  0.38491167897E+01  0.14200000000E+01 0. -1.
       1023    2    1    2    0    0  0.00000000000E+00  0.00000000000E+00  0.23067012603E+02  0.30531552284E+02  0.20002215239E+02 0.  0.
        -13    1    3    3    0    0  0.78150747869E+01 -0.62392104426E+01  0.11398350154E+02  0.15163663792E+02  0.10570000000E+00 0.  1.
         13    1    3    3    0    0 -0.78150747869E+01  0.62392104426E+01  0.11668662449E+02  0.15367888493E+02  0.10570000000E+00 0. -1.
<mgrwt>
<rscale>  0 0.20002215E+02</rscale>
<asrwt>0</asrwt>
<pdfrwt beam="1">  1        4 0.41229663E-02 0.20002215E+02</pdfrwt>
<pdfrwt beam="2">  1       -4 0.57419540E-03 0.20002215E+02</pdfrwt>
<totfact> 0.12425274E+06</totfact>
</mgrwt>
</event>
<event>
 5    1  0.4710515E-007  0.2000453E+02  0.7818608E-02  0.1745238E+00
          4   -1    0    0  501    0  0.00000000000E+00  0.00000000000E+00  0.79441811996E+02  0.79454502033E+02  0.14200000000E+01 0. -1.
         -4   -1    0    0    0  501 -0.00000000000E+00 -0.00000000000E+00 -0.84212733414E+00  0.16509325991E+01  0.14200000000E+01 0.  1.
       1023    2    1    2    0    0  0.00000000000E+00  0.00000000000E+00  0.78599684662E+02  0.81105434632E+02  0.20004526933E+02 0.  0.
        -13    1    3    3    0    0  0.85795539184E+01  0.51380836743E+01  0.39946669794E+02  0.41179561064E+02  0.10570000000E+00 0. -1.
         13    1    3    3    0    0 -0.85795539184E+01 -0.51380836743E+01  0.38653014868E+02  0.39925873568E+02  0.10570000000E+00 0.  1.
<mgrwt>
<rscale>  0 0.20004527E+02</rscale>
<asrwt>0</asrwt>
<pdfrwt beam="1">  1        4 0.12285009E-01 0.20004527E+02</pdfrwt>
<pdfrwt beam="2">  1       -4 0.19275000E-03 0.20004527E+02</pdfrwt>
<totfact> 0.10370476E+06</totfact>
</mgrwt>
</event>
<event>
 4    1  0.4710515E-007  0.2184376E+02  0.7818608E-02  0.1710968E+00
          4   -1    0    0  501    0  0.00000000000E+00  0.00000000000E+00  0.11077884029E+03  0.11078794093E+03  0.14200000000E+01 0. -1.
         -4   -1    0    0    0  501 -0.00000000000E+00 -0.00000000000E+00 -0.59548174018E+00  0.15398046963E+01  0.14200000000E+01 0. -1.
        -13    1    1    2    0    0 -0.18126458936E+01 -0.10764236188E+02  0.56886681297E+02  0.57924607442E+02  0.10570000000E+00 0. -1.
         13    1    1    2    0    0  0.18126458936E+01  0.10764236188E+02  0.53296677249E+02  0.54403138182E+02  0.10570000000E+00 0.  1.
<mgrwt>
<rscale>  0 0.21843762E+02</rscale>
<asrwt>0</asrwt>
<pdfrwt beam="1">  1        4 0.17116240E-01 0.21843762E+02</pdfrwt>
<pdfrwt beam="2">  1       -4 0.16495284E-03 0.21843762E+02</pdfrwt>
<totfact> 0.79173948E+05</totfact>
</mgrwt>
</event>
<event>
 5    1  0.4710515E-007  0.2001058E+02  0.7818608E-02  0.1745118E+00
          4   -1    0    0  501    0  0.00000000000E+00  0.00000000000E+00  0.45142971035E+02  0.45165299001E+02  0.14200000000E+01 0. -1.
         -4   -1    0    0    0  501 -0.00000000000E+00 -0.00000000000E+00 -0.19648942107E+01  0.24242956212E+01  0.14200000000E+01 0. -1.
       1023    2    1    2    0    0  0.00000000000E+00  0.00000000000E+00  0.43178076824E+02  0.47589594622E+02  0.20010577155E+02 0.  0.
        -13    1    3    3    0    0  0.97085358024E+01 -0.24162769376E+01  0.21645586241E+02  0.23846103201E+02  0.10570000000E+00 0.  1.
         13    1    3    3    0    0 -0.97085358024E+01  0.24162769376E+01  0.21532490583E+02  0.23743491421E+02  0.10570000000E+00 0. -1.
<mgrwt>
<rscale>  0 0.20010577E+02</rscale>
<asrwt>0</asrwt>
<pdfrwt beam="1">  1        4 0.69821284E-02 0.20010577E+02</pdfrwt>
<pdfrwt beam="2">  1       -4 0.33934753E-03 0.20010577E+02</pdfrwt>
<totfact> 0.11610399E+06</totfact>
</mgrwt>
</event>
<event>
 4    1  0.5628145E-007  0.2303570E+02  0.7818608E-02  0.1690932E+00
          4   -1    0    0  501    0  0.00000000000E+00  0.00000000000E+00  0.63197970539E+01  0.64773632601E+01  0.14200000000E+01 0.  1.
         -4   -1    0    0    0  501 -0.00000000000E+00 -0.00000000000E+00 -0.20550490778E+02  0.20599492014E+02  0.14200000000E+01 0. -1.
        -13    1    1    2    0    0  0.75895607729E+01  0.85196071882E+01 -0.52700525544E+01  0.12568602380E+02  0.10570000000E+00 0. -1.
         13    1    1    2    0    0 -0.75895607729E+01 -0.85196071882E+01 -0.89606411696E+01  0.14508252894E+02  0.10570000000E+00 0.  1.
<mgrwt>
<rscale>  0 0.23035699E+02</rscale>
<asrwt>0</asrwt>
<pdfrwt beam="1">  1        4 0.98816628E-03 0.23035699E+02</pdfrwt>
<pdfrwt beam="2">  1       -4 0.31775037E-02 0.23035699E+02</pdfrwt>
<totfact> 0.93962690E+05</totfact>
</mgrwt>
</event>
<event>
 4    1  0.4710515E-007  0.2003588E+02  0.7818608E-02  0.1744615E+00
         -4   -1    0    0    0  501 -0.00000000000E+00  0.00000000000E+00  0.82442405793E+01  0.83656382141E+01  0.14200000000E+01 0. -1.
          4   -1    0    0  501    0  0.00000000000E+00 -0.00000000000E+00 -0.11920429319E+02  0.12004708874E+02  0.14200000000E+01 0.  1.
        -13    1    1    2    0    0 -0.98199563077E+01  0.19674607087E+01 -0.20550891720E+01  0.10224334087E+02  0.10570000000E+00 0. -1.
         13    1    1    2    0    0  0.98199563077E+01 -0.19674607087E+01 -0.16210995679E+01  0.10146013001E+02  0.10570000000E+00 0.  1.
<mgrwt>
<rscale>  0 0.20035885E+02</rscale>
<asrwt>0</asrwt>
<pdfrwt beam="2">  1        4 0.18497335E-02 0.20035885E+02</pdfrwt>
<pdfrwt beam="1">  1       -4 0.12841660E-02 0.20035885E+02</pdfrwt>
<totfact> 0.12944549E+06</totfact>
</mgrwt>
</event>
<event>
 4    1  0.4710515E-007  0.2005774E+02  0.7818608E-02  0.1744182E+00
          4   -1    0    0  501    0  0.00000000000E+00  0.00000000000E+00  0.13618012994E+01  0.19674609981E+01  0.14200000000E+01 0.  1.
         -4   -1    0    0    0  501 -0.00000000000E+00 -0.00000000000E+00 -0.59805137922E+02  0.59821993630E+02  0.14200000000E+01 0. -1.
        -13    1    1    2    0    0  0.22288665850E+01 -0.97510441617E+01 -0.31435393333E+02  0.32988571278E+02  0.10570000000E+00 0. -1.
         13    1    1    2    0    0 -0.22288665850E+01  0.97510441617E+01 -0.27007943290E+02  0.28800883350E+02  0.10570000000E+00 0.  1.
<mgrwt>
<rscale>  0 0.20057744E+02</rscale>
<asrwt>0</asrwt>
<pdfrwt beam="1">  1        4 0.25739374E-03 0.20057744E+02</pdfrwt>
<pdfrwt beam="2">  1       -4 0.92486746E-02 0.20057744E+02</pdfrwt>
<totfact> 0.10986778E+06</totfact>
</mgrwt>
</event>
<event>
 5    1  0.5037885E-007  0.2000147E+02  0.7818608E-02  0.1745299E+00
         -4   -1    0    0    0  501 -0.00000000000E+00  0.00000000000E+00  0.20236535533E+01  0.24721597246E+01  0.14200000000E+01 0.  1.
          4   -1    0    0  501    0  0.00000000000E+00 -0.00000000000E+00 -0.44031287378E+02  0.44054178782E+02  0.14200000000E+01 0. -1.
       1023    2    1    2    0    0  0.00000000000E+00  0.00000000000E+00 -0.42007633825E+02  0.46526338507E+02  0.20001471828E+02 0.  0.
        -13    1    3    3    0    0  0.26283819795E+01 -0.96484880262E+01 -0.21103415938E+02  0.23353095079E+02  0.10570000000E+00 0. -1.
         13    1    3    3    0    0 -0.26283819795E+01  0.96484880262E+01 -0.20904217887E+02  0.23173243428E+02  0.10570000000E+00 0.  1.
<mgrwt>
<rscale>  0 0.20001472E+02</rscale>
<asrwt>0</asrwt>
<pdfrwt beam="2">  1        4 0.68103049E-02 0.20001472E+02</pdfrwt>
<pdfrwt beam="1">  1       -4 0.34759270E-03 0.20001472E+02</pdfrwt>
<totfact> 0.11667106E+06</totfact>
</mgrwt>
</event>
<event>
 5    1  0.4710515E-007  0.2000670E+02  0.7818608E-02  0.1745195E+00
          4   -1    0    0  501    0  0.00000000000E+00  0.00000000000E+00  0.88274018762E+02  0.88285439277E+02  0.14200000000E+01 0. -1.
         -4   -1    0    0    0  501 -0.00000000000E+00 -0.00000000000E+00 -0.67281358494E+00  0.15713300481E+01  0.14200000000E+01 0.  1.
       1023    2    1    2    0    0  0.00000000000E+00  0.00000000000E+00  0.87601205177E+02  0.89856769325E+02  0.20006695008E+02 0.  0.
        -13    1    3    3    0    0  0.94499411203E+01  0.32762124358E+01  0.43152328628E+02  0.44296383528E+02  0.10570000000E+00 0.  1.
         13    1    3    3    0    0 -0.94499411203E+01 -0.32762124358E+01  0.44448876549E+02  0.45560385798E+02  0.10570000000E+00 0. -1.
<mgrwt>
<rscale>  0 0.20006695E+02</rscale>
<asrwt>0</asrwt>
<pdfrwt beam="1">  1        4 0.13650617E-01 0.20006695E+02</pdfrwt>
<pdfrwt beam="2">  1       -4 0.17350489E-03 0.20006695E+02</pdfrwt>
<totfact> 0.10093317E+06</totfact>
</mgrwt>
</event>
<event>
 5    1  0.4710515E-007  0.2000262E+02  0.7818608E-02  0.1745276E+00
         -4   -1    0    0    0  501 -0.00000000000E+00  0.00000000000E+00  0.34638231336E+02  0.34667325685E+02  0.14200000000E+01 0. -1.
          4   -1    0    0  501    0  0.00000000000E+00 -0.00000000000E+00 -0.26809383738E+01  0.30337815617E+01  0.14200000000E+01 0. -1.
       1023    2    1    2    0    0  0.00000000000E+00  0.00000000000E+00  0.31957292963E+02  0.37701107246E+02  0.20002622680E+02 0.  0.
        -13    1    3    3    0    0  0.98638061413E+01 -0.16453348123E+01  0.16195667997E+02  0.19034511620E+02  0.10570000000E+00 0.  1.
         13    1    3    3    0    0 -0.98638061413E+01  0.16453348123E+01  0.15761624965E+02  0.18666595626E+02  0.10570000000E+00 0. -1.
<mgrwt>
<rscale>  0 0.20002623E+02</rscale>
<asrwt>0</asrwt>
<pdfrwt beam="2">  1        4 0.44183186E-03 0.20002623E+02</pdfrwt>
<pdfrwt beam="1">  1       -4 0.53583386E-02 0.20002623E+02</pdfrwt>
<totfact> 0.12067778E+06</totfact>
</mgrwt>
</event>
<event>
 5    1  0.4710515E-007  0.2000214E+02  0.7818608E-02  0.1745286E+00
         -4   -1    0    0    0  501 -0.00000000000E+00  0.00000000000E+00  0.54205274718E+00  0.15199411767E+01  0.14200000000E+01 0. -1.
          4   -1    0    0  501    0  0.00000000000E+00 -0.00000000000E+00 -0.96028610086E+02  0.96039108467E+02  0.14200000000E+01 0.  1.
       1023    2    1    2    0    0  0.00000000000E+00  0.00000000000E+00 -0.95486557339E+02  0.97559049644E+02  0.20002138258E+02 0.  0.
        -13    1    3    3    0    0  0.99975789616E+01 -0.23516963236E+00 -0.48024371983E+02  0.49054646739E+02  0.10570000000E+00 0. -1.
         13    1    3    3    0    0 -0.99975789616E+01  0.23516963236E+00 -0.47462185357E+02  0.48504402905E+02  0.10570000000E+00 0.  1.
<mgrwt>
<rscale>  0 0.20002138E+02</rscale>
<asrwt>0</asrwt>
<pdfrwt beam="2">  1        4 0.14849655E-01 0.20002138E+02</pdfrwt>
<pdfrwt beam="1">  1       -4 0.15942256E-03 0.20002138E+02</pdfrwt>
<totfact> 0.98692099E+05</totfact>
</mgrwt>
</event>
<event>
 5    1  0.4710515E-007  0.2000119E+02  0.7818608E-02  0.1745304E+00
          4   -1    0    0  501    0  0.00000000000E+00  0.00000000000E+00  0.14734695924E+02  0.14802961324E+02  0.14200000000E+01 0.  1.
         -4   -1    0    0    0  501 -0.00000000000E+00 -0.00000000000E+00 -0.66281818646E+01  0.67785835415E+01  0.14200000000E+01 0. -1.
       1023    2    1    2    0    0  0.00000000000E+00  0.00000000000E+00  0.81065140591E+01  0.21581544866E+02  0.20001187680E+02 0.  0.
        -13    1    3    3    0    0 -0.46817057459E+01 -0.88364059254E+01  0.40356492903E+01  0.10784158570E+02  0.10570000000E+00 0. -1.
         13    1    3    3    0    0  0.46817057459E+01  0.88364059254E+01  0.40708647687E+01  0.10797386296E+02  0.10570000000E+00 0.  1.
<mgrwt>
<rscale>  0 0.20001188E+02</rscale>
<asrwt>0</asrwt>
<pdfrwt beam="1">  1        4 0.22836969E-02 0.20001188E+02</pdfrwt>
<pdfrwt beam="2">  1       -4 0.10365408E-02 0.20001188E+02</pdfrwt>
<totfact> 0.12919031E+06</totfact>
</mgrwt>
</event>
<event>
 4    1  0.4767881E-007  0.2001425E+02  0.7818608E-02  0.1745045E+00
         -4   -1    0    0    0  501 -0.00000000000E+00  0.00000000000E+00  0.27155225663E+02  0.27192327610E+02  0.14200000000E+01 0.  1.
          4   -1    0    0  501    0  0.00000000000E+00 -0.00000000000E+00 -0.35098856652E+01  0.37862510987E+01  0.14200000000E+01 0. -1.
        -13    1    1    2    0    0 -0.99976735391E+01  0.36451526398E+00  0.11494185250E+02  0.15238563404E+02  0.10570000000E+00 0. -1.
         13    1    1    2    0    0  0.99976735391E+01 -0.36451526398E+00  0.12151154748E+02  0.15740015304E+02  0.10570000000E+00 0.  1.
<mgrwt>
<rscale>  0 0.20014251E+02</rscale>
<asrwt>0</asrwt>
<pdfrwt beam="2">  1        4 0.56409529E-03 0.20014251E+02</pdfrwt>
<pdfrwt beam="1">  1       -4 0.42018398E-02 0.20014251E+02</pdfrwt>
<totfact> 0.12387005E+06</totfact>
</mgrwt>
</event>
<event>
 5    1  0.4710515E-007  0.2000142E+02  0.7818608E-02  0.1745300E+00
          4   -1    0    0  501    0  0.00000000000E+00  0.00000000000E+00  0.94494392890E+02  0.94505061704E+02  0.14200000000E+01 0. -1.
         -4   -1    0    0    0  501 -0.00000000000E+00 -0.00000000000E+00 -0.56649062948E+00  0.15288268814E+01  0.14200000000E+01 0.  1.
       1023    2    1    2    0    0  0.00000000000E+00  0.00000000000E+00  0.93927902261E+02  0.96033888585E+02  0.20001423293E+02 0.  0.
        -13    1    3    3    0    0 -0.22944656618E+01 -0.97333202380E+01  0.47113134712E+02  0.48162856336E+02  0.10570000000E+00 0. -1.
         13    1    3    3    0    0  0.22944656618E+01  0.97333202380E+01  0.46814767549E+02  0.47871032250E+02  0.10570000000E+00 0.  1.
<mgrwt>
<rscale>  0 0.20001423E+02</rscale>
<asrwt>0</asrwt>
<pdfrwt beam="1">  1        4 0.14612449E-01 0.20001423E+02</pdfrwt>
<pdfrwt beam="2">  1       -4 0.16199891E-03 0.20001423E+02</pdfrwt>
<totfact> 0.99142622E+05</totfact>
</mgrwt>
</event>
<event>
 5    1  0.4710515E-007  0.2000786E+02  0.7818608E-02  0.1745172E+00
          4   -1    0    0  501    0  0.00000000000E+00  0.00000000000E+00  0.40555864262E+02  0.40580716185E+02  0.14200000000E+01 0. -1.
         -4   -1    0    0    0  501 -0.00000000000E+00 -0.00000000000E+00 -0.22355740380E+01  0.26484318529E+01  0.14200000000E+01 0.  1.
       1023    2    1    2    0    0  0.00000000000E+00  0.00000000000E+00  0.38320290224E+02  0.43229148038E+02  0.20007863384E+02 0.  0.
        -13    1    3    3    0    0  0.24735135358E+01  0.96911618838E+01  0.18782261423E+02  0.21279600666E+02  0.10570000000E+00 0. -1.
         13    1    3    3    0    0 -0.24735135358E+01 -0.96911618838E+01  0.19538028802E+02  0.21949547372E+02  0.10570000000E+00 0.  1.
<mgrwt>
<rscale>  0 0.20007863E+02</rscale>
<asrwt>0</asrwt>
<pdfrwt beam="1">  1        4 0.62730340E-02 0.20007863E+02</pdfrwt>
<pdfrwt beam="2">  1       -4 0.37760443E-03 0.20007863E+02</pdfrwt>
<totfact> 0.11805447E+06</totfact>
</mgrwt>
</event>
<event>
 5    1  0.4765106E-007  0.2000162E+02  0.7818608E-02  0.1745296E+00
         -4   -1    0    0    0  501 -0.00000000000E+00  0.00000000000E+00  0.21951994452E+01  0.26144407823E+01  0.14200000000E+01 0. -1.
          4   -1    0    0  501    0  0.00000000000E+00 -0.00000000000E+00 -0.41157321277E+02  0.41181810241E+02  0.14200000000E+01 0.  1.
       1023    2    1    2    0    0  0.00000000000E+00  0.00000000000E+00 -0.38962121832E+02  0.43796251023E+02  0.20001616585E+02 0.  0.
        -13    1    3    3    0    0  0.48698782125E+01 -0.87342336697E+01 -0.19589274493E+02  0.21994394724E+02  0.10570000000E+00 0. -1.
         13    1    3    3    0    0 -0.48698782125E+01  0.87342336697E+01 -0.19372847339E+02  0.21801856299E+02  0.10570000000E+00 0.  1.
<mgrwt>
<rscale>  0 0.20001617E+02</rscale>
<asrwt>0</asrwt>
<pdfrwt beam="2">  1        4 0.63660281E-02 0.20001617E+02</pdfrwt>
<pdfrwt beam="1">  1       -4 0.37185612E-03 0.20001617E+02</pdfrwt>
<totfact> 0.11787442E+06</totfact>
</mgrwt>
</event>
<event>
 5    1  0.4710515E-007  0.2000283E+02  0.7818608E-02  0.1745272E+00
         -4   -1    0    0    0  501 -0.00000000000E+00  0.00000000000E+00  0.59293014748E+00  0.15388197295E+01  0.14200000000E+01 0.  1.
          4   -1    0    0  501    0  0.00000000000E+00 -0.00000000000E+00 -0.92892478698E+02  0.92903331472E+02  0.14200000000E+01 0. -1.
       1023    2    1    2    0    0  0.00000000000E+00  0.00000000000E+00 -0.92299548550E+02  0.94442151202E+02  0.20002831324E+02 0.  0.
        -13    1    3    3    0    0 -0.25390968553E+01 -0.96727369768E+01 -0.46579640394E+02  0.47641189376E+02  0.10570000000E+00 0. -1.
         13    1    3    3    0    0  0.25390968553E+01  0.96727369768E+01 -0.45719908156E+02  0.46800961825E+02  0.10570000000E+00 0.  1.
<mgrwt>
<rscale>  0 0.20002831E+02</rscale>
<asrwt>0</asrwt>
<pdfrwt beam="2">  1        4 0.14364740E-01 0.20002831E+02</pdfrwt>
<pdfrwt beam="1">  1       -4 0.16481566E-03 0.20002831E+02</pdfrwt>
<totfact> 0.99596353E+05</totfact>
</mgrwt>
</event>
<event>
 5    1  0.4710515E-007  0.2000256E+02  0.7818608E-02  0.1745277E+00
          4   -1    0    0  501    0  0.00000000000E+00  0.00000000000E+00  0.26468655438E+02  0.26506718407E+02  0.14200000000E+01 0. -1.
         -4   -1    0    0    0  501 -0.00000000000E+00 -0.00000000000E+00 -0.36032917772E+01  0.38729977578E+01  0.14200000000E+01 0.  1.
       1023    2    1    2    0    0  0.00000000000E+00  0.00000000000E+00  0.22865363661E+02  0.30379716165E+02  0.20002557309E+02 0.  0.
        -13    1    3    3    0    0  0.55299593898E+01 -0.83327025331E+01  0.11439453531E+02  0.15194954819E+02  0.10570000000E+00 0. -1.
         13    1    3    3    0    0 -0.55299593898E+01  0.83327025331E+01  0.11425910130E+02  0.15184761346E+02  0.10570000000E+00 0.  1.
<mgrwt>
<rscale>  0 0.20002557E+02</rscale>
<asrwt>0</asrwt>
<pdfrwt beam="1">  1        4 0.40957753E-02 0.20002557E+02</pdfrwt>
<pdfrwt beam="2">  1       -4 0.57802713E-03 0.20002557E+02</pdfrwt>
<totfact> 0.12432725E+06</totfact>
</mgrwt>
</event>
<event>
 5    1  0.4710515E-007  0.2000888E+02  0.7818608E-02  0.1745151E+00
          4   -1    0    0  501    0  0.00000000000E+00  0.00000000000E+00  0.11008553709E+03  0.11009469504E+03  0.14200000000E+01 0. -1.
         -4   -1    0    0    0  501 -0.00000000000E+00 -0.00000000000E+00 -0.33984462509E+00  0.14601008079E+01  0.14200000000E+01 0.  1.
       1023    2    1    2    0    0  0.00000000000E+00  0.00000000000E+00  0.10974569246E+03  0.11155479584E+03  0.20008884589E+02 0.  0.
        -13    1    3    3    0    0  0.69510574213E+01  0.71919265708E+01  0.55940710130E+02  0.56827944089E+02  0.10570000000E+00 0.  1.
         13    1    3    3    0    0 -0.69510574213E+01 -0.71919265708E+01  0.53804982330E+02  0.54726851756E+02  0.10570000000E+00 0. -1.
<mgrwt>
<rscale>  0 0.20008885E+02</rscale>
<asrwt>0</asrwt>
<pdfrwt beam="1">  1        4 0.17023115E-01 0.20008885E+02</pdfrwt>
<pdfrwt beam="2">  1       -4 0.13916180E-03 0.20008885E+02</pdfrwt>
<totfact> 0.94755303E+05</totfact>
</mgrwt>
</event>
<event>
 4    1  0.4710515E-007  0.2001476E+02  0.7818608E-02  0.1745035E+00
          4   -1    0    0  501    0  0.00000000000E+00  0.00000000000E+00  0.12776891446E+02  0.12855557360E+02  0.14200000000E+01 0. -1.
         -4   -1    0    0    0  501 -0.00000000000E+00 -0.00000000000E+00 -0.76700944930E+01  0.78004326502E+01  0.14200000000E+01 0.  1.
        -13    1    1    2    0    0  0.85350518140E+01  0.52233141189E+01  0.26356040361E+01  0.10348318751E+02  0.10570000000E+00 0.  1.
         13    1    1    2    0    0 -0.85350518140E+01 -0.52233141189E+01  0.24711929172E+01  0.10307671259E+02  0.10570000000E+00 0. -1.
<mgrwt>
<rscale>  0 0.20014758E+02</rscale>
<asrwt>0</asrwt>
<pdfrwt beam="1">  1        4 0.19817528E-02 0.20014758E+02</pdfrwt>
<pdfrwt beam="2">  1       -4 0.11960918E-02 0.20014758E+02</pdfrwt>
<totfact> 0.12955578E+06</totfact>
</mgrwt>
</event>
<event>
 5    1  0.4710515E-007  0.2000281E+02  0.7818608E-02  0.1745272E+00
          4   -1    0    0  501    0  0.00000000000E+00  0.00000000000E+00  0.10995085262E+03  0.10996002179E+03  0.14200000000E+01 0.  1.
         -4   -1    0    0    0  501 -0.00000000000E+00 -0.00000000000E+00 -0.34073628431E+00  0.14603086028E+01  0.14200000000E+01 0. -1.
       1023    2    1    2    0    0  0.00000000000E+00  0.00000000000E+00  0.10961011634E+03  0.11142033039E+03  0.20002810341E+02 0.  0.
        -13    1    3    3    0    0 -0.98939738191E+01  0.14570842975E+01  0.55116210000E+02  0.56016261833E+02  0.10570000000E+00 0.  1.
         13    1    3    3    0    0  0.98939738191E+01 -0.14570842975E+01  0.54493906339E+02  0.55404068562E+02  0.10570000000E+00 0. -1.
<mgrwt>
<rscale>  0 0.20002810E+02</rscale>
<asrwt>0</asrwt>
<pdfrwt beam="1">  1        4 0.17002330E-01 0.20002810E+02</pdfrwt>
<pdfrwt beam="2">  1       -4 0.13924733E-03 0.20002810E+02</pdfrwt>
<totfact> 0.94848253E+05</totfact>
</mgrwt>
</event>
<event>
 4    1  0.4710515E-007  0.2001780E+02  0.7818608E-02  0.1744974E+00
          4   -1    0    0  501    0  0.00000000000E+00  0.00000000000E+00  0.29207071264E+00  0.14497259400E+01  0.14200000000E+01 0.  1.
         -4   -1    0    0    0  501 -0.00000000000E+00 -0.00000000000E+00 -0.11386339590E+03  0.11387225002E+03  0.14200000000E+01 0. -1.
        -13    1    1    2    0    0  0.96659018206E+01  0.25887736867E+01 -0.57870795610E+02  0.58729648085E+02  0.10570000000E+00 0. -1.
         13    1    1    2    0    0 -0.96659018206E+01 -0.25887736867E+01 -0.55700529575E+02  0.56592327878E+02  0.10570000000E+00 0.  1.
<mgrwt>
<rscale>  0 0.20017798E+02</rscale>
<asrwt>0</asrwt>
<pdfrwt beam="1">  1        4 0.13466553E-03 0.20017798E+02</pdfrwt>
<pdfrwt beam="2">  1       -4 0.17607165E-01 0.20017798E+02</pdfrwt>
<totfact> 0.93686561E+05</totfact>
</mgrwt>
</event>
<event>
 5    1  0.4710515E-007  0.2000388E+02  0.7818608E-02  0.1745251E+00
         -4   -1    0    0    0  501 -0.00000000000E+00  0.00000000000E+00  0.22820249620E+02  0.22864386996E+02  0.14200000000E+01 0. -1.
          4   -1    0    0  501    0  0.00000000000E+00 -0.00000000000E+00 -0.42190088047E+01  0.44515654881E+01  0.14200000000E+01 0.  1.
       1023    2    1    2    0    0  0.00000000000E+00  0.00000000000E+00  0.18601240815E+02  0.27315952485E+02  0.20003877131E+02 0.  0.
        -13    1    3    3    0    0 -0.43271358122E+01 -0.90166895580E+01  0.92282645134E+01  0.13608704323E+02  0.10570000000E+00 0. -1.
         13    1    3    3    0    0  0.43271358122E+01  0.90166895580E+01  0.93729763020E+01  0.13707248162E+02  0.10570000000E+00 0.  1.
<mgrwt>
<rscale>  0 0.20003877E+02</rscale>
<asrwt>0</asrwt>
<pdfrwt beam="2">  1        4 0.67036245E-03 0.20003877E+02</pdfrwt>
<pdfrwt beam="1">  1       -4 0.35320917E-02 0.20003877E+02</pdfrwt>
<totfact> 0.12593408E+06</totfact>
</mgrwt>
</event>
<event>
 5    1  0.4710515E-007  0.2000909E+02  0.7818608E-02  0.1745147E+00
         -4   -1    0    0    0  501 -0.00000000000E+00  0.00000000000E+00  0.22571585535E+01  0.26666767213E+01  0.14200000000E+01 0. -1.
          4   -1    0    0  501    0  0.00000000000E+00 -0.00000000000E+00 -0.40232590516E+02  0.40257642003E+02  0.14200000000E+01 0.  1.
       1023    2    1    2    0    0  0.00000000000E+00  0.00000000000E+00 -0.37975431962E+02  0.42924318724E+02  0.20009090564E+02 0.  0.
        -13    1    3    3    0    0 -0.91486435318E+01 -0.40400424120E+01 -0.19513771056E+02  0.21927563807E+02  0.10570000000E+00 0.  1.
         13    1    3    3    0    0  0.91486435318E+01  0.40400424120E+01 -0.18461660906E+02  0.20996754917E+02  0.10570000000E+00 0. -1.
<mgrwt>
<rscale>  0 0.20009091E+02</rscale>
<asrwt>0</asrwt>
<pdfrwt beam="2">  1        4 0.62230573E-02 0.20009091E+02</pdfrwt>
<pdfrwt beam="1">  1       -4 0.38068363E-03 0.20009091E+02</pdfrwt>
<totfact> 0.11817721E+06</totfact>
</mgrwt>
</event>
<event>
 4    1  0.4710515E-007  0.2004704E+02  0.7818608E-02  0.1744394E+00
         -4   -1    0    0    0  501 -0.00000000000E+00  0.00000000000E+00  0.15518230631E+02  0.15583063945E+02  0.14200000000E+01 0. -1.
          4   -1    0    0  501    0  0.00000000000E+00 -0.00000000000E+00 -0.63170694112E+01  0.64747019967E+01  0.14200000000E+01 0.  1.
        -13    1    1    2    0    0  0.62258828737E+01  0.78480825997E+01  0.49583510865E+01  0.11178123100E+02  0.10570000000E+00 0.  1.
         13    1    1    2    0    0 -0.62258828737E+01 -0.78480825997E+01  0.42428101332E+01  0.10879642842E+02  0.10570000000E+00 0. -1.
<mgrwt>
<rscale>  0 0.20047036E+02</rscale>
<asrwt>0</asrwt>
<pdfrwt beam="2">  1        4 0.98896961E-03 0.20047036E+02</pdfrwt>
<pdfrwt beam="1">  1       -4 0.24045328E-02 0.20047036E+02</pdfrwt>
<totfact> 0.12831236E+06</totfact>
</mgrwt>
</event>
<event>
 5    1  0.4710515E-007  0.2000209E+02  0.7818608E-02  0.1745286E+00
         -4   -1    0    0    0  501 -0.00000000000E+00  0.00000000000E+00  0.88299217784E+02  0.88310635040E+02  0.14200000000E+01 0.  1.
          4   -1    0    0  501    0  0.00000000000E+00 -0.00000000000E+00 -0.67163509324E+00  0.15708258014E+01  0.14200000000E+01 0. -1.
       1023    2    1    2    0    0  0.00000000000E+00  0.00000000000E+00  0.87627582691E+02  0.89881460842E+02  0.20002093762E+02 0.  0.
        -13    1    3    3    0    0 -0.93390234990E+01  0.35755386253E+01  0.43413637358E+02  0.44550610742E+02  0.10570000000E+00 0.  1.
         13    1    3    3    0    0  0.93390234990E+01 -0.35755386253E+01  0.44213945333E+02  0.45330850100E+02  0.10570000000E+00 0. -1.
<mgrwt>
<rscale>  0 0.20002094E+02</rscale>
<asrwt>0</asrwt>
<pdfrwt beam="2">  1        4 0.17337526E-03 0.20002094E+02</pdfrwt>
<pdfrwt beam="1">  1       -4 0.13654541E-01 0.20002094E+02</pdfrwt>
<totfact> 0.10097206E+06</totfact>
</mgrwt>
</event>
<event>
 5    1  0.4710515E-007  0.2000426E+02  0.7818608E-02  0.1745243E+00
         -4   -1    0    0    0  501 -0.00000000000E+00  0.00000000000E+00  0.10316540393E+03  0.10317517612E+03  0.14200000000E+01 0.  1.
          4   -1    0    0  501    0  0.00000000000E+00 -0.00000000000E+00 -0.43472121139E+00  0.14850530400E+01  0.14200000000E+01 0. -1.
       1023    2    1    2    0    0  0.00000000000E+00  0.00000000000E+00  0.10273068272E+03  0.10466022916E+03  0.20004259463E+02 0.  0.
        -13    1    3    3    0    0  0.22335098206E+01 -0.97486871011E+01  0.50961421301E+02  0.51933641311E+02  0.10570000000E+00 0.  1.
         13    1    3    3    0    0 -0.22335098206E+01  0.97486871011E+01  0.51769261417E+02  0.52726587852E+02  0.10570000000E+00 0. -1.
<mgrwt>
<rscale>  0 0.20004259E+02</rscale>
<asrwt>0</asrwt>
<pdfrwt beam="2">  1        4 0.14842672E-03 0.20004259E+02</pdfrwt>
<pdfrwt beam="1">  1       -4 0.15953140E-01 0.20004259E+02</pdfrwt>
<totfact> 0.96664250E+05</totfact>
</mgrwt>
</event>
<event>
 5    1  0.4710515E-007  0.2000538E+02  0.7818608E-02  0.1745221E+00
         -4   -1    0    0    0  501 -0.00000000000E+00  0.00000000000E+00  0.41576772977E+02  0.41601015026E+02  0.14200000000E+01 0. -1.
          4   -1    0    0  501    0  0.00000000000E+00 -0.00000000000E+00 -0.21698024770E+01  0.25931530593E+01  0.14200000000E+01 0.  1.
       1023    2    1    2    0    0  0.00000000000E+00  0.00000000000E+00  0.39406970500E+02  0.44194168085E+02  0.20005378496E+02 0.  0.
        -13    1    3    3    0    0 -0.56150295546E+01 -0.82773208125E+01  0.19692898791E+02  0.22087644329E+02  0.10570000000E+00 0.  1.
         13    1    3    3    0    0  0.56150295546E+01  0.82773208125E+01  0.19714071709E+02  0.22106523756E+02  0.10570000000E+00 0. -1.
<mgrwt>
<rscale>  0 0.20005378E+02</rscale>
<asrwt>0</asrwt>
<pdfrwt beam="2">  1        4 0.36824596E-03 0.20005378E+02</pdfrwt>
<pdfrwt beam="1">  1       -4 0.64308569E-02 0.20005378E+02</pdfrwt>
<totfact> 0.11765193E+06</totfact>
</mgrwt>
</event>
<event>
 4    1  0.4710515E-007  0.2004090E+02  0.7818608E-02  0.1744516E+00
         -4   -1    0    0    0  501 -0.00000000000E+00  0.00000000000E+00  0.72489510490E+02  0.72503417375E+02  0.14200000000E+01 0. -1.
          4   -1    0    0  501    0  0.00000000000E+00 -0.00000000000E+00 -0.10034167746E+01  0.17387481772E+01  0.14200000000E+01 0.  1.
        -13    1    1    2    0    0 -0.42025747861E+01 -0.90925079695E+01  0.34814107520E+02  0.36226628202E+02  0.10570000000E+00 0.  1.
         13    1    1    2    0    0  0.42025747861E+01  0.90925079695E+01  0.36671986195E+02  0.38015537350E+02  0.10570000000E+00 0. -1.
<mgrwt>
<rscale>  0 0.20040897E+02</rscale>
<asrwt>0</asrwt>
<pdfrwt beam="2">  1        4 0.21200549E-03 0.20040897E+02</pdfrwt>
<pdfrwt beam="1">  1       -4 0.11209868E-01 0.20040897E+02</pdfrwt>
<totfact> 0.10560172E+06</totfact>
</mgrwt>
</event>
<event>
 5    1  0.4778407E-007  0.2000135E+02  0.7818608E-02  0.1745301E+00
          4   -1    0    0  501    0  0.00000000000E+00  0.00000000000E+00  0.15571636637E+02  0.15636248513E+02  0.14200000000E+01 0.  1.
         -4   -1    0    0    0  501 -0.00000000000E+00 -0.00000000000E+00 -0.62652751472E+01  0.64241787545E+01  0.14200000000E+01 0. -1.
       1023    2    1    2    0    0  0.00000000000E+00  0.00000000000E+00  0.93063614898E+01  0.22060427267E+02  0.20001352130E+02 0.  0.
        -13    1    3    3    0    0 -0.98441138225E+01 -0.17594368490E+01  0.46394804965E+01  0.11024434078E+02  0.10570000000E+00 0. -1.
         13    1    3    3    0    0  0.98441138225E+01  0.17594368490E+01  0.46668809933E+01  0.11035993189E+02  0.10570000000E+00 0.  1.
<mgrwt>
<rscale>  0 0.20001352E+02</rscale>
<asrwt>0</asrwt>
<pdfrwt beam="1">  1        4 0.24128299E-02 0.20001352E+02</pdfrwt>
<pdfrwt beam="2">  1       -4 0.98108199E-03 0.20001352E+02</pdfrwt>
<totfact> 0.12890940E+06</totfact>
</mgrwt>
</event>
<event>
 5    1  0.4729115E-007  0.2000180E+02  0.7818608E-02  0.1745292E+00
          4   -1    0    0  501    0  0.00000000000E+00  0.00000000000E+00  0.11190892162E+01  0.18079714251E+01  0.14200000000E+01 0. -1.
         -4   -1    0    0    0  501 -0.00000000000E+00 -0.00000000000E+00 -0.67642135922E+02  0.67657039191E+02  0.14200000000E+01 0.  1.
       1023    2    1    2    0    0  0.00000000000E+00  0.00000000000E+00 -0.66523046706E+02  0.69465010616E+02  0.20001798841E+02 0.  0.
        -13    1    3    3    0    0 -0.45749891211E+01  0.88924732146E+01 -0.33211028661E+02  0.34684149154E+02  0.10570000000E+00 0. -1.
         13    1    3    3    0    0  0.45749891211E+01 -0.88924732146E+01 -0.33312018046E+02  0.34780861463E+02  0.10570000000E+00 0.  1.
<mgrwt>
<rscale>  0 0.20001799E+02</rscale>
<asrwt>0</asrwt>
<pdfrwt beam="1">  1        4 0.22630497E-03 0.20001799E+02</pdfrwt>
<pdfrwt beam="2">  1       -4 0.10460617E-01 0.20001799E+02</pdfrwt>
<totfact> 0.10767784E+06</totfact>
</mgrwt>
</event>
<event>
 4    1  0.4710515E-007  0.2002575E+02  0.7818608E-02  0.1744817E+00
          4   -1    0    0  501    0  0.00000000000E+00  0.00000000000E+00  0.62944389157E+01  0.64526243703E+01  0.14200000000E+01 0.  1.
         -4   -1    0    0    0  501 -0.00000000000E+00 -0.00000000000E+00 -0.15539350385E+02  0.15604095949E+02  0.14200000000E+01 0. -1.
        -13    1    1    2    0    0  0.99665881122E+01 -0.86246175782E+00 -0.41686775870E+01  0.10838162399E+02  0.10570000000E+00 0.  1.
         13    1    1    2    0    0 -0.99665881122E+01  0.86246175782E+00 -0.50762338822E+01  0.11218557920E+02  0.10570000000E+00 0. -1.
<mgrwt>
<rscale>  0 0.20025747E+02</rscale>
<asrwt>0</asrwt>
<pdfrwt beam="1">  1        4 0.98552376E-03 0.20025747E+02</pdfrwt>
<pdfrwt beam="2">  1       -4 0.24078178E-02 0.20025747E+02</pdfrwt>
<totfact> 0.12859145E+06</totfact>
</mgrwt>
</event>
<event>
 5    1  0.4710515E-007  0.2000454E+02  0.7818608E-02  0.1745238E+00
          4   -1    0    0  501    0  0.00000000000E+00  0.00000000000E+00  0.68653632836E+01  0.70106784989E+01  0.14200000000E+01 0. -1.
         -4   -1    0    0    0  501 -0.00000000000E+00 -0.00000000000E+00 -0.14238875405E+02  0.14309506379E+02  0.14200000000E+01 0.  1.
       1023    2    1    2    0    0  0.00000000000E+00  0.00000000000E+00 -0.73735121218E+01  0.21320184878E+02  0.20004539540E+02 0.  0.
        -13    1    3    3    0    0 -0.69504318760E+01 -0.71916770239E+01 -0.36076707726E+01  0.10632741066E+02  0.10570000000E+00 0. -1.
         13    1    3    3    0    0  0.69504318760E+01  0.71916770239E+01 -0.37658413492E+01  0.10687443812E+02  0.10570000000E+00 0.  1.
<mgrwt>
<rscale>  0 0.20004540E+02</rscale>
<asrwt>0</asrwt>
<pdfrwt beam="1">  1        4 0.10728210E-02 0.20004540E+02</pdfrwt>
<pdfrwt beam="2">  1       -4 0.22072075E-02 0.20004540E+02</pdfrwt>
<totfact> 0.12929916E+06</totfact>
</mgrwt>
</event>
<event>
 5    1  0.4710515E-007  0.2000235E+02  0.7818608E-02  0.1745281E+00
          4   -1    0    0  501    0  0.00000000000E+00  0.00000000000E+00  0.11491450461E+02  0.11578852866E+02  0.14200000000E+01 0. -1.
         -4   -1    0    0    0  501 -0.00000000000E+00 -0.00000000000E+00 -0.85248372846E+01  0.86422942977E+01  0.14200000000E+01 0.  1.
       1023    2    1    2    0    0  0.00000000000E+00  0.00000000000E+00  0.29666131766E+01  0.20221147164E+02  0.20002349834E+02 0.  0.
        -13    1    3    3    0    0  0.96617238285E+01  0.25808858300E+01  0.15333273980E+01  0.10117912058E+02  0.10570000000E+00 0.  1.
         13    1    3    3    0    0 -0.96617238285E+01 -0.25808858300E+01  0.14332857786E+01  0.10103235107E+02  0.10570000000E+00 0. -1.
<mgrwt>
<rscale>  0 0.20002350E+02</rscale>
<asrwt>0</asrwt>
<pdfrwt beam="1">  1        4 0.17836739E-02 0.20002350E+02</pdfrwt>
<pdfrwt beam="2">  1       -4 0.13272719E-02 0.20002350E+02</pdfrwt>
<totfact> 0.12997765E+06</totfact>
</mgrwt>
</event>
<event>
 4    1  0.4710515E-007  0.2005974E+02  0.7818608E-02  0.1744143E+00
         -4   -1    0    0    0  501 -0.00000000000E+00  0.00000000000E+00  0.55357255772E+00  0.15240874570E+01  0.14200000000E+01 0.  1.
          4   -1    0    0  501    0  0.00000000000E+00 -0.00000000000E+00 -0.95859877818E+02  0.95870394676E+02  0.14200000000E+01 0. -1.
        -13    1    1    2    0    0 -0.99989520612E+01 -0.64651187052E+00 -0.45536034398E+02  0.46625514700E+02  0.10570000000E+00 0.  1.
         13    1    1    2    0    0  0.99989520612E+01  0.64651187052E+00 -0.49770270863E+02  0.50768967433E+02  0.10570000000E+00 0. -1.
<mgrwt>
<rscale>  0 0.20059744E+02</rscale>
<asrwt>0</asrwt>
<pdfrwt beam="2">  1        4 0.14823131E-01 0.20059744E+02</pdfrwt>
<pdfrwt beam="1">  1       -4 0.16062907E-03 0.20059744E+02</pdfrwt>
<totfact> 0.98174376E+05</totfact>
</mgrwt>
</event>
<event>
 5    1  0.4750992E-007  0.2000228E+02  0.7818608E-02  0.1745283E+00
          4   -1    0    0  501    0  0.00000000000E+00  0.00000000000E+00  0.13007976685E+02  0.13085253434E+02  0.14200000000E+01 0.  1.
         -4   -1    0    0    0  501 -0.00000000000E+00 -0.00000000000E+00 -0.75226731311E+01  0.76555216046E+01  0.14200000000E+01 0. -1.
       1023    2    1    2    0    0  0.00000000000E+00  0.00000000000E+00  0.54853035536E+01  0.20740775039E+02  0.20002279723E+02 0.  0.
        -13    1    3    3    0    0 -0.96065282957E+01 -0.27792346741E+01  0.27901102463E+01  0.10382938840E+02  0.10570000000E+00 0. -1.
         13    1    3    3    0    0  0.96065282957E+01  0.27792346741E+01  0.26951933074E+01  0.10357836199E+02  0.10570000000E+00 0.  1.
<mgrwt>
<rscale>  0 0.20002280E+02</rscale>
<asrwt>0</asrwt>
<pdfrwt beam="1">  1        4 0.20173906E-02 0.20002280E+02</pdfrwt>
<pdfrwt beam="2">  1       -4 0.11734978E-02 0.20002280E+02</pdfrwt>
<totfact> 0.12967071E+06</totfact>
</mgrwt>
</event>
<event>
 5    1  0.4710515E-007  0.2000884E+02  0.7818608E-02  0.1745152E+00
          4   -1    0    0  501    0  0.00000000000E+00  0.00000000000E+00  0.12786986200E+02  0.12865590390E+02  0.14200000000E+01 0. -1.
         -4   -1    0    0    0  501 -0.00000000000E+00 -0.00000000000E+00 -0.76593148484E+01  0.77898333709E+01  0.14200000000E+01 0.  1.
       1023    2    1    2    0    0  0.00000000000E+00  0.00000000000E+00  0.51276713518E+01  0.20655423761E+02  0.20008835979E+02 0.  0.
        -13    1    3    3    0    0  0.72557329220E+01 -0.68818619545E+01  0.28399150819E+01  0.10396248091E+02  0.10570000000E+00 0. -1.
         13    1    3    3    0    0 -0.72557329220E+01  0.68818619545E+01  0.22877562699E+01  0.10259175670E+02  0.10570000000E+00 0.  1.
<mgrwt>
<rscale>  0 0.20008836E+02</rscale>
<asrwt>0</asrwt>
<pdfrwt beam="1">  1        4 0.19833150E-02 0.20008836E+02</pdfrwt>
<pdfrwt beam="2">  1       -4 0.11944425E-02 0.20008836E+02</pdfrwt>
<totfact> 0.12963440E+06</totfact>
</mgrwt>
</event>
<event>
 4    1  0.6571914E-007  0.2115208E+02  0.7818608E-02  0.1723343E+00
          4   -1    0    0  501    0  0.00000000000E+00  0.00000000000E+00  0.17537097825E+02  0.17594493460E+02  0.14200000000E+01 0.  1.
         -4   -1    0    0    0  501 -0.00000000000E+00 -0.00000000000E+00 -0.62302215630E+01  0.63899969267E+01  0.14200000000E+01 0. -1.
        -13    1    1    2    0    0  0.28158022776E+01  0.10090312344E+02  0.72959463384E+01  0.12766563795E+02  0.10570000000E+00 0.  1.
         13    1    1    2    0    0 -0.28158022776E+01 -0.10090312344E+02  0.40109299236E+01  0.11217926592E+02  0.10570000000E+00 0. -1.
<mgrwt>
<rscale>  0 0.21152076E+02</rscale>
<asrwt>0</asrwt>
<pdfrwt beam="1">  1        4 0.27147204E-02 0.21152076E+02</pdfrwt>
<pdfrwt beam="2">  1       -4 0.97520111E-03 0.21152076E+02</pdfrwt>
<totfact> 0.11388882E+06</totfact>
</mgrwt>
</event>
<event>
 5    1  0.4793756E-007  0.2000891E+02  0.7818608E-02  0.1745151E+00
          4   -1    0    0  501    0  0.00000000000E+00  0.00000000000E+00  0.89211136845E+01  0.90334195835E+01  0.14200000000E+01 0.  1.
         -4   -1    0    0    0  501 -0.00000000000E+00 -0.00000000000E+00 -0.10990903847E+02  0.11082254616E+02  0.14200000000E+01 0. -1.
       1023    2    1    2    0    0  0.00000000000E+00  0.00000000000E+00 -0.20697901629E+01  0.20115674200E+02  0.20008905947E+02 0.  0.
        -13    1    3    3    0    0 -0.90877655368E+01 -0.41746699021E+01 -0.12863407926E+01  0.10083709455E+02  0.10570000000E+00 0.  1.
         13    1    3    3    0    0  0.90877655368E+01  0.41746699021E+01 -0.78344937032E+00  0.10031964745E+02  0.10570000000E+00 0. -1.
<mgrwt>
<rscale>  0 0.20008906E+02</rscale>
<asrwt>0</asrwt>
<pdfrwt beam="1">  1        4 0.13881449E-02 0.20008906E+02</pdfrwt>
<pdfrwt beam="2">  1       -4 0.17065742E-02 0.20008906E+02</pdfrwt>
<totfact> 0.12995363E+06</totfact>
</mgrwt>
</event>
<event>
 5    1  0.4710515E-007  0.2000921E+02  0.7818608E-02  0.1745145E+00
         -4   -1    0    0    0  501 -0.00000000000E+00  0.00000000000E+00  0.91592256409E+02  0.91603263228E+02  0.14200000000E+01 0. -1.
          4   -1    0    0  501    0  0.00000000000E+00 -0.00000000000E+00 -0.61567511423E+00  0.15477260243E+01  0.14200000000E+01 0.  1.
       1023    2    1    2    0    0  0.00000000000E+00  0.00000000000E+00  0.90976581295E+02  0.93150989253E+02  0.20009209247E+02 0.  0.
        -13    1    3    3    0    0 -0.59519971199E+01  0.80391766387E+01  0.46243420359E+02  0.47312997471E+02  0.10570000000E+00 0.  1.
         13    1    3    3    0    0  0.59519971199E+01 -0.80391766387E+01  0.44733160936E+02  0.45837991782E+02  0.10570000000E+00 0. -1.
<mgrwt>
<rscale>  0 0.20009209E+02</rscale>
<asrwt>0</asrwt>
<pdfrwt beam="2">  1        4 0.16726208E-03 0.20009209E+02</pdfrwt>
<pdfrwt beam="1">  1       -4 0.14163665E-01 0.20009209E+02</pdfrwt>
<totfact> 0.99915732E+05</totfact>
</mgrwt>
</event>
<event>
 5    1  0.4710515E-007  0.2000808E+02  0.7818608E-02  0.1745167E+00
          4   -1    0    0  501    0  0.00000000000E+00  0.00000000000E+00  0.92977982636E+01  0.94056075057E+01  0.14200000000E+01 0.  1.
         -4   -1    0    0    0  501 -0.00000000000E+00 -0.00000000000E+00 -0.10546212355E+02  0.10641381256E+02  0.14200000000E+01 0. -1.
       1023    2    1    2    0    0  0.00000000000E+00  0.00000000000E+00 -0.12484140911E+01  0.20046988761E+02  0.20008078885E+02 0.  0.
        -13    1    3    3    0    0  0.99466675472E+01  0.10521962015E+01 -0.46165549899E+00  0.10013371582E+02  0.10570000000E+00 0.  1.
         13    1    3    3    0    0 -0.99466675472E+01 -0.10521962015E+01 -0.78675859213E+00  0.10033617180E+02  0.10570000000E+00 0. -1.
<mgrwt>
<rscale>  0 0.20008079E+02</rscale>
<asrwt>0</asrwt>
<pdfrwt beam="1">  1        4 0.14460442E-02 0.20008079E+02</pdfrwt>
<pdfrwt beam="2">  1       -4 0.16381079E-02 0.20008079E+02</pdfrwt>
<totfact> 0.13000530E+06</totfact>
</mgrwt>
</event>
<event>
 5    1  0.4710515E-007  0.2000175E+02  0.7818608E-02  0.1745293E+00
         -4   -1    0    0    0  501 -0.00000000000E+00  0.00000000000E+00  0.19247721679E+01  0.23918921168E+01  0.14200000000E+01 0. -1.
          4   -1    0    0  501    0  0.00000000000E+00 -0.00000000000E+00 -0.45860900188E+02  0.45882878790E+02  0.14200000000E+01 0.  1.
       1023    2    1    2    0    0  0.00000000000E+00  0.00000000000E+00 -0.43936128020E+02  0.48274770907E+02  0.20001753940E+02 0.  0.
        -13    1    3    3    0    0  0.71992291163E+01 -0.69409776720E+01 -0.21926486128E+02  0.24099544339E+02  0.10570000000E+00 0. -1.
         13    1    3    3    0    0 -0.71992291163E+01  0.69409776720E+01 -0.22009641892E+02  0.24175226568E+02  0.10570000000E+00 0.  1.
<mgrwt>
<rscale>  0 0.20001754E+02</rscale>
<asrwt>0</asrwt>
<pdfrwt beam="2">  1        4 0.70931453E-02 0.20001754E+02</pdfrwt>
<pdfrwt beam="1">  1       -4 0.33374180E-03 0.20001754E+02</pdfrwt>
<totfact> 0.11591339E+06</totfact>
</mgrwt>
</event>
<event>
 4    1  0.6769686E-007  0.2223767E+02  0.7818608E-02  0.1704174E+00
          4   -1    0    0  501    0  0.00000000000E+00  0.00000000000E+00  0.27627694536E+01  0.31063314462E+01  0.14200000000E+01 0. -1.
         -4   -1    0    0    0  501 -0.00000000000E+00 -0.00000000000E+00 -0.41772247168E+02  0.41796375841E+02  0.14200000000E+01 0.  1.
        -13    1    1    2    0    0 -0.10639994988E+02 -0.12048040935E+01 -0.13461833386E+02  0.17201545769E+02  0.10570000000E+00 0. -1.
         13    1    1    2    0    0  0.10639994988E+02  0.12048040935E+01 -0.25547644328E+02  0.27701161518E+02  0.10570000000E+00 0.  1.
<mgrwt>
<rscale>  0 0.22237666E+02</rscale>
<asrwt>0</asrwt>
<pdfrwt beam="1">  1        4 0.45332538E-03 0.22237666E+02</pdfrwt>
<pdfrwt beam="2">  1       -4 0.64547830E-02 0.22237666E+02</pdfrwt>
<totfact> 0.94371861E+05</totfact>
</mgrwt>
</event>
<event>
 4    1  0.4710515E-007  0.2002664E+02  0.7818608E-02  0.1744799E+00
          4   -1    0    0  501    0  0.00000000000E+00  0.00000000000E+00  0.23835993412E+01  0.27745172227E+01  0.14200000000E+01 0.  1.
         -4   -1    0    0    0  501 -0.00000000000E+00 -0.00000000000E+00 -0.38472177337E+02  0.38498374369E+02  0.14200000000E+01 0. -1.
        -13    1    1    2    0    0  0.86575064695E+01 -0.50083425869E+01 -0.17078864780E+02  0.19792289114E+02  0.10570000000E+00 0.  1.
         13    1    1    2    0    0 -0.86575064695E+01  0.50083425869E+01 -0.19009713217E+02  0.21480602478E+02  0.10570000000E+00 0. -1.
<mgrwt>
<rscale>  0 0.20026635E+02</rscale>
<asrwt>0</asrwt>
<pdfrwt beam="1">  1        4 0.39879338E-03 0.20026635E+02</pdfrwt>
<pdfrwt beam="2">  1       -4 0.59508819E-02 0.20026635E+02</pdfrwt>
<totfact> 0.11871758E+06</totfact>
</mgrwt>
</event>
<event>
 5    1  0.4710515E-007  0.2000176E+02  0.7818608E-02  0.1745293E+00
         -4   -1    0    0    0  501 -0.00000000000E+00  0.00000000000E+00  0.78282034153E+01  0.79559517791E+01  0.14200000000E+01 0.  1.
          4   -1    0    0  501    0  0.00000000000E+00 -0.00000000000E+00 -0.12504912957E+02  0.12585279022E+02  0.14200000000E+01 0. -1.
       1023    2    1    2    0    0  0.00000000000E+00  0.00000000000E+00 -0.46767095420E+01  0.20541230802E+02  0.20001763690E+02 0.  0.
        -13    1    3    3    0    0  0.76311166395E+01 -0.64630838838E+01 -0.23719593242E+01  0.10278266293E+02  0.10570000000E+00 0. -1.
         13    1    3    3    0    0 -0.76311166395E+01  0.64630838838E+01 -0.23047502179E+01  0.10262964509E+02  0.10570000000E+00 0.  1.
<mgrwt>
<rscale>  0 0.20001764E+02</rscale>
<asrwt>0</asrwt>
<pdfrwt beam="2">  1        4 0.19398416E-02 0.20001764E+02</pdfrwt>
<pdfrwt beam="1">  1       -4 0.12203478E-02 0.20001764E+02</pdfrwt>
<totfact> 0.12979545E+06</totfact>
</mgrwt>
</event>
<event>
 4    1  0.4710515E-007  0.2016056E+02  0.7818608E-02  0.1742154E+00
          4   -1    0    0  501    0  0.00000000000E+00  0.00000000000E+00  0.10153910588E+02  0.10252721601E+02  0.14200000000E+01 0.  1.
         -4   -1    0    0    0  501 -0.00000000000E+00 -0.00000000000E+00 -0.98085447844E+01  0.99107997048E+01  0.14200000000E+01 0. -1.
        -13    1    1    2    0    0 -0.59634916443E+01  0.81246496377E+01  0.61001976666E-02  0.10078907383E+02  0.10570000000E+00 0.  1.
         13    1    1    2    0    0  0.59634916443E+01 -0.81246496377E+01  0.33926560545E+00  0.10084613923E+02  0.10570000000E+00 0. -1.
<mgrwt>
<rscale>  0 0.20160563E+02</rscale>
<asrwt>0</asrwt>
<pdfrwt beam="1">  1        4 0.15776067E-02 0.20160563E+02</pdfrwt>
<pdfrwt beam="2">  1       -4 0.15244735E-02 0.20160563E+02</pdfrwt>
<totfact> 0.12793526E+06</totfact>
</mgrwt>
</event>
<event>
 4    1  0.4710515E-007  0.2012646E+02  0.7818608E-02  0.1742825E+00
          4   -1    0    0  501    0  0.00000000000E+00  0.00000000000E+00  0.32167132064E+02  0.32198459361E+02  0.14200000000E+01 0. -1.
         -4   -1    0    0    0  501 -0.00000000000E+00 -0.00000000000E+00 -0.29534450877E+01  0.32770776442E+01  0.14200000000E+01 0.  1.
        -13    1    1    2    0    0  0.90257764507E+01 -0.44459230757E+01  0.14893831930E+02  0.17974100105E+02  0.10570000000E+00 0. -1.
         13    1    1    2    0    0 -0.90257764507E+01  0.44459230757E+01  0.14319855046E+02  0.17501436900E+02  0.10570000000E+00 0.  1.
<mgrwt>
<rscale>  0 0.20126456E+02</rscale>
<asrwt>0</asrwt>
<pdfrwt beam="1">  1        4 0.49760942E-02 0.20126456E+02</pdfrwt>
<pdfrwt beam="2">  1       -4 0.48168077E-03 0.20126456E+02</pdfrwt>
<totfact> 0.12023856E+06</totfact>
</mgrwt>
</event>
<event>
 5    1  0.4710515E-007  0.2000233E+02  0.7818608E-02  0.1745282E+00
          4   -1    0    0  501    0  0.00000000000E+00  0.00000000000E+00  0.91066179512E+02  0.91077249908E+02  0.14200000000E+01 0.  1.
         -4   -1    0    0    0  501 -0.00000000000E+00 -0.00000000000E+00 -0.62352257957E+00  0.15508644065E+01  0.14200000000E+01 0. -1.
       1023    2    1    2    0    0  0.00000000000E+00  0.00000000000E+00  0.90442656932E+02  0.92628114315E+02  0.20002334078E+02 0.  0.
        -13    1    3    3    0    0 -0.72360108077E+01  0.69030338739E+01  0.45318530033E+02  0.46408965361E+02  0.10570000000E+00 0. -1.
         13    1    3    3    0    0  0.72360108077E+01 -0.69030338739E+01  0.45124126899E+02  0.46219148954E+02  0.10570000000E+00 0.  1.
<mgrwt>
<rscale>  0 0.20002334E+02</rscale>
<asrwt>0</asrwt>
<pdfrwt beam="1">  1        4 0.14082367E-01 0.20002334E+02</pdfrwt>
<pdfrwt beam="2">  1       -4 0.16811211E-03 0.20002334E+02</pdfrwt>
<totfact> 0.10014044E+06</totfact>
</mgrwt>
</event>
<event>
 5    1  0.4710515E-007  0.2000188E+02  0.7818608E-02  0.1745291E+00
         -4   -1    0    0    0  501 -0.00000000000E+00  0.00000000000E+00  0.12699673283E+02  0.12778814557E+02  0.14200000000E+01 0. -1.
          4   -1    0    0  501    0  0.00000000000E+00 -0.00000000000E+00 -0.77070331761E+01  0.78367570064E+01  0.14200000000E+01 0.  1.
       1023    2    1    2    0    0  0.00000000000E+00  0.00000000000E+00  0.49926401067E+01  0.20615571564E+02  0.20001883303E+02 0.  0.
        -13    1    3    3    0    0  0.86084569473E+01 -0.50886883432E+01  0.25848708850E+01  0.10329230855E+02  0.10570000000E+00 0. -1.
         13    1    3    3    0    0 -0.86084569473E+01  0.50886883432E+01  0.24077692217E+01  0.10286340709E+02  0.10570000000E+00 0.  1.
<mgrwt>
<rscale>  0 0.20001883E+02</rscale>
<asrwt>0</asrwt>
<pdfrwt beam="2">  1        4 0.12017640E-02 0.20001883E+02</pdfrwt>
<pdfrwt beam="1">  1       -4 0.19698624E-02 0.20001883E+02</pdfrwt>
<totfact> 0.12974992E+06</totfact>
</mgrwt>
</event>
<event>
 5    1  0.4710515E-007  0.2000315E+02  0.7818608E-02  0.1745265E+00
          4   -1    0    0  501    0  0.00000000000E+00  0.00000000000E+00  0.49527932784E+01  0.51523355150E+01  0.14200000000E+01 0.  1.
         -4   -1    0    0    0  501 -0.00000000000E+00 -0.00000000000E+00 -0.19572401621E+02  0.19623845322E+02  0.14200000000E+01 0. -1.
       1023    2    1    2    0    0  0.00000000000E+00  0.00000000000E+00 -0.14619608343E+02  0.24776180837E+02  0.20003154471E+02 0.  0.
        -13    1    3    3    0    0 -0.94820796227E+00  0.99558953367E+01 -0.72630572227E+01  0.12360506584E+02  0.10570000000E+00 0. -1.
         13    1    3    3    0    0  0.94820796227E+00 -0.99558953367E+01 -0.73565511203E+01  0.12415674254E+02  0.10570000000E+00 0.  1.
<mgrwt>
<rscale>  0 0.20003154E+02</rscale>
<asrwt>0</asrwt>
<pdfrwt beam="1">  1        4 0.78127482E-03 0.20003154E+02</pdfrwt>
<pdfrwt beam="2">  1       -4 0.30304453E-02 0.20003154E+02</pdfrwt>
<totfact> 0.12734017E+06</totfact>
</mgrwt>
</event>
<event>
 4    1  0.4710515E-007  0.2001772E+02  0.7818608E-02  0.1744976E+00
         -4   -1    0    0    0  501 -0.00000000000E+00  0.00000000000E+00  0.48294540629E+00  0.14998787503E+01  0.14200000000E+01 0.  1.
          4   -1    0    0  501    0  0.00000000000E+00 -0.00000000000E+00 -0.10002050933E+03  0.10003058876E+03  0.14200000000E+01 0. -1.
        -13    1    1    2    0    0  0.77079624764E+01  0.63808530993E+01 -0.50759525694E+02  0.51736530546E+02  0.10570000000E+00 0. -1.
         13    1    1    2    0    0 -0.77079624764E+01 -0.63808530993E+01 -0.48778038231E+02  0.49793936960E+02  0.10570000000E+00 0.  1.
<mgrwt>
<rscale>  0 0.20017722E+02</rscale>
<asrwt>0</asrwt>
<pdfrwt beam="2">  1        4 0.15466764E-01 0.20017722E+02</pdfrwt>
<pdfrwt beam="1">  1       -4 0.15330036E-03 0.20017722E+02</pdfrwt>
<totfact> 0.97406616E+05</totfact>
</mgrwt>
</event>
<event>
 4    1  0.4710515E-007  0.2002331E+02  0.7818608E-02  0.1744865E+00
         -4   -1    0    0    0  501 -0.00000000000E+00  0.00000000000E+00  0.49349312406E+01  0.51351676067E+01  0.14200000000E+01 0. -1.
          4   -1    0    0  501    0  0.00000000000E+00 -0.00000000000E+00 -0.19680781605E+02  0.19731942747E+02  0.14200000000E+01 0.  1.
        -13    1    1    2    0    0 -0.87283120513E+01 -0.48921286196E+01 -0.77767695063E+01  0.12673029241E+02  0.10570000000E+00 0.  1.
         13    1    1    2    0    0  0.87283120513E+01  0.48921286196E+01 -0.69690808580E+01  0.12194081113E+02  0.10570000000E+00 0. -1.
<mgrwt>
<rscale>  0 0.20023313E+02</rscale>
<asrwt>0</asrwt>
<pdfrwt beam="2">  1        4 0.30471508E-02 0.20023313E+02</pdfrwt>
<pdfrwt beam="1">  1       -4 0.77855847E-03 0.20023313E+02</pdfrwt>
<totfact> 0.12702842E+06</totfact>
</mgrwt>
</event>
<event>
 4    1  0.4710515E-007  0.2011037E+02  0.7818608E-02  0.1743142E+00
         -4   -1    0    0    0  501 -0.00000000000E+00  0.00000000000E+00  0.68352631214E+02  0.68367379603E+02  0.14200000000E+01 0. -1.
          4   -1    0    0  501    0  0.00000000000E+00 -0.00000000000E+00 -0.11199763951E+01  0.18085207009E+01  0.14200000000E+01 0.  1.
        -13    1    1    2    0    0  0.34963728326E+01 -0.94124885292E+01  0.31782936250E+02  0.33331453201E+02  0.10570000000E+00 0. -1.
         13    1    1    2    0    0 -0.34963728326E+01  0.94124885292E+01  0.35449718568E+02  0.36844447103E+02  0.10570000000E+00 0.  1.
<mgrwt>
<rscale>  0 0.20110373E+02</rscale>
<asrwt>0</asrwt>
<pdfrwt beam="2">  1        4 0.22640349E-03 0.20110373E+02</pdfrwt>
<pdfrwt beam="1">  1       -4 0.10569889E-01 0.20110373E+02</pdfrwt>
<totfact> 0.10626495E+06</totfact>
</mgrwt>
</event>
<event>
 4    1  0.4710515E-007  0.2005683E+02  0.7818608E-02  0.1744200E+00
          4   -1    0    0  501    0  0.00000000000E+00  0.00000000000E+00  0.10094862601E+02  0.10194245972E+02  0.14200000000E+01 0. -1.
         -4   -1    0    0    0  501 -0.00000000000E+00 -0.00000000000E+00 -0.97626050460E+01  0.98653361465E+01  0.14200000000E+01 0.  1.
        -13    1    1    2    0    0  0.92336596759E+01 -0.39104779951E+01  0.24116085976E+00  0.10031033856E+02  0.10570000000E+00 0. -1.
         13    1    1    2    0    0 -0.92336596759E+01  0.39104779951E+01  0.91096695291E-01  0.10028548263E+02  0.10570000000E+00 0.  1.
<mgrwt>
<rscale>  0 0.20056830E+02</rscale>
<asrwt>0</asrwt>
<pdfrwt beam="1">  1        4 0.15686031E-02 0.20056830E+02</pdfrwt>
<pdfrwt beam="2">  1       -4 0.15174865E-02 0.20056830E+02</pdfrwt>
<totfact> 0.12935314E+06</totfact>
</mgrwt>
</event>
<event>
 5    1  0.4710515E-007  0.2000285E+02  0.7818608E-02  0.1745271E+00
         -4   -1    0    0    0  501 -0.00000000000E+00  0.00000000000E+00  0.24967714666E+02  0.25008062213E+02  0.14200000000E+01 0. -1.
          4   -1    0    0  501    0  0.00000000000E+00 -0.00000000000E+00 -0.38354141830E+01  0.40898413118E+01  0.14200000000E+01 0. -1.
       1023    2    1    2    0    0  0.00000000000E+00  0.00000000000E+00  0.21132300483E+02  0.29097903525E+02  0.20002846443E+02 0.  0.
        -13    1    3    3    0    0 -0.75691227690E+00  0.99720515327E+01  0.10492461979E+02  0.14495435793E+02  0.10570000000E+00 0. -1.
         13    1    3    3    0    0  0.75691227690E+00 -0.99720515327E+01  0.10639838504E+02  0.14602467732E+02  0.10570000000E+00 0.  1.
<mgrwt>
<rscale>  0 0.20002846E+02</rscale>
<asrwt>0</asrwt>
<pdfrwt beam="2">  1        4 0.61273870E-03 0.20002846E+02</pdfrwt>
<pdfrwt beam="1">  1       -4 0.38638618E-02 0.20002846E+02</pdfrwt>
<totfact> 0.12499512E+06</totfact>
</mgrwt>
</event>
<event>
 5    1  0.4710515E-007  0.2000809E+02  0.7818608E-02  0.1745167E+00
         -4   -1    0    0    0  501 -0.00000000000E+00  0.00000000000E+00  0.94616142967E+01  0.95675778074E+01  0.14200000000E+01 0. -1.
          4   -1    0    0  501    0  0.00000000000E+00 -0.00000000000E+00 -0.10364027540E+02  0.10460854021E+02  0.14200000000E+01 0.  1.
       1023    2    1    2    0    0  0.00000000000E+00  0.00000000000E+00 -0.90241324290E+00  0.20028431828E+02  0.20008091659E+02 0.  0.
        -13    1    3    3    0    0  0.10868624170E+01  0.99423171342E+01 -0.64843625023E+00  0.10023102412E+02  0.10570000000E+00 0. -1.
         13    1    3    3    0    0 -0.10868624170E+01 -0.99423171342E+01 -0.25397699267E+00  0.10005329416E+02  0.10570000000E+00 0.  1.
<mgrwt>
<rscale>  0 0.20008092E+02</rscale>
<asrwt>0</asrwt>
<pdfrwt beam="2">  1        4 0.16100650E-02 0.20008092E+02</pdfrwt>
<pdfrwt beam="1">  1       -4 0.14712322E-02 0.20008092E+02</pdfrwt>
<totfact> 0.13001613E+06</totfact>
</mgrwt>
</event>
<event>
 5    1  0.4877610E-007  0.2000130E+02  0.7818608E-02  0.1745302E+00
          4   -1    0    0  501    0  0.00000000000E+00  0.00000000000E+00  0.11261507790E+02  0.11350680935E+02  0.14200000000E+01 0. -1.
         -4   -1    0    0    0  501 -0.00000000000E+00 -0.00000000000E+00 -0.86989671399E+01  0.88141039988E+01  0.14200000000E+01 0.  1.
       1023    2    1    2    0    0  0.00000000000E+00  0.00000000000E+00  0.25625406498E+01  0.20164784934E+02  0.20001298379E+02 0.  0.
        -13    1    3    3    0    0  0.11557311035E+01  0.99330709766E+01  0.12670727771E+01  0.10080588243E+02  0.10570000000E+00 0. -1.
         13    1    3    3    0    0 -0.11557311035E+01 -0.99330709766E+01  0.12954678727E+01  0.10084196691E+02  0.10570000000E+00 0.  1.
<mgrwt>
<rscale>  0 0.20001298E+02</rscale>
<asrwt>0</asrwt>
<pdfrwt beam="1">  1        4 0.17482558E-02 0.20001298E+02</pdfrwt>
<pdfrwt beam="2">  1       -4 0.13540188E-02 0.20001298E+02</pdfrwt>
<totfact> 0.13002521E+06</totfact>
</mgrwt>
</event>
<event>
 5    1  0.4710515E-007  0.2000796E+02  0.7818608E-02  0.1745170E+00
          4   -1    0    0  501    0  0.00000000000E+00  0.00000000000E+00  0.74890350074E+00  0.16053835845E+01  0.14200000000E+01 0.  1.
         -4   -1    0    0    0  501 -0.00000000000E+00 -0.00000000000E+00 -0.84154394784E+02  0.84166374292E+02  0.14200000000E+01 0. -1.
       1023    2    1    2    0    0  0.00000000000E+00  0.00000000000E+00 -0.83405491283E+02  0.85771757876E+02  0.20007960241E+02 0.  0.
        -13    1    3    3    0    0  0.58146481625E+01 -0.81398618815E+01 -0.41835643232E+02  0.43015110157E+02  0.10570000000E+00 0.  1.
         13    1    3    3    0    0 -0.58146481625E+01  0.81398618815E+01 -0.41569848051E+02  0.42756647719E+02  0.10570000000E+00 0. -1.
<mgrwt>
<rscale>  0 0.20007960E+02</rscale>
<asrwt>0</asrwt>
<pdfrwt beam="1">  1        4 0.18202057E-03 0.20007960E+02</pdfrwt>
<pdfrwt beam="2">  1       -4 0.13013630E-01 0.20007960E+02</pdfrwt>
<totfact> 0.10218286E+06</totfact>
</mgrwt>
</event>
<event>
 5    1  0.4710515E-007  0.2000577E+02  0.7818608E-02  0.1745213E+00
          4   -1    0    0  501    0  0.00000000000E+00  0.00000000000E+00  0.83975005118E+01  0.85167138526E+01  0.14200000000E+01 0.  1.
         -4   -1    0    0    0  501 -0.00000000000E+00 -0.00000000000E+00 -0.11668634359E+02  0.11754719384E+02  0.14200000000E+01 0. -1.
       1023    2    1    2    0    0  0.00000000000E+00  0.00000000000E+00 -0.32711338471E+01  0.20271433237E+02  0.20005766389E+02 0.  0.
        -13    1    3    3    0    0 -0.89373174797E+01  0.44911970918E+01 -0.16333780525E+01  0.10135363408E+02  0.10570000000E+00 0. -1.
         13    1    3    3    0    0  0.89373174797E+01 -0.44911970918E+01 -0.16377557946E+01  0.10136069829E+02  0.10570000000E+00 0.  1.
<mgrwt>
<rscale>  0 0.20005766E+02</rscale>
<asrwt>0</asrwt>
<pdfrwt beam="1">  1        4 0.13077153E-02 0.20005766E+02</pdfrwt>
<pdfrwt beam="2">  1       -4 0.18109667E-02 0.20005766E+02</pdfrwt>
<totfact> 0.12990242E+06</totfact>
</mgrwt>
</event>
<event>
 4    1  0.4710515E-007  0.2001407E+02  0.7818608E-02  0.1745048E+00
          4   -1    0    0  501    0  0.00000000000E+00  0.00000000000E+00  0.33840923381E+01  0.36699429087E+01  0.14200000000E+01 0.  1.
         -4   -1    0    0    0  501 -0.00000000000E+00 -0.00000000000E+00 -0.28087970839E+02  0.28123842302E+02  0.14200000000E+01 0. -1.
        -13    1    1    2    0    0  0.31607946248E+01 -0.94899373382E+01 -0.12801494932E+02  0.16246198888E+02  0.10570000000E+00 0. -1.
         13    1    1    2    0    0 -0.31607946248E+01  0.94899373382E+01 -0.11902383569E+02  0.15547586323E+02  0.10570000000E+00 0.  1.
<mgrwt>
<rscale>  0 0.20014074E+02</rscale>
<asrwt>0</asrwt>
<pdfrwt beam="1">  1        4 0.54537746E-03 0.20014074E+02</pdfrwt>
<pdfrwt beam="2">  1       -4 0.43459740E-02 0.20014074E+02</pdfrwt>
<totfact> 0.12345362E+06</totfact>
</mgrwt>
</event>
<event>
 5    1  0.4710515E-007  0.2000302E+02  0.7818608E-02  0.1745268E+00
         -4   -1    0    0    0  501 -0.00000000000E+00  0.00000000000E+00  0.17488829360E+01  0.22527741840E+01  0.14200000000E+01 0.  1.
          4   -1    0    0  501    0  0.00000000000E+00 -0.00000000000E+00 -0.49479046899E+02  0.49499419007E+02  0.14200000000E+01 0. -1.
       1023    2    1    2    0    0  0.00000000000E+00  0.00000000000E+00 -0.47730163963E+02  0.51752193191E+02  0.20003023475E+02 0.  0.
        -13    1    3    3    0    0 -0.63773846100E+01  0.77037661171E+01 -0.23854197955E+02  0.25866058444E+02  0.10570000000E+00 0. -1.
         13    1    3    3    0    0  0.63773846100E+01 -0.77037661171E+01 -0.23875966009E+02  0.25886134748E+02  0.10570000000E+00 0.  1.
<mgrwt>
<rscale>  0 0.20003023E+02</rscale>
<asrwt>0</asrwt>
<pdfrwt beam="2">  1        4 0.76524881E-02 0.20003023E+02</pdfrwt>
<pdfrwt beam="1">  1       -4 0.30938690E-03 0.20003023E+02</pdfrwt>
<totfact> 0.11443663E+06</totfact>
</mgrwt>
</event>
<event>
 4    1  0.4710515E-007  0.2001890E+02  0.7818608E-02  0.1744952E+00
         -4   -1    0    0    0  501 -0.00000000000E+00  0.00000000000E+00  0.45400175460E+01  0.47569064862E+01  0.14200000000E+01 0. -1.
          4   -1    0    0  501    0  0.00000000000E+00 -0.00000000000E+00 -0.21312112163E+02  0.21359366209E+02  0.14200000000E+01 0.  1.
        -13    1    1    2    0    0  0.75715285918E+01 -0.65442330151E+01 -0.81884907922E+01  0.12931263856E+02  0.10570000000E+00 0. -1.
         13    1    1    2    0    0 -0.75715285918E+01  0.65442330151E+01 -0.85836038246E+01  0.13185008839E+02  0.10570000000E+00 0.  1.
<mgrwt>
<rscale>  0 0.20018905E+02</rscale>
<asrwt>0</asrwt>
<pdfrwt beam="2">  1        4 0.32991051E-02 0.20018905E+02</pdfrwt>
<pdfrwt beam="1">  1       -4 0.71878294E-03 0.20018905E+02</pdfrwt>
<totfact> 0.12639441E+06</totfact>
</mgrwt>
</event>
<event>
 5    1  0.4710515E-007  0.2000812E+02  0.7818608E-02  0.1745167E+00
          4   -1    0    0  501    0  0.00000000000E+00  0.00000000000E+00  0.11558954242E+02  0.11645850041E+02  0.14200000000E+01 0. -1.
         -4   -1    0    0    0  501 -0.00000000000E+00 -0.00000000000E+00 -0.84797542446E+01  0.85978271702E+01  0.14200000000E+01 0.  1.
       1023    2    1    2    0    0  0.00000000000E+00  0.00000000000E+00  0.30791999978E+01  0.20243677211E+02  0.20008123211E+02 0.  0.
        -13    1    3    3    0    0  0.37623035770E+01  0.92682085513E+01  0.14138054274E+01  0.10102704402E+02  0.10570000000E+00 0. -1.
         13    1    3    3    0    0 -0.37623035770E+01 -0.92682085513E+01  0.16653945704E+01  0.10140972809E+02  0.10570000000E+00 0.  1.
<mgrwt>
<rscale>  0 0.20008123E+02</rscale>
<asrwt>0</asrwt>
<pdfrwt beam="1">  1        4 0.17940675E-02 0.20008123E+02</pdfrwt>
<pdfrwt beam="2">  1       -4 0.13203444E-02 0.20008123E+02</pdfrwt>
<totfact> 0.12988769E+06</totfact>
</mgrwt>
</event>
<event>
 5    1  0.4801132E-007  0.2000141E+02  0.7818608E-02  0.1745300E+00
          4   -1    0    0  501    0  0.00000000000E+00  0.00000000000E+00  0.42157260589E+02  0.42181169026E+02  0.14200000000E+01 0.  1.
         -4   -1    0    0    0  501 -0.00000000000E+00 -0.00000000000E+00 -0.21330485737E+01  0.25624785302E+01  0.14200000000E+01 0. -1.
       1023    2    1    2    0    0  0.00000000000E+00  0.00000000000E+00  0.40024212016E+02  0.44743647556E+02  0.20001411179E+02 0.  0.
        -13    1    3    3    0    0 -0.98944676097E+01 -0.14496483329E+01  0.20081786028E+02  0.22434154143E+02  0.10570000000E+00 0.  1.
         13    1    3    3    0    0  0.98944676097E+01  0.14496483329E+01  0.19942425988E+02  0.22309493413E+02  0.10570000000E+00 0. -1.
<mgrwt>
<rscale>  0 0.20001411E+02</rscale>
<asrwt>0</asrwt>
<pdfrwt beam="1">  1        4 0.65206042E-02 0.20001411E+02</pdfrwt>
<pdfrwt beam="2">  1       -4 0.36303352E-03 0.20001411E+02</pdfrwt>
<totfact> 0.11745483E+06</totfact>
</mgrwt>
</event>
<event>
 5    1  0.4710515E-007  0.2000208E+02  0.7818608E-02  0.1745287E+00
         -4   -1    0    0    0  501 -0.00000000000E+00  0.00000000000E+00  0.44594136911E+02  0.44616739536E+02  0.14200000000E+01 0. -1.
          4   -1    0    0  501    0  0.00000000000E+00 -0.00000000000E+00 -0.19925811875E+01  0.24467896904E+01  0.14200000000E+01 0.  1.
       1023    2    1    2    0    0  0.00000000000E+00  0.00000000000E+00  0.42601555723E+02  0.47063529226E+02  0.20002080722E+02 0.  0.
        -13    1    3    3    0    0 -0.13214224491E+01 -0.99127520797E+01  0.21233206256E+02  0.23470599300E+02  0.10570000000E+00 0. -1.
         13    1    3    3    0    0  0.13214224491E+01  0.99127520797E+01  0.21368349467E+02  0.23592929926E+02  0.10570000000E+00 0.  1.
<mgrwt>
<rscale>  0 0.20002081E+02</rscale>
<asrwt>0</asrwt>
<pdfrwt beam="2">  1        4 0.34322870E-03 0.20002081E+02</pdfrwt>
<pdfrwt beam="1">  1       -4 0.68973148E-02 0.20002081E+02</pdfrwt>
<totfact> 0.11643071E+06</totfact>
</mgrwt>
</event>
<event>
 5    1  0.4710515E-007  0.2000441E+02  0.7818608E-02  0.1745240E+00
          4   -1    0    0  501    0  0.00000000000E+00  0.00000000000E+00  0.32799956474E+01  0.35741812275E+01  0.14200000000E+01 0. -1.
         -4   -1    0    0    0  501 -0.00000000000E+00 -0.00000000000E+00 -0.28879765743E+02  0.28914654924E+02  0.14200000000E+01 0.  1.
       1023    2    1    2    0    0  0.00000000000E+00  0.00000000000E+00 -0.25599770095E+02  0.32488836151E+02  0.20004405653E+02 0.  0.
        -13    1    3    3    0    0 -0.71958022238E+01  0.69462674569E+01 -0.12715688167E+02  0.16178074647E+02  0.10570000000E+00 0.  1.
         13    1    3    3    0    0  0.71958022238E+01 -0.69462674569E+01 -0.12884081928E+02  0.16310761504E+02  0.10570000000E+00 0. -1.
<mgrwt>
<rscale>  0 0.20004406E+02</rscale>
<asrwt>0</asrwt>
<pdfrwt beam="1">  1        4 0.52992818E-03 0.20004406E+02</pdfrwt>
<pdfrwt beam="2">  1       -4 0.44683542E-02 0.20004406E+02</pdfrwt>
<totfact> 0.12322062E+06</totfact>
</mgrwt>
</event>
<event>
 5    1  0.4710515E-007  0.2000209E+02  0.7818608E-02  0.1745286E+00
         -4   -1    0    0    0  501 -0.00000000000E+00  0.00000000000E+00  0.14585101934E+01  0.20355962233E+01  0.14200000000E+01 0.  1.
          4   -1    0    0  501    0  0.00000000000E+00 -0.00000000000E+00 -0.56663776423E+02  0.56681566303E+02  0.14200000000E+01 0. -1.
       1023    2    1    2    0    0  0.00000000000E+00  0.00000000000E+00 -0.55205266230E+02  0.58717162526E+02  0.20002093781E+02 0.  0.
        -13    1    3    3    0    0  0.98958598869E+01 -0.14419996677E+01 -0.27460010417E+02  0.29224488885E+02  0.10570000000E+00 0.  1.
         13    1    3    3    0    0 -0.98958598869E+01  0.14419996677E+01 -0.27745255813E+02  0.29492673642E+02  0.10570000000E+00 0. -1.
<mgrwt>
<rscale>  0 0.20002094E+02</rscale>
<asrwt>0</asrwt>
<pdfrwt beam="2">  1        4 0.87632623E-02 0.20002094E+02</pdfrwt>
<pdfrwt beam="1">  1       -4 0.27014591E-03 0.20002094E+02</pdfrwt>
<totfact> 0.11165987E+06</totfact>
</mgrwt>
</event>
<event>
 4    1  0.4710515E-007  0.2013943E+02  0.7818608E-02  0.1742570E+00
          4   -1    0    0  501    0  0.00000000000E+00  0.00000000000E+00  0.89771784697E+01  0.90887916291E+01  0.14200000000E+01 0.  1.
         -4   -1    0    0    0  501 -0.00000000000E+00 -0.00000000000E+00 -0.11068176297E+02  0.11158894504E+02  0.14200000000E+01 0. -1.
        -13    1    1    2    0    0 -0.50020671622E+01  0.87380143535E+01 -0.92490736205E+00  0.10111389462E+02  0.10570000000E+00 0. -1.
         13    1    1    2    0    0  0.50020671622E+01 -0.87380143535E+01 -0.11660904657E+01  0.10136296671E+02  0.10570000000E+00 0.  1.
<mgrwt>
<rscale>  0 0.20139427E+02</rscale>
<asrwt>0</asrwt>
<pdfrwt beam="1">  1        4 0.13966683E-02 0.20139427E+02</pdfrwt>
<pdfrwt beam="2">  1       -4 0.17183603E-02 0.20139427E+02</pdfrwt>
<totfact> 0.12816109E+06</totfact>
</mgrwt>
</event>
<event>
 5    1  0.4847263E-007  0.2000262E+02  0.7818608E-02  0.1745276E+00
         -4   -1    0    0    0  501 -0.00000000000E+00  0.00000000000E+00  0.65548000444E+01  0.67068475174E+01  0.14200000000E+01 0. -1.
          4   -1    0    0  501    0  0.00000000000E+00 -0.00000000000E+00 -0.14898835255E+02  0.14966351992E+02  0.14200000000E+01 0.  1.
       1023    2    1    2    0    0  0.00000000000E+00  0.00000000000E+00 -0.83440352106E+01  0.21673199510E+02  0.20002616164E+02 0.  0.
        -13    1    3    3    0    0 -0.79327465606E+01  0.60896016071E+01 -0.42340259980E+01  0.10860472567E+02  0.10570000000E+00 0. -1.
         13    1    3    3    0    0  0.79327465606E+01 -0.60896016071E+01 -0.41100092127E+01  0.10812726943E+02  0.10570000000E+00 0.  1.
<mgrwt>
<rscale>  0 0.20002616E+02</rscale>
<asrwt>0</asrwt>
<pdfrwt beam="2">  1        4 0.23090180E-02 0.20002616E+02</pdfrwt>
<pdfrwt beam="1">  1       -4 0.10253203E-02 0.20002616E+02</pdfrwt>
<totfact> 0.12911799E+06</totfact>
</mgrwt>
</event>
<event>
 5    1  0.4710515E-007  0.2000668E+02  0.7818608E-02  0.1745195E+00
          4   -1    0    0  501    0  0.00000000000E+00  0.00000000000E+00  0.34574287836E+02  0.34603435947E+02  0.14200000000E+01 0. -1.
         -4   -1    0    0    0  501 -0.00000000000E+00 -0.00000000000E+00 -0.26877895035E+01  0.30398375640E+01  0.14200000000E+01 0.  1.
       1023    2    1    2    0    0  0.00000000000E+00  0.00000000000E+00  0.31886498332E+02  0.37643273511E+02  0.20006680503E+02 0.  0.
        -13    1    3    3    0    0  0.95380454819E+01  0.30118904276E+01  0.16129968512E+02  0.18979801165E+02  0.10570000000E+00 0.  1.
         13    1    3    3    0    0 -0.95380454819E+01 -0.30118904276E+01  0.15756529820E+02  0.18663472346E+02  0.10570000000E+00 0. -1.
<mgrwt>
<rscale>  0 0.20006681E+02</rscale>
<asrwt>0</asrwt>
<pdfrwt beam="1">  1        4 0.53484440E-02 0.20006681E+02</pdfrwt>
<pdfrwt beam="2">  1       -4 0.44282886E-03 0.20006681E+02</pdfrwt>
<totfact> 0.12065580E+06</totfact>
</mgrwt>
</event>
<event>
 5    1  0.4710515E-007  0.2000148E+02  0.7818608E-02  0.1745299E+00
         -4   -1    0    0    0  501 -0.00000000000E+00  0.00000000000E+00  0.76758008905E+02  0.76771142567E+02  0.14200000000E+01 0. -1.
          4   -1    0    0  501    0  0.00000000000E+00 -0.00000000000E+00 -0.89884694459E+00  0.16805730659E+01  0.14200000000E+01 0.  1.
       1023    2    1    2    0    0  0.00000000000E+00  0.00000000000E+00  0.75859161960E+02  0.78451715633E+02  0.20001480756E+02 0.  0.
        -13    1    3    3    0    0 -0.99543523892E+01  0.95605631252E+00  0.38013746530E+02  0.39307241990E+02  0.10570000000E+00 0. -1.
         13    1    3    3    0    0  0.99543523892E+01 -0.95605631252E+00  0.37845415431E+02  0.39144473643E+02  0.10570000000E+00 0.  1.
<mgrwt>
<rscale>  0 0.20001481E+02</rscale>
<asrwt>0</asrwt>
<pdfrwt beam="2">  1        4 0.19942718E-03 0.20001481E+02</pdfrwt>
<pdfrwt beam="1">  1       -4 0.11870069E-01 0.20001481E+02</pdfrwt>
<totfact> 0.10460510E+06</totfact>
</mgrwt>
</event>
<event>
 5    1  0.4710515E-007  0.2000188E+02  0.7818608E-02  0.1745291E+00
         -4   -1    0    0    0  501 -0.00000000000E+00  0.00000000000E+00  0.45006256467E+02  0.45028652225E+02  0.14200000000E+01 0.  1.
          4   -1    0    0  501    0  0.00000000000E+00 -0.00000000000E+00 -0.19701198845E+01  0.24285329644E+01  0.14200000000E+01 0. -1.
       1023    2    1    2    0    0  0.00000000000E+00  0.00000000000E+00  0.43036136583E+02  0.47457185189E+02  0.20001884265E+02 0.  0.
        -13    1    3    3    0    0  0.67410365499E+01  0.73866372323E+01  0.21662149507E+02  0.23859251395E+02  0.10570000000E+00 0.  1.
         13    1    3    3    0    0 -0.67410365499E+01 -0.73866372323E+01  0.21373987076E+02  0.23597933795E+02  0.10570000000E+00 0. -1.
<mgrwt>
<rscale>  0 0.20001884E+02</rscale>
<asrwt>0</asrwt>
<pdfrwt beam="2">  1        4 0.34008068E-03 0.20001884E+02</pdfrwt>
<pdfrwt beam="1">  1       -4 0.69610244E-02 0.20001884E+02</pdfrwt>
<totfact> 0.11626295E+06</totfact>
</mgrwt>
</event>
<event>
 5    1  0.4710515E-007  0.2000867E+02  0.7818608E-02  0.1745156E+00
          4   -1    0    0  501    0  0.00000000000E+00  0.00000000000E+00  0.38546774107E+01  0.41079116277E+01  0.14200000000E+01 0. -1.
         -4   -1    0    0    0  501 -0.00000000000E+00 -0.00000000000E+00 -0.24865095384E+02  0.24905609176E+02  0.14200000000E+01 0.  1.
       1023    2    1    2    0    0  0.00000000000E+00  0.00000000000E+00 -0.21010417973E+02  0.29013520804E+02  0.20008666273E+02 0.  0.
        -13    1    3    3    0    0  0.84279021199E+00  0.99682068397E+01 -0.10516996267E+02  0.14515296273E+02  0.10570000000E+00 0. -1.
         13    1    3    3    0    0 -0.84279021199E+00 -0.99682068397E+01 -0.10493421706E+02  0.14498224530E+02  0.10570000000E+00 0.  1.
<mgrwt>
<rscale>  0 0.20008666E+02</rscale>
<asrwt>0</asrwt>
<pdfrwt beam="1">  1        4 0.61562331E-03 0.20008666E+02</pdfrwt>
<pdfrwt beam="2">  1       -4 0.38479952E-02 0.20008666E+02</pdfrwt>
<totfact> 0.12496578E+06</totfact>
</mgrwt>
</event>
<event>
 4    1  0.4710515E-007  0.2024091E+02  0.7818608E-02  0.1740579E+00
          4   -1    0    0  501    0  0.00000000000E+00  0.00000000000E+00  0.30879259990E+02  0.30911892493E+02  0.14200000000E+01 0.  1.
         -4   -1    0    0    0  501 -0.00000000000E+00 -0.00000000000E+00 -0.31288668797E+01  0.34360162908E+01  0.14200000000E+01 0. -1.
        -13    1    1    2    0    0  0.97145679232E+01  0.27380829817E+01  0.15125115280E+02  0.18183789844E+02  0.10570000000E+00 0.  1.
         13    1    1    2    0    0 -0.97145679232E+01 -0.27380829817E+01  0.12625277829E+02  0.16164118940E+02  0.10570000000E+00 0. -1.
<mgrwt>
<rscale>  0 0.20240912E+02</rscale>
<asrwt>0</asrwt>
<pdfrwt beam="1">  1        4 0.47767925E-02 0.20240912E+02</pdfrwt>
<pdfrwt beam="2">  1       -4 0.50750120E-03 0.20240912E+02</pdfrwt>
<totfact> 0.11940189E+06</totfact>
</mgrwt>
</event>
<event>
 5    1  0.4710515E-007  0.2000367E+02  0.7818608E-02  0.1745255E+00
          4   -1    0    0  501    0  0.00000000000E+00  0.00000000000E+00  0.11950077999E+01  0.18559212381E+01  0.14200000000E+01 0.  1.
         -4   -1    0    0    0  501 -0.00000000000E+00 -0.00000000000E+00 -0.64907498626E+02  0.64923029642E+02  0.14200000000E+01 0. -1.
       1023    2    1    2    0    0  0.00000000000E+00  0.00000000000E+00 -0.63712490826E+02  0.66778950880E+02  0.20003669498E+02 0.  0.
        -13    1    3    3    0    0 -0.81038032511E+00  0.99675285357E+01 -0.31418624567E+02  0.32971949951E+02  0.10570000000E+00 0. -1.
         13    1    3    3    0    0  0.81038032511E+00 -0.99675285357E+01 -0.32293866259E+02  0.33807000929E+02  0.10570000000E+00 0.  1.
<mgrwt>
<rscale>  0 0.20003669E+02</rscale>
<asrwt>0</asrwt>
<pdfrwt beam="1">  1        4 0.23588159E-03 0.20003669E+02</pdfrwt>
<pdfrwt beam="2">  1       -4 0.10037801E-01 0.20003669E+02</pdfrwt>
<totfact> 0.10862011E+06</totfact>
</mgrwt>
</event>
<event>
 5    1  0.4710515E-007  0.2000151E+02  0.7818608E-02  0.1745298E+00
         -4   -1    0    0    0  501 -0.00000000000E+00  0.00000000000E+00  0.64954951487E+00  0.15615103497E+01  0.14200000000E+01 0. -1.
          4   -1    0    0  501    0  0.00000000000E+00 -0.00000000000E+00 -0.89548133190E+02  0.89559391232E+02  0.14200000000E+01 0.  1.
       1023    2    1    2    0    0  0.00000000000E+00  0.00000000000E+00 -0.88898583675E+02  0.91120901582E+02  0.20001513082E+02 0.  0.
        -13    1    3    3    0    0 -0.52605633628E+01 -0.85046881358E+01 -0.44570829575E+02  0.45679024384E+02  0.10570000000E+00 0. -1.
         13    1    3    3    0    0  0.52605633628E+01  0.85046881358E+01 -0.44327754100E+02  0.45441877198E+02  0.10570000000E+00 0.  1.
<mgrwt>
<rscale>  0 0.20001513E+02</rscale>
<asrwt>0</asrwt>
<pdfrwt beam="2">  1        4 0.13847647E-01 0.20001513E+02</pdfrwt>
<pdfrwt beam="1">  1       -4 0.17094760E-03 0.20001513E+02</pdfrwt>
<totfact> 0.10060177E+06</totfact>
</mgrwt>
</event>
<event>
 5    1  0.4710515E-007  0.2000413E+02  0.7818608E-02  0.1745246E+00
         -4   -1    0    0    0  501 -0.00000000000E+00  0.00000000000E+00  0.14234812167E+01  0.20106463573E+01  0.14200000000E+01 0. -1.
          4   -1    0    0  501    0  0.00000000000E+00 -0.00000000000E+00 -0.57665601228E+02  0.57683082138E+02  0.14200000000E+01 0.  1.
       1023    2    1    2    0    0  0.00000000000E+00  0.00000000000E+00 -0.56242120011E+02  0.59693728496E+02  0.20004128533E+02 0.  0.
        -13    1    3    3    0    0 -0.95424115215E+01 -0.29954127419E+01 -0.28125236560E+02  0.29850799306E+02  0.10570000000E+00 0.  1.
         13    1    3    3    0    0  0.95424115215E+01  0.29954127419E+01 -0.28116883451E+02  0.29842929190E+02  0.10570000000E+00 0. -1.
<mgrwt>
<rscale>  0 0.20004129E+02</rscale>
<asrwt>0</asrwt>
<pdfrwt beam="2">  1        4 0.89181407E-02 0.20004129E+02</pdfrwt>
<pdfrwt beam="1">  1       -4 0.26550839E-03 0.20004129E+02</pdfrwt>
<totfact> 0.11126008E+06</totfact>
</mgrwt>
</event>
<event>
 5    1  0.4710515E-007  0.2000428E+02  0.7818608E-02  0.1745243E+00
         -4   -1    0    0    0  501 -0.00000000000E+00  0.00000000000E+00  0.11995400719E+02  0.12079157189E+02  0.14200000000E+01 0. -1.
          4   -1    0    0  501    0  0.00000000000E+00 -0.00000000000E+00 -0.81658352559E+01  0.82883813515E+01  0.14200000000E+01 0.  1.
       1023    2    1    2    0    0  0.00000000000E+00  0.00000000000E+00  0.38295654627E+01  0.20367538541E+02  0.20004275907E+02 0.  0.
        -13    1    3    3    0    0  0.28187181058E+01  0.95960891633E+01  0.18754527397E+01  0.10176374328E+02  0.10570000000E+00 0. -1.
         13    1    3    3    0    0 -0.28187181058E+01 -0.95960891633E+01  0.19541127229E+01  0.10191164213E+02  0.10570000000E+00 0.  1.
<mgrwt>
<rscale>  0 0.20004276E+02</rscale>
<asrwt>0</asrwt>
<pdfrwt beam="2">  1        4 0.12721518E-02 0.20004276E+02</pdfrwt>
<pdfrwt beam="1">  1       -4 0.18613157E-02 0.20004276E+02</pdfrwt>
<totfact> 0.12986508E+06</totfact>
</mgrwt>
</event>
<event>
 4    1  0.4710515E-007  0.2005143E+02  0.7818608E-02  0.1744307E+00
          4   -1    0    0  501    0  0.00000000000E+00  0.00000000000E+00  0.23351234777E+02  0.23394370383E+02  0.14200000000E+01 0.  1.
         -4   -1    0    0    0  501 -0.00000000000E+00 -0.00000000000E+00 -0.41388572428E+01  0.43756758651E+01  0.14200000000E+01 0. -1.
        -13    1    1    2    0    0  0.15550110155E+00  0.10001334167E+02  0.10538292219E+02  0.14529887856E+02  0.10570000000E+00 0. -1.
         13    1    1    2    0    0 -0.15550110155E+00 -0.10001334167E+02  0.86740853152E+01  0.13240158392E+02  0.10570000000E+00 0.  1.
<mgrwt>
<rscale>  0 0.20051434E+02</rscale>
<asrwt>0</asrwt>
<pdfrwt beam="1">  1        4 0.36140328E-02 0.20051434E+02</pdfrwt>
<pdfrwt beam="2">  1       -4 0.65828218E-03 0.20051434E+02</pdfrwt>
<totfact> 0.12508359E+06</totfact>
</mgrwt>
</event>
<event>
 5    1  0.4710515E-007  0.2000233E+02  0.7818608E-02  0.1745282E+00
         -4   -1    0    0    0  501 -0.00000000000E+00  0.00000000000E+00  0.10610850962E+03  0.10611801079E+03  0.14200000000E+01 0. -1.
          4   -1    0    0  501    0  0.00000000000E+00 -0.00000000000E+00 -0.39283240096E+00  0.14733354320E+01  0.14200000000E+01 0.  1.
       1023    2    1    2    0    0  0.00000000000E+00  0.00000000000E+00  0.10571567722E+03  0.10759134622E+03  0.20002334157E+02 0.  0.
        -13    1    3    3    0    0  0.95316903660E+01  0.30255498967E+01  0.52473817380E+02  0.53418346627E+02  0.10570000000E+00 0.  1.
         13    1    3    3    0    0 -0.95316903660E+01 -0.30255498967E+01  0.53241859835E+02  0.54172999591E+02  0.10570000000E+00 0. -1.
<mgrwt>
<rscale>  0 0.20002334E+02</rscale>
<asrwt>0</asrwt>
<pdfrwt beam="2">  1        4 0.14428225E-03 0.20002334E+02</pdfrwt>
<pdfrwt beam="1">  1       -4 0.16408230E-01 0.20002334E+02</pdfrwt>
<totfact> 0.95879773E+05</totfact>
</mgrwt>
</event>
<event>
 5    1  0.4727974E-007  0.2000146E+02  0.7818608E-02  0.1745299E+00
          4   -1    0    0  501    0  0.00000000000E+00  0.00000000000E+00  0.15301232771E+01  0.20875050283E+01  0.14200000000E+01 0. -1.
         -4   -1    0    0    0  501 -0.00000000000E+00 -0.00000000000E+00 -0.54724910710E+02  0.54743330665E+02  0.14200000000E+01 0.  1.
       1023    2    1    2    0    0  0.00000000000E+00  0.00000000000E+00 -0.53194787433E+02  0.56830835693E+02  0.20001461834E+02 0.  0.
        -13    1    3    3    0    0 -0.46903111706E+01  0.88319246712E+01 -0.26486105281E+02  0.28311249667E+02  0.10570000000E+00 0.  1.
         13    1    3    3    0    0  0.46903111706E+01 -0.88319246712E+01 -0.26708682153E+02  0.28519586026E+02  0.10570000000E+00 0. -1.
<mgrwt>
<rscale>  0 0.20001462E+02</rscale>
<asrwt>0</asrwt>
<pdfrwt beam="1">  1        4 0.27969606E-03 0.20001462E+02</pdfrwt>
<pdfrwt beam="2">  1       -4 0.84635082E-02 0.20001462E+02</pdfrwt>
<totfact> 0.11240448E+06</totfact>
</mgrwt>
</event>
<event>
 4    1  0.4710515E-007  0.2013201E+02  0.7818608E-02  0.1742716E+00
          4   -1    0    0  501    0  0.00000000000E+00  0.00000000000E+00  0.49621863223E+01  0.51613654295E+01  0.14200000000E+01 0.  1.
         -4   -1    0    0    0  501 -0.00000000000E+00 -0.00000000000E+00 -0.19792447408E+02  0.19843320649E+02  0.14200000000E+01 0. -1.
        -13    1    1    2    0    0 -0.89529678759E+01 -0.45984749597E+01 -0.72811155797E+01  0.12422858862E+02  0.10570000000E+00 0.  1.
         13    1    1    2    0    0  0.89529678759E+01  0.45984749597E+01 -0.75491455058E+01  0.12581827216E+02  0.10570000000E+00 0. -1.
<mgrwt>
<rscale>  0 0.20132006E+02</rscale>
<asrwt>0</asrwt>
<pdfrwt beam="1">  1        4 0.78264808E-03 0.20132006E+02</pdfrwt>
<pdfrwt beam="2">  1       -4 0.30642267E-02 0.20132006E+02</pdfrwt>
<totfact> 0.12555848E+06</totfact>
</mgrwt>
</event>
<event>
 5    1  0.4724740E-007  0.2000231E+02  0.7818608E-02  0.1745282E+00
          4   -1    0    0  501    0  0.00000000000E+00  0.00000000000E+00  0.83806303818E+02  0.83818333076E+02  0.14200000000E+01 0.  1.
         -4   -1    0    0    0  501 -0.00000000000E+00 -0.00000000000E+00 -0.75464511871E+00  0.16080700405E+01  0.14200000000E+01 0. -1.
       1023    2    1    2    0    0  0.00000000000E+00  0.00000000000E+00  0.83051658699E+02  0.85426403116E+02  0.20002308285E+02 0.  0.
        -13    1    3    3    0    0 -0.39898292469E+01  0.91698652288E+01  0.41876608441E+02  0.43054229441E+02  0.10570000000E+00 0.  1.
         13    1    3    3    0    0  0.39898292469E+01 -0.91698652288E+01  0.41175050258E+02  0.42372173675E+02  0.10570000000E+00 0. -1.
<mgrwt>
<rscale>  0 0.20002308E+02</rscale>
<asrwt>0</asrwt>
<pdfrwt beam="1">  1        4 0.12959856E-01 0.20002308E+02</pdfrwt>
<pdfrwt beam="2">  1       -4 0.18267258E-03 0.20002308E+02</pdfrwt>
<totfact> 0.10234908E+06</totfact>
</mgrwt>
</event>
<event>
 5    1  0.4758378E-007  0.2000150E+02  0.7818608E-02  0.1745298E+00
         -4   -1    0    0    0  501 -0.00000000000E+00  0.00000000000E+00  0.31173833660E+01  0.34255625889E+01  0.14200000000E+01 0.  1.
          4   -1    0    0  501    0  0.00000000000E+00 -0.00000000000E+00 -0.30246247873E+02  0.30279562586E+02  0.14200000000E+01 0. -1.
       1023    2    1    2    0    0  0.00000000000E+00  0.00000000000E+00 -0.27128864507E+02  0.33705125175E+02  0.20001504284E+02 0.  0.
        -13    1    3    3    0    0 -0.16218612298E+01 -0.98677212025E+01 -0.13630029795E+02  0.16905361288E+02  0.10570000000E+00 0. -1.
         13    1    3    3    0    0  0.16218612298E+01  0.98677212025E+01 -0.13498834712E+02  0.16799763887E+02  0.10570000000E+00 0.  1.
<mgrwt>
<rscale>  0 0.20001504E+02</rscale>
<asrwt>0</asrwt>
<pdfrwt beam="2">  1        4 0.46795375E-02 0.20001504E+02</pdfrwt>
<pdfrwt beam="1">  1       -4 0.50586623E-03 0.20001504E+02</pdfrwt>
<totfact> 0.12264402E+06</totfact>
</mgrwt>
</event>
<event>
 5    1  0.4874263E-007  0.2000387E+02  0.7818608E-02  0.1745251E+00
          4   -1    0    0  501    0  0.00000000000E+00  0.00000000000E+00  0.11574058482E+02  0.11660841726E+02  0.14200000000E+01 0. -1.
         -4   -1    0    0    0  501 -0.00000000000E+00 -0.00000000000E+00 -0.84649323532E+01  0.85832091751E+01  0.14200000000E+01 0.  1.
       1023    2    1    2    0    0  0.00000000000E+00  0.00000000000E+00  0.31091261291E+01  0.20244050901E+02  0.20003872915E+02 0.  0.
        -13    1    3    3    0    0  0.43613978956E+01  0.89997371553E+01  0.16582625832E+01  0.10137951852E+02  0.10570000000E+00 0. -1.
         13    1    3    3    0    0 -0.43613978956E+01 -0.89997371553E+01  0.14508635459E+01  0.10106099049E+02  0.10570000000E+00 0.  1.
<mgrwt>
<rscale>  0 0.20003873E+02</rscale>
<asrwt>0</asrwt>
<pdfrwt beam="1">  1        4 0.17963982E-02 0.20003873E+02</pdfrwt>
<pdfrwt beam="2">  1       -4 0.13180711E-02 0.20003873E+02</pdfrwt>
<totfact> 0.12994381E+06</totfact>
</mgrwt>
</event>
<event>
 5    1  0.4710515E-007  0.2000336E+02  0.7818608E-02  0.1745261E+00
         -4   -1    0    0    0  501 -0.00000000000E+00  0.00000000000E+00  0.46441116237E+01  0.48563538559E+01  0.14200000000E+01 0.  1.
          4   -1    0    0  501    0  0.00000000000E+00 -0.00000000000E+00 -0.20821714625E+02  0.20870079059E+02  0.14200000000E+01 0. -1.
       1023    2    1    2    0    0  0.00000000000E+00  0.00000000000E+00 -0.16177603002E+02  0.25726432915E+02  0.20003362509E+02 0.  0.
        -13    1    3    3    0    0 -0.63347160011E+01  0.77391060157E+01 -0.80993042192E+01  0.12869820903E+02  0.10570000000E+00 0.  1.
         13    1    3    3    0    0  0.63347160011E+01 -0.77391060157E+01 -0.80782987824E+01  0.12856612013E+02  0.10570000000E+00 0. -1.
<mgrwt>
<rscale>  0 0.20003363E+02</rscale>
<asrwt>0</asrwt>
<pdfrwt beam="2">  1        4 0.32233873E-02 0.20003363E+02</pdfrwt>
<pdfrwt beam="1">  1       -4 0.73452539E-03 0.20003363E+02</pdfrwt>
<totfact> 0.12680915E+06</totfact>
</mgrwt>
</event>
<event>
 5    1  0.4849084E-007  0.2000258E+02  0.7818608E-02  0.1745277E+00
          4   -1    0    0  501    0  0.00000000000E+00  0.00000000000E+00  0.15536137496E+02  0.15600896394E+02  0.14200000000E+01 0. -1.
         -4   -1    0    0    0  501 -0.00000000000E+00 -0.00000000000E+00 -0.62806913134E+01  0.64392144998E+01  0.14200000000E+01 0.  1.
       1023    2    1    2    0    0  0.00000000000E+00  0.00000000000E+00  0.92554461824E+01  0.22040110894E+02  0.20002579938E+02 0.  0.
        -13    1    3    3    0    0 -0.77368430538E+01 -0.63368270768E+01  0.46526240044E+01  0.11030512248E+02  0.10570000000E+00 0.  1.
         13    1    3    3    0    0  0.77368430538E+01  0.63368270768E+01  0.46028221780E+01  0.11009598645E+02  0.10570000000E+00 0. -1.
<mgrwt>
<rscale>  0 0.20002580E+02</rscale>
<asrwt>0</asrwt>
<pdfrwt beam="1">  1        4 0.24073505E-02 0.20002580E+02</pdfrwt>
<pdfrwt beam="2">  1       -4 0.98343575E-03 0.20002580E+02</pdfrwt>
<totfact> 0.12890505E+06</totfact>
</mgrwt>
</event>
<event>
 4    1  0.4710515E-007  0.2003246E+02  0.7818608E-02  0.1744683E+00
         -4   -1    0    0    0  501 -0.00000000000E+00  0.00000000000E+00  0.78397260885E+01  0.79672896987E+01  0.14200000000E+01 0. -1.
          4   -1    0    0  501    0  0.00000000000E+00 -0.00000000000E+00 -0.12525709544E+02  0.12605943026E+02  0.14200000000E+01 0.  1.
        -13    1    1    2    0    0 -0.22805895838E+01 -0.97369469610E+01 -0.29096737380E+01  0.10415690026E+02  0.10570000000E+00 0. -1.
         13    1    1    2    0    0  0.22805895838E+01  0.97369469610E+01 -0.17763097174E+01  0.10157542699E+02  0.10570000000E+00 0.  1.
<mgrwt>
<rscale>  0 0.20032460E+02</rscale>
<asrwt>0</asrwt>
<pdfrwt beam="2">  1        4 0.19430166E-02 0.20032460E+02</pdfrwt>
<pdfrwt beam="1">  1       -4 0.12220961E-02 0.20032460E+02</pdfrwt>
<totfact> 0.12937090E+06</totfact>
</mgrwt>
</event>
<event>
 5    1  0.4710515E-007  0.2000278E+02  0.7818608E-02  0.1745273E+00
         -4   -1    0    0    0  501 -0.00000000000E+00  0.00000000000E+00  0.13430625240E+01  0.19545375267E+01  0.14200000000E+01 0. -1.
          4   -1    0    0  501    0  0.00000000000E+00 -0.00000000000E+00 -0.60045611047E+02  0.60062399269E+02  0.14200000000E+01 0.  1.
       1023    2    1    2    0    0  0.00000000000E+00  0.00000000000E+00 -0.58702548523E+02  0.62016936796E+02  0.20002780969E+02 0.  0.
        -13    1    3    3    0    0  0.29103323686E+01 -0.95674287749E+01 -0.29027413988E+02  0.30701916278E+02  0.10570000000E+00 0. -1.
         13    1    3    3    0    0 -0.29103323686E+01  0.95674287749E+01 -0.29675134535E+02  0.31315020518E+02  0.10570000000E+00 0.  1.
<mgrwt>
<rscale>  0 0.20002781E+02</rscale>
<asrwt>0</asrwt>
<pdfrwt beam="2">  1        4 0.92861126E-02 0.20002781E+02</pdfrwt>
<pdfrwt beam="1">  1       -4 0.25495299E-03 0.20002781E+02</pdfrwt>
<totfact> 0.11039005E+06</totfact>
</mgrwt>
</event>
<event>
 5    1  0.5241566E-007  0.2000159E+02  0.7818608E-02  0.1745296E+00
          4   -1    0    0  501    0  0.00000000000E+00  0.00000000000E+00  0.73863853854E+01  0.75216413809E+01  0.14200000000E+01 0.  1.
         -4   -1    0    0    0  501 -0.00000000000E+00 -0.00000000000E+00 -0.13244177268E+02  0.13320083765E+02  0.14200000000E+01 0. -1.
       1023    2    1    2    0    0  0.00000000000E+00  0.00000000000E+00 -0.58577918821E+01  0.20841725145E+02  0.20001594469E+02 0.  0.
        -13    1    3    3    0    0 -0.57177656788E+01  0.82043371644E+01 -0.28997911898E+01  0.10412682368E+02  0.10570000000E+00 0.  1.
         13    1    3    3    0    0  0.57177656788E+01 -0.82043371644E+01 -0.29580006923E+01  0.10429042777E+02  0.10570000000E+00 0. -1.
<mgrwt>
<rscale>  0 0.20001594E+02</rscale>
<asrwt>0</asrwt>
<pdfrwt beam="1">  1        4 0.11526103E-02 0.20001594E+02</pdfrwt>
<pdfrwt beam="2">  1       -4 0.20538090E-02 0.20001594E+02</pdfrwt>
<totfact> 0.12961997E+06</totfact>
</mgrwt>
</event>
<event>
 5    1  0.4842686E-007  0.2000154E+02  0.7818608E-02  0.1745297E+00
          4   -1    0    0  501    0  0.00000000000E+00  0.00000000000E+00  0.24607844406E+01  0.28411019100E+01  0.14200000000E+01 0. -1.
         -4   -1    0    0    0  501 -0.00000000000E+00 -0.00000000000E+00 -0.37333449512E+02  0.37360445025E+02  0.14200000000E+01 0.  1.
       1023    2    1    2    0    0  0.00000000000E+00  0.00000000000E+00 -0.34872665072E+02  0.40201546935E+02  0.20001540110E+02 0.  0.
        -13    1    3    3    0    0 -0.98615840642E+01  0.16592765434E+01 -0.17464059590E+02  0.20124825186E+02  0.10570000000E+00 0.  1.
         13    1    3    3    0    0  0.98615840642E+01 -0.16592765434E+01 -0.17408605482E+02  0.20076721749E+02  0.10570000000E+00 0. -1.
<mgrwt>
<rscale>  0 0.20001540E+02</rscale>
<asrwt>0</asrwt>
<pdfrwt beam="1">  1        4 0.40991402E-03 0.20001540E+02</pdfrwt>
<pdfrwt beam="2">  1       -4 0.57749390E-02 0.20001540E+02</pdfrwt>
<totfact> 0.11951376E+06</totfact>
</mgrwt>
</event>
<event>
 5    1  0.4945176E-007  0.2001024E+02  0.7818608E-02  0.1745124E+00
         -4   -1    0    0    0  501 -0.00000000000E+00  0.00000000000E+00  0.20200815387E+02  0.20250662762E+02  0.14200000000E+01 0. -1.
          4   -1    0    0  501    0  0.00000000000E+00 -0.00000000000E+00 -0.47963935649E+01  0.50021786483E+01  0.14200000000E+01 0.  1.
       1023    2    1    2    0    0  0.00000000000E+00  0.00000000000E+00  0.15404421822E+02  0.25252841410E+02  0.20010242068E+02 0.  0.
        -13    1    3    3    0    0 -0.99972714038E+01  0.34338688803E+00  0.74913241333E+01  0.12497778196E+02  0.10570000000E+00 0. -1.
         13    1    3    3    0    0  0.99972714038E+01 -0.34338688803E+00  0.79130976888E+01  0.12755063214E+02  0.10570000000E+00 0.  1.
<mgrwt>
<rscale>  0 0.20010242E+02</rscale>
<asrwt>0</asrwt>
<pdfrwt beam="2">  1        4 0.75757075E-03 0.20010242E+02</pdfrwt>
<pdfrwt beam="1">  1       -4 0.31274818E-02 0.20010242E+02</pdfrwt>
<totfact> 0.12698264E+06</totfact>
</mgrwt>
</event>
<event>
 5    1  0.4914958E-007  0.2000134E+02  0.7818608E-02  0.1745301E+00
         -4   -1    0    0    0  501 -0.00000000000E+00  0.00000000000E+00  0.12966527376E+02  0.13044049686E+02  0.14200000000E+01 0.  1.
          4   -1    0    0  501    0  0.00000000000E+00 -0.00000000000E+00 -0.75462724332E+01  0.76787126289E+01  0.14200000000E+01 0. -1.
       1023    2    1    2    0    0  0.00000000000E+00  0.00000000000E+00  0.54202549430E+01  0.20722762314E+02  0.20001342812E+02 0.  0.
        -13    1    3    3    0    0 -0.95103139065E+01  0.30909619495E+01  0.26622020482E+01  0.10348845762E+02  0.10570000000E+00 0. -1.
         13    1    3    3    0    0  0.95103139065E+01 -0.30909619495E+01  0.27580528948E+01  0.10373916552E+02  0.10570000000E+00 0.  1.
<mgrwt>
<rscale>  0 0.20001343E+02</rscale>
<asrwt>0</asrwt>
<pdfrwt beam="2">  1        4 0.11771160E-02 0.20001343E+02</pdfrwt>
<pdfrwt beam="1">  1       -4 0.20110013E-02 0.20001343E+02</pdfrwt>
<totfact> 0.12969379E+06</totfact>
</mgrwt>
</event>
<event>
 4    1  0.4710515E-007  0.2003441E+02  0.7818608E-02  0.1744645E+00
          4   -1    0    0  501    0  0.00000000000E+00  0.00000000000E+00  0.42723828949E+01  0.45021834259E+01  0.14200000000E+01 0.  1.
         -4   -1    0    0    0  501 -0.00000000000E+00 -0.00000000000E+00 -0.22618999668E+02  0.22663528983E+02  0.14200000000E+01 0. -1.
        -13    1    1    2    0    0  0.37920775038E+01  0.92676032722E+01 -0.95187470825E+01  0.13816151444E+02  0.10570000000E+00 0. -1.
         13    1    1    2    0    0 -0.37920775038E+01 -0.92676032722E+01 -0.88278696901E+01  0.13349560965E+02  0.10570000000E+00 0.  1.
<mgrwt>
<rscale>  0 0.20034410E+02</rscale>
<asrwt>0</asrwt>
<pdfrwt beam="1">  1        4 0.67839198E-03 0.20034410E+02</pdfrwt>
<pdfrwt beam="2">  1       -4 0.35009483E-02 0.20034410E+02</pdfrwt>
<totfact> 0.12562486E+06</totfact>
</mgrwt>
</event>
<event>
 4    1  0.4710515E-007  0.2002311E+02  0.7818608E-02  0.1744869E+00
          4   -1    0    0  501    0  0.00000000000E+00  0.00000000000E+00  0.36741062698E+02  0.36768493146E+02  0.14200000000E+01 0. -1.
         -4   -1    0    0    0  501 -0.00000000000E+00 -0.00000000000E+00 -0.25127895650E+01  0.28862625310E+01  0.14200000000E+01 0.  1.
        -13    1    1    2    0    0 -0.50251993866E+01  0.86471217279E+01  0.16240208519E+02  0.19073040877E+02  0.10570000000E+00 0.  1.
         13    1    1    2    0    0  0.50251993866E+01 -0.86471217279E+01  0.17988064614E+02  0.20581714800E+02  0.10570000000E+00 0. -1.
<mgrwt>
<rscale>  0 0.20023111E+02</rscale>
<asrwt>0</asrwt>
<pdfrwt beam="1">  1        4 0.56833098E-02 0.20023111E+02</pdfrwt>
<pdfrwt beam="2">  1       -4 0.41742174E-03 0.20023111E+02</pdfrwt>
<totfact> 0.11950733E+06</totfact>
</mgrwt>
</event>
<event>
 5    1  0.4735536E-007  0.2000335E+02  0.7818608E-02  0.1745261E+00
         -4   -1    0    0    0  501 -0.00000000000E+00  0.00000000000E+00  0.22270205106E+02  0.22315430434E+02  0.14200000000E+01 0. -1.
          4   -1    0    0  501    0  0.00000000000E+00 -0.00000000000E+00 -0.43284259437E+01  0.45554002184E+01  0.14200000000E+01 0.  1.
       1023    2    1    2    0    0  0.00000000000E+00  0.00000000000E+00  0.17941779163E+02  0.26870830653E+02  0.20003352230E+02 0.  0.
        -13    1    3    3    0    0  0.15308394984E+01 -0.98828470820E+01  0.88491239901E+01  0.13354111872E+02  0.10570000000E+00 0. -1.
         13    1    3    3    0    0 -0.15308394984E+01  0.98828470820E+01  0.90926551724E+01  0.13516718781E+02  0.10570000000E+00 0.  1.
<mgrwt>
<rscale>  0 0.20003352E+02</rscale>
<asrwt>0</asrwt>
<pdfrwt beam="2">  1        4 0.68685011E-03 0.20003352E+02</pdfrwt>
<pdfrwt beam="1">  1       -4 0.34471239E-02 0.20003352E+02</pdfrwt>
<totfact> 0.12618212E+06</totfact>
</mgrwt>
</event>
<event>
 5    1  0.4710515E-007  0.2000939E+02  0.7818608E-02  0.1745141E+00
          4   -1    0    0  501    0  0.00000000000E+00  0.00000000000E+00  0.16105825675E+02  0.16168302962E+02  0.14200000000E+01 0.  1.
         -4   -1    0    0    0  501 -0.00000000000E+00 -0.00000000000E+00 -0.60580011751E+01  0.62222004337E+01  0.14200000000E+01 0. -1.
       1023    2    1    2    0    0  0.00000000000E+00  0.00000000000E+00  0.10047824500E+02  0.22390503396E+02  0.20009394422E+02 0.  0.
        -13    1    3    3    0    0  0.66488044614E+01 -0.74736183590E+01  0.48609002814E+01  0.11122099450E+02  0.10570000000E+00 0. -1.
         13    1    3    3    0    0 -0.66488044614E+01  0.74736183590E+01  0.51869242184E+01  0.11268403946E+02  0.10570000000E+00 0.  1.
<mgrwt>
<rscale>  0 0.20009394E+02</rscale>
<asrwt>0</asrwt>
<pdfrwt beam="1">  1        4 0.24952560E-02 0.20009394E+02</pdfrwt>
<pdfrwt beam="2">  1       -4 0.94943685E-03 0.20009394E+02</pdfrwt>
<totfact> 0.12861298E+06</totfact>
</mgrwt>
</event>
<event>
 5    1  0.4710515E-007  0.2000266E+02  0.7818608E-02  0.1745275E+00
          4   -1    0    0  501    0  0.00000000000E+00  0.00000000000E+00  0.75093318838E+01  0.76424122724E+01  0.14200000000E+01 0.  1.
         -4   -1    0    0    0  501 -0.00000000000E+00 -0.00000000000E+00 -0.13031319946E+02  0.13108459083E+02  0.14200000000E+01 0. -1.
       1023    2    1    2    0    0  0.00000000000E+00  0.00000000000E+00 -0.55219880621E+01  0.20750871356E+02  0.20002657570E+02 0.  0.
        -13    1    3    3    0    0  0.79126884153E+01 -0.61154896667E+01 -0.28383009692E+01  0.10396007729E+02  0.10570000000E+00 0. -1.
         13    1    3    3    0    0 -0.79126884153E+01  0.61154896667E+01 -0.26836870929E+01  0.10354863626E+02  0.10570000000E+00 0.  1.
<mgrwt>
<rscale>  0 0.20002658E+02</rscale>
<asrwt>0</asrwt>
<pdfrwt beam="1">  1        4 0.11714526E-02 0.20002658E+02</pdfrwt>
<pdfrwt beam="2">  1       -4 0.20209892E-02 0.20002658E+02</pdfrwt>
<totfact> 0.12965973E+06</totfact>
</mgrwt>
</event>
<event>
 5    1  0.4710515E-007  0.2000176E+02  0.7818608E-02  0.1745293E+00
          4   -1    0    0  501    0  0.00000000000E+00  0.00000000000E+00  0.75616320614E+02  0.75629652540E+02  0.14200000000E+01 0.  1.
         -4   -1    0    0    0  501 -0.00000000000E+00 -0.00000000000E+00 -0.92417716034E+00  0.16942560089E+01  0.14200000000E+01 0. -1.
       1023    2    1    2    0    0  0.00000000000E+00  0.00000000000E+00  0.74692143454E+02  0.77323908549E+02  0.20001763409E+02 0.  0.
        -13    1    3    3    0    0 -0.95824046960E+01 -0.28600177850E+01  0.37093134759E+02  0.38417626166E+02  0.10570000000E+00 0. -1.
         13    1    3    3    0    0  0.95824046960E+01  0.28600177850E+01  0.37599008695E+02  0.38906282383E+02  0.10570000000E+00 0.  1.
<mgrwt>
<rscale>  0 0.20001763E+02</rscale>
<asrwt>0</asrwt>
<pdfrwt beam="1">  1        4 0.11693550E-01 0.20001763E+02</pdfrwt>
<pdfrwt beam="2">  1       -4 0.20244334E-03 0.20001763E+02</pdfrwt>
<totfact> 0.10497659E+06</totfact>
</mgrwt>
</event>
<event>
 4    1  0.4710515E-007  0.2004822E+02  0.7818608E-02  0.1744371E+00
         -4   -1    0    0    0  501 -0.00000000000E+00  0.00000000000E+00  0.81104904979E+00  0.16352983095E+01  0.14200000000E+01 0. -1.
          4   -1    0    0  501    0  0.00000000000E+00 -0.00000000000E+00 -0.81316719942E+02  0.81329117431E+02  0.14200000000E+01 0.  1.
        -13    1    1    2    0    0 -0.99016573904E+01 -0.15534749767E+01 -0.39737092214E+02  0.40981749276E+02  0.10570000000E+00 0.  1.
         13    1    1    2    0    0  0.99016573904E+01  0.15534749767E+01 -0.40768578678E+02  0.41982666465E+02  0.10570000000E+00 0. -1.
<mgrwt>
<rscale>  0 0.20048223E+02</rscale>
<asrwt>0</asrwt>
<pdfrwt beam="2">  1        4 0.12574618E-01 0.20048223E+02</pdfrwt>
<pdfrwt beam="1">  1       -4 0.18913428E-03 0.20048223E+02</pdfrwt>
<totfact> 0.10265715E+06</totfact>
</mgrwt>
</event>
<event>
 4    1  0.4710515E-007  0.2006335E+02  0.7818608E-02  0.1744071E+00
         -4   -1    0    0    0  501 -0.00000000000E+00  0.00000000000E+00  0.54991080901E+02  0.55009411728E+02  0.14200000000E+01 0. -1.
          4   -1    0    0  501    0  0.00000000000E+00 -0.00000000000E+00 -0.15330285580E+01  0.20896355088E+01  0.14200000000E+01 0.  1.
        -13    1    1    2    0    0  0.55177158784E+01  0.83467683552E+01  0.24697504899E+02  0.26647544938E+02  0.10570000000E+00 0. -1.
         13    1    1    2    0    0 -0.55177158784E+01 -0.83467683552E+01  0.28760547444E+02  0.30451502299E+02  0.10570000000E+00 0.  1.
<mgrwt>
<rscale>  0 0.20063346E+02</rscale>
<asrwt>0</asrwt>
<pdfrwt beam="2">  1        4 0.28007657E-03 0.20063346E+02</pdfrwt>
<pdfrwt beam="1">  1       -4 0.85043911E-02 0.20063346E+02</pdfrwt>
<totfact> 0.11160224E+06</totfact>
</mgrwt>
</event>
<event>
 5    1  0.4710515E-007  0.2000501E+02  0.7818608E-02  0.1745228E+00
         -4   -1    0    0    0  501 -0.00000000000E+00  0.00000000000E+00  0.79761225474E+02  0.79773864699E+02  0.14200000000E+01 0.  1.
          4   -1    0    0  501    0  0.00000000000E+00 -0.00000000000E+00 -0.83559081631E+00  0.16476079668E+01  0.14200000000E+01 0. -1.
       1023    2    1    2    0    0  0.00000000000E+00  0.00000000000E+00  0.78925634657E+02  0.81421472666E+02  0.20005009499E+02 0.  0.
        -13    1    3    3    0    0  0.19695900060E+01 -0.98060970441E+01  0.39421162905E+02  0.40670358755E+02  0.10570000000E+00 0. -1.
         13    1    3    3    0    0 -0.19695900060E+01  0.98060970441E+01  0.39504471753E+02  0.40751113911E+02  0.10570000000E+00 0.  1.
<mgrwt>
<rscale>  0 0.20005009E+02</rscale>
<asrwt>0</asrwt>
<pdfrwt beam="2">  1        4 0.19198749E-03 0.20005009E+02</pdfrwt>
<pdfrwt beam="1">  1       -4 0.12334396E-01 0.20005009E+02</pdfrwt>
<totfact> 0.10359747E+06</totfact>
</mgrwt>
</event>
<event>
 5    1  0.4710515E-007  0.2000391E+02  0.7818608E-02  0.1745250E+00
         -4   -1    0    0    0  501 -0.00000000000E+00  0.00000000000E+00  0.44330198805E+01  0.46548969120E+01  0.14200000000E+01 0. -1.
          4   -1    0    0  501    0  0.00000000000E+00 -0.00000000000E+00 -0.21770283172E+02  0.21816544854E+02  0.14200000000E+01 0.  1.
       1023    2    1    2    0    0  0.00000000000E+00  0.00000000000E+00 -0.17337263291E+02  0.26471441766E+02  0.20003912886E+02 0.  0.
        -13    1    3    3    0    0 -0.96390181675E+01 -0.26656108799E+01 -0.88124265402E+01  0.13329898222E+02  0.10570000000E+00 0.  1.
         13    1    3    3    0    0  0.96390181675E+01  0.26656108799E+01 -0.85248367508E+01  0.13141543544E+02  0.10570000000E+00 0. -1.
<mgrwt>
<rscale>  0 0.20003913E+02</rscale>
<asrwt>0</asrwt>
<pdfrwt beam="2">  1        4 0.33699003E-02 0.20003913E+02</pdfrwt>
<pdfrwt beam="1">  1       -4 0.70262913E-03 0.20003913E+02</pdfrwt>
<totfact> 0.12639268E+06</totfact>
</mgrwt>
</event>
<event>
 4    1  0.4710515E-007  0.2002120E+02  0.7818608E-02  0.1744907E+00
         -4   -1    0    0    0  501 -0.00000000000E+00  0.00000000000E+00  0.11207613148E+03  0.11208512679E+03  0.14200000000E+01 0.  1.
          4   -1    0    0  501    0  0.00000000000E+00 -0.00000000000E+00 -0.31554214807E+00  0.14546363282E+01  0.14200000000E+01 0. -1.
        -13    1    1    2    0    0  0.66002441869E+01 -0.75241248710E+01  0.54978816552E+02  0.55882529652E+02  0.10570000000E+00 0. -1.
         13    1    1    2    0    0 -0.66002441869E+01  0.75241248710E+01  0.56781772780E+02  0.57657233466E+02  0.10570000000E+00 0.  1.
<mgrwt>
<rscale>  0 0.20021201E+02</rscale>
<asrwt>0</asrwt>
<pdfrwt beam="2">  1        4 0.13685955E-03 0.20021201E+02</pdfrwt>
<pdfrwt beam="1">  1       -4 0.17330792E-01 0.20021201E+02</pdfrwt>
<totfact> 0.94117760E+05</totfact>
</mgrwt>
</event>
<event>
 4    1  0.4710515E-007  0.2001959E+02  0.7818608E-02  0.1744939E+00
         -4   -1    0    0    0  501 -0.00000000000E+00  0.00000000000E+00  0.38353336890E+02  0.38379615040E+02  0.14200000000E+01 0. -1.
          4   -1    0    0  501    0  0.00000000000E+00 -0.00000000000E+00 -0.23902118395E+01  0.27802001075E+01  0.14200000000E+01 0.  1.
        -13    1    1    2    0    0 -0.92847460310E+01 -0.37373788501E+01  0.17772672146E+02  0.20397390942E+02  0.10570000000E+00 0.  1.
         13    1    1    2    0    0  0.92847460310E+01  0.37373788501E+01  0.18190452904E+02  0.20762424206E+02  0.10570000000E+00 0. -1.
<mgrwt>
<rscale>  0 0.20019591E+02</rscale>
<asrwt>0</asrwt>
<pdfrwt beam="2">  1        4 0.39974542E-03 0.20019591E+02</pdfrwt>
<pdfrwt beam="1">  1       -4 0.59325334E-02 0.20019591E+02</pdfrwt>
<totfact> 0.11885396E+06</totfact>
</mgrwt>
</event>
<event>
 5    1  0.4710515E-007  0.2001023E+02  0.7818608E-02  0.1745125E+00
         -4   -1    0    0    0  501 -0.00000000000E+00  0.00000000000E+00  0.22743037603E+02  0.22787324534E+02  0.14200000000E+01 0. -1.
          4   -1    0    0  501    0  0.00000000000E+00 -0.00000000000E+00 -0.42369549340E+01  0.44685777505E+01  0.14200000000E+01 0.  1.
       1023    2    1    2    0    0  0.00000000000E+00  0.00000000000E+00  0.18506082669E+02  0.27255902284E+02  0.20010225226E+02 0.  0.
        -13    1    3    3    0    0 -0.97497517371E+01  0.22272075281E+01  0.88850386672E+01  0.13378086444E+02  0.10570000000E+00 0.  1.
         13    1    3    3    0    0  0.97497517371E+01 -0.22272075281E+01  0.96210440015E+01  0.13877815840E+02  0.10570000000E+00 0. -1.
<mgrwt>
<rscale>  0 0.20010225E+02</rscale>
<asrwt>0</asrwt>
<pdfrwt beam="2">  1        4 0.67306304E-03 0.20010225E+02</pdfrwt>
<pdfrwt beam="1">  1       -4 0.35201527E-02 0.20010225E+02</pdfrwt>
<totfact> 0.12588526E+06</totfact>
</mgrwt>
</event>
<event>
 5    1  0.4710515E-007  0.2000256E+02  0.7818608E-02  0.1745277E+00
          4   -1    0    0  501    0  0.00000000000E+00  0.00000000000E+00  0.61724911964E+00  0.15483528266E+01  0.14200000000E+01 0.  1.
         -4   -1    0    0    0  501 -0.00000000000E+00 -0.00000000000E+00 -0.91437760400E+02  0.91448785814E+02  0.14200000000E+01 0. -1.
       1023    2    1    2    0    0  0.00000000000E+00  0.00000000000E+00 -0.90820511280E+02  0.92997138641E+02  0.20002562992E+02 0.  0.
        -13    1    3    3    0    0  0.71564175375E+01  0.69848303129E+01 -0.45925728437E+02  0.47001977314E+02  0.10570000000E+00 0.  1.
         13    1    3    3    0    0 -0.71564175375E+01 -0.69848303129E+01 -0.44894782843E+02  0.45995161327E+02  0.10570000000E+00 0. -1.
<mgrwt>
<rscale>  0 0.20002563E+02</rscale>
<asrwt>0</asrwt>
<pdfrwt beam="1">  1        4 0.16743295E-03 0.20002563E+02</pdfrwt>
<pdfrwt beam="2">  1       -4 0.14139813E-01 0.20002563E+02</pdfrwt>
<totfact> 0.10002795E+06</totfact>
</mgrwt>
</event>
<event>
 5    1  0.4824331E-007  0.2000134E+02  0.7818608E-02  0.1745301E+00
          4   -1    0    0  501    0  0.00000000000E+00  0.00000000000E+00  0.29389729077E+02  0.29424013581E+02  0.14200000000E+01 0.  1.
         -4   -1    0    0    0  501 -0.00000000000E+00 -0.00000000000E+00 -0.32169168586E+01  0.35163836644E+01  0.14200000000E+01 0. -1.
       1023    2    1    2    0    0  0.00000000000E+00  0.00000000000E+00  0.26172812218E+02  0.32940397246E+02  0.20001341737E+02 0.  0.
        -13    1    3    3    0    0  0.94183175650E+00  0.99555635169E+01  0.13013618487E+02  0.16412365174E+02  0.10570000000E+00 0. -1.
         13    1    3    3    0    0 -0.94183175650E+00 -0.99555635169E+01  0.13159193732E+02  0.16528032072E+02  0.10570000000E+00 0.  1.
<mgrwt>
<rscale>  0 0.20001342E+02</rscale>
<asrwt>0</asrwt>
<pdfrwt beam="1">  1        4 0.45471702E-02 0.20001342E+02</pdfrwt>
<pdfrwt beam="2">  1       -4 0.52058343E-03 0.20001342E+02</pdfrwt>
<totfact> 0.12303034E+06</totfact>
</mgrwt>
</event>
<event>
 5    1  0.5044739E-007  0.2000257E+02  0.7818608E-02  0.1745277E+00
         -4   -1    0    0    0  501 -0.00000000000E+00  0.00000000000E+00  0.57350788109E+01  0.59082593856E+01  0.14200000000E+01 0.  1.
          4   -1    0    0  501    0  0.00000000000E+00 -0.00000000000E+00 -0.16978350947E+02  0.17037628969E+02  0.14200000000E+01 0. -1.
       1023    2    1    2    0    0  0.00000000000E+00  0.00000000000E+00 -0.11243272136E+02  0.22945888354E+02  0.20002565436E+02 0.  0.
        -13    1    3    3    0    0  0.33282017913E+01 -0.94305589457E+01 -0.56743839983E+01  0.11498790173E+02  0.10570000000E+00 0. -1.
         13    1    3    3    0    0 -0.33282017913E+01  0.94305589457E+01 -0.55688881376E+01  0.11447098181E+02  0.10570000000E+00 0.  1.
<mgrwt>
<rscale>  0 0.20002565E+02</rscale>
<asrwt>0</asrwt>
<pdfrwt beam="2">  1        4 0.26299354E-02 0.20002565E+02</pdfrwt>
<pdfrwt beam="1">  1       -4 0.90020126E-03 0.20002565E+02</pdfrwt>
<totfact> 0.12838318E+06</totfact>
</mgrwt>
</event>
<event>
 4    1  0.4710515E-007  0.2003447E+02  0.7818608E-02  0.1744643E+00
         -4   -1    0    0    0  501 -0.00000000000E+00  0.00000000000E+00  0.36272831344E+02  0.36300615610E+02  0.14200000000E+01 0. -1.
          4   -1    0    0  501    0  0.00000000000E+00 -0.00000000000E+00 -0.25533342023E+01  0.29216289204E+01  0.14200000000E+01 0.  1.
        -13    1    1    2    0    0  0.80152229108E+01  0.59850841412E+01  0.15844756876E+02  0.18738530451E+02  0.10570000000E+00 0.  1.
         13    1    1    2    0    0 -0.80152229108E+01 -0.59850841412E+01  0.17874740265E+02  0.20483714080E+02  0.10570000000E+00 0. -1.
<mgrwt>
<rscale>  0 0.20034470E+02</rscale>
<asrwt>0</asrwt>
<pdfrwt beam="2">  1        4 0.42328832E-03 0.20034470E+02</pdfrwt>
<pdfrwt beam="1">  1       -4 0.56109024E-02 0.20034470E+02</pdfrwt>
<totfact> 0.11957194E+06</totfact>
</mgrwt>
</event>
<event>
 4    1  0.4710515E-007  0.2003295E+02  0.7818608E-02  0.1744674E+00
          4   -1    0    0  501    0  0.00000000000E+00  0.00000000000E+00  0.18821583432E+01  0.23577362085E+01  0.14200000000E+01 0. -1.
         -4   -1    0    0    0  501 -0.00000000000E+00 -0.00000000000E+00 -0.46838991227E+02  0.46860511085E+02  0.14200000000E+01 0.  1.
        -13    1    1    2    0    0 -0.97913546439E+01 -0.20436107439E+01 -0.21197973072E+02  0.23439543628E+02  0.10570000000E+00 0. -1.
         13    1    1    2    0    0  0.97913546439E+01  0.20436107439E+01 -0.23758859812E+02  0.25778703666E+02  0.10570000000E+00 0.  1.
<mgrwt>
<rscale>  0 0.20032949E+02</rscale>
<asrwt>0</asrwt>
<pdfrwt beam="1">  1        4 0.32780114E-03 0.20032949E+02</pdfrwt>
<pdfrwt beam="2">  1       -4 0.72442361E-02 0.20032949E+02</pdfrwt>
<totfact> 0.11514898E+06</totfact>
</mgrwt>
</event>
<event>
 4    1  0.4710515E-007  0.2002472E+02  0.7818608E-02  0.1744837E+00
          4   -1    0    0  501    0  0.00000000000E+00  0.00000000000E+00  0.52632229161E+02  0.52651381240E+02  0.14200000000E+01 0. -1.
         -4   -1    0    0    0  501 -0.00000000000E+00 -0.00000000000E+00 -0.16177207455E+01  0.21525381322E+01  0.14200000000E+01 0.  1.
        -13    1    1    2    0    0 -0.98784349993E+01  0.16281896706E+01  0.25393576449E+02  0.27296142163E+02  0.10570000000E+00 0. -1.
         13    1    1    2    0    0  0.98784349993E+01 -0.16281896706E+01  0.25620931967E+02  0.27507777209E+02  0.10570000000E+00 0.  1.
<mgrwt>
<rscale>  0 0.20024722E+02</rscale>
<asrwt>0</asrwt>
<pdfrwt beam="1">  1        4 0.81398779E-02 0.20024722E+02</pdfrwt>
<pdfrwt beam="2">  1       -4 0.29149319E-03 0.20024722E+02</pdfrwt>
<totfact> 0.11294630E+06</totfact>
</mgrwt>
</event>
<event>
 4    1  0.4710515E-007  0.2003075E+02  0.7818608E-02  0.1744717E+00
          4   -1    0    0  501    0  0.00000000000E+00  0.00000000000E+00  0.55133062771E+00  0.15232745849E+01  0.14200000000E+01 0.  1.
         -4   -1    0    0    0  501 -0.00000000000E+00 -0.00000000000E+00 -0.95720917970E+02  0.95731450094E+02  0.14200000000E+01 0. -1.
        -13    1    1    2    0    0 -0.98484798331E+01 -0.17450448443E+01 -0.45114466130E+02  0.46209998520E+02  0.10570000000E+00 0. -1.
         13    1    1    2    0    0  0.98484798331E+01  0.17450448443E+01 -0.50055121213E+02  0.51044726159E+02  0.10570000000E+00 0.  1.
<mgrwt>
<rscale>  0 0.20030754E+02</rscale>
<asrwt>0</asrwt>
<pdfrwt beam="1">  1        4 0.16039526E-03 0.20030754E+02</pdfrwt>
<pdfrwt beam="2">  1       -4 0.14801863E-01 0.20030754E+02</pdfrwt>
<totfact> 0.98498709E+05</totfact>
</mgrwt>
</event>
<event>
 5    1  0.4710515E-007  0.2000943E+02  0.7818608E-02  0.1745141E+00
          4   -1    0    0  501    0  0.00000000000E+00  0.00000000000E+00  0.12287552581E+01  0.18778283959E+01  0.14200000000E+01 0.  1.
         -4   -1    0    0    0  501 -0.00000000000E+00 -0.00000000000E+00 -0.63781499837E+02  0.63797304970E+02  0.14200000000E+01 0. -1.
       1023    2    1    2    0    0  0.00000000000E+00  0.00000000000E+00 -0.62552744579E+02  0.65675133366E+02  0.20009429984E+02 0.  0.
        -13    1    3    3    0    0 -0.85000819892E+01  0.52717765574E+01 -0.30618883541E+02  0.32211336882E+02  0.10570000000E+00 0.  1.
         13    1    3    3    0    0  0.85000819892E+01 -0.52717765574E+01 -0.31933861038E+02  0.33463796484E+02  0.10570000000E+00 0. -1.
<mgrwt>
<rscale>  0 0.20009430E+02</rscale>
<asrwt>0</asrwt>
<pdfrwt beam="1">  1        4 0.24018380E-03 0.20009430E+02</pdfrwt>
<pdfrwt beam="2">  1       -4 0.98636809E-02 0.20009430E+02</pdfrwt>
<totfact> 0.10895879E+06</totfact>
</mgrwt>
</event>
<event>
 5    1  0.4710515E-007  0.2000346E+02  0.7818608E-02  0.1745259E+00
         -4   -1    0    0    0  501 -0.00000000000E+00  0.00000000000E+00  0.47173194348E+02  0.47194561816E+02  0.14200000000E+01 0. -1.
          4   -1    0    0  501    0  0.00000000000E+00 -0.00000000000E+00 -0.18584811836E+01  0.23388784299E+01  0.14200000000E+01 0.  1.
       1023    2    1    2    0    0  0.00000000000E+00  0.00000000000E+00  0.45314713164E+02  0.49533440246E+02  0.20003461536E+02 0.  0.
        -13    1    3    3    0    0 -0.92686201657E+01  0.37568817487E+01  0.22547571740E+02  0.24666285576E+02  0.10570000000E+00 0.  1.
         13    1    3    3    0    0  0.92686201657E+01 -0.37568817487E+01  0.22767141425E+02  0.24867154670E+02  0.10570000000E+00 0. -1.
<mgrwt>
<rscale>  0 0.20003462E+02</rscale>
<asrwt>0</asrwt>
<pdfrwt beam="2">  1        4 0.32451746E-03 0.20003462E+02</pdfrwt>
<pdfrwt beam="1">  1       -4 0.72960119E-02 0.20003462E+02</pdfrwt>
<totfact> 0.11535854E+06</totfact>
</mgrwt>
</event>
<event>
 5    1  0.4710515E-007  0.2000268E+02  0.7818608E-02  0.1745275E+00
          4   -1    0    0  501    0  0.00000000000E+00  0.00000000000E+00  0.53958565158E+01  0.55795759282E+01  0.14200000000E+01 0.  1.
         -4   -1    0    0    0  501 -0.00000000000E+00 -0.00000000000E+00 -0.18015283416E+02  0.18071160354E+02  0.14200000000E+01 0. -1.
       1023    2    1    2    0    0  0.00000000000E+00  0.00000000000E+00 -0.12619426900E+02  0.23650736283E+02  0.20002684605E+02 0.  0.
        -13    1    3    3    0    0  0.96610572542E+01  0.25823644435E+01 -0.64339587060E+01  0.11891662226E+02  0.10570000000E+00 0.  1.
         13    1    3    3    0    0 -0.96610572542E+01 -0.25823644435E+01 -0.61854681941E+01  0.11759074056E+02  0.10570000000E+00 0. -1.
<mgrwt>
<rscale>  0 0.20002685E+02</rscale>
<asrwt>0</asrwt>
<pdfrwt beam="1">  1        4 0.84856227E-03 0.20002685E+02</pdfrwt>
<pdfrwt beam="2">  1       -4 0.27900125E-02 0.20002685E+02</pdfrwt>
<totfact> 0.12798010E+06</totfact>
</mgrwt>
</event>
<event>
 4    1  0.4710515E-007  0.2004035E+02  0.7818608E-02  0.1744527E+00
          4   -1    0    0  501    0  0.00000000000E+00  0.00000000000E+00  0.10071913526E+02  0.10171521129E+02  0.14200000000E+01 0. -1.
         -4   -1    0    0    0  501 -0.00000000000E+00 -0.00000000000E+00 -0.97684553987E+01  0.98711256135E+01  0.14200000000E+01 0.  1.
        -13    1    1    2    0    0 -0.86719016199E+01 -0.50036019548E+01  0.54524295549E+00  0.10027281416E+02  0.10570000000E+00 0.  1.
         13    1    1    2    0    0  0.86719016199E+01  0.50036019548E+01 -0.24178482813E+00  0.10015365326E+02  0.10570000000E+00 0. -1.
<mgrwt>
<rscale>  0 0.20040349E+02</rscale>
<asrwt>0</asrwt>
<pdfrwt beam="1">  1        4 0.15650850E-02 0.20040349E+02</pdfrwt>
<pdfrwt beam="2">  1       -4 0.15183991E-02 0.20040349E+02</pdfrwt>
<totfact> 0.12958060E+06</totfact>
</mgrwt>
</event>
<event>
 5    1  0.4710515E-007  0.2000355E+02  0.7818608E-02  0.1745257E+00
          4   -1    0    0  501    0  0.00000000000E+00  0.00000000000E+00  0.12444391917E+01  0.18881284124E+01  0.14200000000E+01 0.  1.
         -4   -1    0    0    0  501 -0.00000000000E+00 -0.00000000000E+00 -0.63214759201E+02  0.63230705996E+02  0.14200000000E+01 0. -1.
       1023    2    1    2    0    0  0.00000000000E+00  0.00000000000E+00 -0.61970320009E+02  0.65118834409E+02  0.20003550504E+02 0.  0.
        -13    1    3    3    0    0  0.99892971624E+01  0.48676139455E+00 -0.31104381172E+02  0.32672873994E+02  0.10570000000E+00 0.  1.
         13    1    3    3    0    0 -0.99892971624E+01 -0.48676139455E+00 -0.30865938837E+02  0.32445960415E+02  0.10570000000E+00 0. -1.
<mgrwt>
<rscale>  0 0.20003551E+02</rscale>
<asrwt>0</asrwt>
<pdfrwt beam="1">  1        4 0.24219347E-03 0.20003551E+02</pdfrwt>
<pdfrwt beam="2">  1       -4 0.97760868E-02 0.20003551E+02</pdfrwt>
<totfact> 0.10922701E+06</totfact>
</mgrwt>
</event>
<event>
 5    1  0.4883483E-007  0.2000336E+02  0.7818608E-02  0.1745261E+00
         -4   -1    0    0    0  501 -0.00000000000E+00  0.00000000000E+00  0.94236979690E+01  0.95300830747E+01  0.14200000000E+01 0. -1.
          4   -1    0    0  501    0  0.00000000000E+00 -0.00000000000E+00 -0.10400634156E+02  0.10497122979E+02  0.14200000000E+01 0.  1.
       1023    2    1    2    0    0  0.00000000000E+00  0.00000000000E+00 -0.97693618659E+00  0.20027206054E+02  0.20003364167E+02 0.  0.
        -13    1    3    3    0    0 -0.56924961975E+01 -0.82229436281E+01 -0.52252546598E+00  0.10015264361E+02  0.10570000000E+00 0.  1.
         13    1    3    3    0    0  0.56924961975E+01  0.82229436281E+01 -0.45441072062E+00  0.10011941693E+02  0.10570000000E+00 0. -1.
<mgrwt>
<rscale>  0 0.20003364E+02</rscale>
<asrwt>0</asrwt>
<pdfrwt beam="2">  1        4 0.16157032E-02 0.20003364E+02</pdfrwt>
<pdfrwt beam="1">  1       -4 0.14654054E-02 0.20003364E+02</pdfrwt>
<totfact> 0.13007962E+06</totfact>
</mgrwt>
</event>
<event>
 5    1  0.5052114E-007  0.2000281E+02  0.7818608E-02  0.1745272E+00
          4   -1    0    0  501    0  0.00000000000E+00  0.00000000000E+00  0.92010536861E+01  0.93099832940E+01  0.14200000000E+01 0. -1.
         -4   -1    0    0    0  501 -0.00000000000E+00 -0.00000000000E+00 -0.10651078834E+02  0.10745318996E+02  0.14200000000E+01 0.  1.
       1023    2    1    2    0    0  0.00000000000E+00  0.00000000000E+00 -0.14500251481E+01  0.20055302290E+02  0.20002814228E+02 0.  0.
        -13    1    3    3    0    0  0.38446272570E+01  0.92316663999E+01 -0.83552203835E+00  0.10035641127E+02  0.10570000000E+00 0.  1.
         13    1    3    3    0    0 -0.38446272570E+01 -0.92316663999E+01 -0.61450310973E+00  0.10019661163E+02  0.10570000000E+00 0. -1.
<mgrwt>
<rscale>  0 0.20002814E+02</rscale>
<asrwt>0</asrwt>
<pdfrwt beam="1">  1        4 0.14311752E-02 0.20002814E+02</pdfrwt>
<pdfrwt beam="2">  1       -4 0.16542559E-02 0.20002814E+02</pdfrwt>
<totfact> 0.13007026E+06</totfact>
</mgrwt>
</event>
<event>
 5    1  0.4710515E-007  0.2000166E+02  0.7818608E-02  0.1745295E+00
         -4   -1    0    0    0  501 -0.00000000000E+00  0.00000000000E+00  0.38312280926E+01  0.40859158945E+01  0.14200000000E+01 0. -1.
          4   -1    0    0  501    0  0.00000000000E+00 -0.00000000000E+00 -0.24990346612E+02  0.25030657678E+02  0.14200000000E+01 0.  1.
       1023    2    1    2    0    0  0.00000000000E+00  0.00000000000E+00 -0.21159118519E+02  0.29116573572E+02  0.20001663933E+02 0.  0.
        -13    1    3    3    0    0  0.61541301770E+01 -0.78823717893E+01 -0.10551775884E+02  0.14538096507E+02  0.10570000000E+00 0.  1.
         13    1    3    3    0    0 -0.61541301770E+01  0.78823717893E+01 -0.10607342635E+02  0.14578477065E+02  0.10570000000E+00 0. -1.
<mgrwt>
<rscale>  0 0.20001664E+02</rscale>
<asrwt>0</asrwt>
<pdfrwt beam="2">  1        4 0.38673608E-02 0.20001664E+02</pdfrwt>
<pdfrwt beam="1">  1       -4 0.61211194E-03 0.20001664E+02</pdfrwt>
<totfact> 0.12500028E+06</totfact>
</mgrwt>
</event>
<event>
 5    1  0.5184133E-007  0.2000186E+02  0.7818608E-02  0.1745291E+00
         -4   -1    0    0    0  501 -0.00000000000E+00  0.00000000000E+00  0.35117444252E+01  0.37879742486E+01  0.14200000000E+01 0. -1.
          4   -1    0    0  501    0  0.00000000000E+00 -0.00000000000E+00 -0.27107883878E+02  0.27145050532E+02  0.14200000000E+01 0.  1.
       1023    2    1    2    0    0  0.00000000000E+00  0.00000000000E+00 -0.23596139453E+02  0.30933024780E+02  0.20001855538E+02 0.  0.
        -13    1    3    3    0    0 -0.89755916158E+01  0.44090322704E+01 -0.11672684908E+02  0.15370867115E+02  0.10570000000E+00 0.  1.
         13    1    3    3    0    0  0.89755916158E+01 -0.44090322704E+01 -0.11923454545E+02  0.15562157665E+02  0.10570000000E+00 0. -1.
<mgrwt>
<rscale>  0 0.20001856E+02</rscale>
<asrwt>0</asrwt>
<pdfrwt beam="2">  1        4 0.41945510E-02 0.20001856E+02</pdfrwt>
<pdfrwt beam="1">  1       -4 0.56437581E-03 0.20001856E+02</pdfrwt>
<totfact> 0.12404954E+06</totfact>
</mgrwt>
</event>
<event>
 5    1  0.4710515E-007  0.2000197E+02  0.7818608E-02  0.1745289E+00
          4   -1    0    0  501    0  0.00000000000E+00  0.00000000000E+00  0.58687013553E+02  0.58704190308E+02  0.14200000000E+01 0. -1.
         -4   -1    0    0    0  501 -0.00000000000E+00 -0.00000000000E+00 -0.13879742860E+01  0.19856667945E+01  0.14200000000E+01 0.  1.
       1023    2    1    2    0    0  0.00000000000E+00  0.00000000000E+00  0.57299039267E+02  0.60689857103E+02  0.20001971259E+02 0.  0.
        -13    1    3    3    0    0 -0.99394518965E+01  0.11022432809E+01  0.28558654746E+02  0.30259140399E+02  0.10570000000E+00 0.  1.
         13    1    3    3    0    0  0.99394518965E+01 -0.11022432809E+01  0.28740384520E+02  0.30430716704E+02  0.10570000000E+00 0. -1.
<mgrwt>
<rscale>  0 0.20001971E+02</rscale>
<asrwt>0</asrwt>
<pdfrwt beam="1">  1        4 0.90760693E-02 0.20001971E+02</pdfrwt>
<pdfrwt beam="2">  1       -4 0.26083213E-03 0.20001971E+02</pdfrwt>
<totfact> 0.11090249E+06</totfact>
</mgrwt>
</event>
<event>
 5    1  0.4710515E-007  0.2000589E+02  0.7818608E-02  0.1745211E+00
          4   -1    0    0  501    0  0.00000000000E+00  0.00000000000E+00  0.15539355894E+01  0.21050215714E+01  0.14200000000E+01 0. -1.
         -4   -1    0    0    0  501 -0.00000000000E+00 -0.00000000000E+00 -0.54130775469E+02  0.54149397530E+02  0.14200000000E+01 0.  1.
       1023    2    1    2    0    0  0.00000000000E+00  0.00000000000E+00 -0.52576839880E+02  0.56254419102E+02  0.20005888551E+02 0.  0.
        -13    1    3    3    0    0 -0.45626047399E+01 -0.89011014502E+01 -0.26211277011E+02  0.28055109768E+02  0.10570000000E+00 0. -1.
         13    1    3    3    0    0  0.45626047399E+01  0.89011014502E+01 -0.26365562869E+02  0.28199309334E+02  0.10570000000E+00 0.  1.
<mgrwt>
<rscale>  0 0.20005889E+02</rscale>
<asrwt>0</asrwt>
<pdfrwt beam="1">  1        4 0.28289075E-03 0.20005889E+02</pdfrwt>
<pdfrwt beam="2">  1       -4 0.83716341E-02 0.20005889E+02</pdfrwt>
<totfact> 0.11258217E+06</totfact>
</mgrwt>
</event>
<event>
 4    1  0.4710515E-007  0.2001531E+02  0.7818608E-02  0.1745024E+00
          4   -1    0    0  501    0  0.00000000000E+00  0.00000000000E+00  0.11323621772E+02  0.11412309584E+02  0.14200000000E+01 0.  1.
         -4   -1    0    0    0  501 -0.00000000000E+00 -0.00000000000E+00 -0.86634062746E+01  0.87790095272E+01  0.14200000000E+01 0. -1.
        -13    1    1    2    0    0 -0.98002412843E+01  0.20240871609E+01  0.13482851926E+01  0.10098054442E+02  0.10570000000E+00 0. -1.
         13    1    1    2    0    0  0.98002412843E+01 -0.20240871609E+01  0.13119303050E+01  0.10093264669E+02  0.10570000000E+00 0.  1.
<mgrwt>
<rscale>  0 0.20015310E+02</rscale>
<asrwt>0</asrwt>
<pdfrwt beam="1">  1        4 0.17578103E-02 0.20015310E+02</pdfrwt>
<pdfrwt beam="2">  1       -4 0.13485464E-02 0.20015310E+02</pdfrwt>
<totfact> 0.12982367E+06</totfact>
</mgrwt>
</event>
<event>
 5    1  0.4710515E-007  0.2000200E+02  0.7818608E-02  0.1745288E+00
         -4   -1    0    0    0  501 -0.00000000000E+00  0.00000000000E+00  0.17796692904E+02  0.17853253998E+02  0.14200000000E+01 0.  1.
          4   -1    0    0  501    0  0.00000000000E+00 -0.00000000000E+00 -0.54637675367E+01  0.56452772913E+01  0.14200000000E+01 0. -1.
       1023    2    1    2    0    0  0.00000000000E+00  0.00000000000E+00  0.12332925368E+02  0.23498531290E+02  0.20001998016E+02 0.  0.
        -13    1    3    3    0    0  0.66996624113E+01  0.74241621458E+01  0.60821650785E+01  0.11705023047E+02  0.10570000000E+00 0. -1.
         13    1    3    3    0    0 -0.66996624113E+01 -0.74241621458E+01  0.62507602891E+01  0.11793508243E+02  0.10570000000E+00 0.  1.
<mgrwt>
<rscale>  0 0.20001998E+02</rscale>
<asrwt>0</asrwt>
<pdfrwt beam="2">  1        4 0.85889275E-03 0.20001998E+02</pdfrwt>
<pdfrwt beam="1">  1       -4 0.27562659E-02 0.20001998E+02</pdfrwt>
<totfact> 0.12807542E+06</totfact>
</mgrwt>
</event>
<event>
 5    1  0.4710515E-007  0.2000138E+02  0.7818608E-02  0.1745301E+00
          4   -1    0    0  501    0  0.00000000000E+00  0.00000000000E+00  0.20251024985E+01  0.24733459381E+01  0.14200000000E+01 0.  1.
         -4   -1    0    0    0  501 -0.00000000000E+00 -0.00000000000E+00 -0.44005094471E+02  0.44027999493E+02  0.14200000000E+01 0. -1.
       1023    2    1    2    0    0  0.00000000000E+00  0.00000000000E+00 -0.41979991972E+02  0.46501345431E+02  0.20001384975E+02 0.  0.
        -13    1    3    3    0    0  0.59212132393E+01 -0.80585226184E+01 -0.21097162014E+02  0.23347418927E+02  0.10570000000E+00 0. -1.
         13    1    3    3    0    0 -0.59212132393E+01  0.80585226184E+01 -0.20882829958E+02  0.23153926504E+02  0.10570000000E+00 0.  1.
<mgrwt>
<rscale>  0 0.20001385E+02</rscale>
<asrwt>0</asrwt>
<pdfrwt beam="1">  1        4 0.34779645E-03 0.20001385E+02</pdfrwt>
<pdfrwt beam="2">  1       -4 0.68062561E-02 0.20001385E+02</pdfrwt>
<totfact> 0.11668297E+06</totfact>
</mgrwt>
</event>
<event>
 5    1  0.4710515E-007  0.2000832E+02  0.7818608E-02  0.1745163E+00
          4   -1    0    0  501    0  0.00000000000E+00  0.00000000000E+00  0.87709540789E+02  0.87721034795E+02  0.14200000000E+01 0.  1.
         -4   -1    0    0    0  501 -0.00000000000E+00 -0.00000000000E+00 -0.68316563320E+00  0.15757903675E+01  0.14200000000E+01 0. -1.
       1023    2    1    2    0    0  0.00000000000E+00  0.00000000000E+00  0.87026375156E+02  0.89296825162E+02  0.20008323549E+02 0.  0.
        -13    1    3    3    0    0 -0.10002785475E+02  0.78537393142E-01  0.43963815015E+02  0.45087582421E+02  0.10570000000E+00 0. -1.
         13    1    3    3    0    0  0.10002785475E+02 -0.78537393142E-01  0.43062560141E+02  0.44209242741E+02  0.10570000000E+00 0.  1.
<mgrwt>
<rscale>  0 0.20008324E+02</rscale>
<asrwt>0</asrwt>
<pdfrwt beam="1">  1        4 0.13563329E-01 0.20008324E+02</pdfrwt>
<pdfrwt beam="2">  1       -4 0.17464993E-03 0.20008324E+02</pdfrwt>
<totfact> 0.10108765E+06</totfact>
</mgrwt>
</event>
<event>
 5    1  0.4710515E-007  0.2000897E+02  0.7818608E-02  0.1745150E+00
          4   -1    0    0  501    0  0.00000000000E+00  0.00000000000E+00  0.15242822657E+02  0.15308822376E+02  0.14200000000E+01 0. -1.
         -4   -1    0    0    0  501 -0.00000000000E+00 -0.00000000000E+00 -0.64082794971E+01  0.65637219710E+01  0.14200000000E+01 0.  1.
       1023    2    1    2    0    0  0.00000000000E+00  0.00000000000E+00  0.88345431596E+01  0.21872544347E+02  0.20008974071E+02 0.  0.
        -13    1    3    3    0    0  0.21647772114E+01 -0.97668013602E+01  0.43693830875E+01  0.10916929524E+02  0.10570000000E+00 0. -1.
         13    1    3    3    0    0 -0.21647772114E+01  0.97668013602E+01  0.44651600721E+01  0.10955614823E+02  0.10570000000E+00 0.  1.
<mgrwt>
<rscale>  0 0.20008974E+02</rscale>
<asrwt>0</asrwt>
<pdfrwt beam="1">  1        4 0.23620837E-02 0.20008974E+02</pdfrwt>
<pdfrwt beam="2">  1       -4 0.10029232E-02 0.20008974E+02</pdfrwt>
<totfact> 0.12891829E+06</totfact>
</mgrwt>
</event>
<event>
 4    1  0.4710515E-007  0.2002547E+02  0.7818608E-02  0.1744822E+00
          4   -1    0    0  501    0  0.00000000000E+00  0.00000000000E+00  0.18970257666E+01  0.23696216489E+01  0.14200000000E+01 0.  1.
         -4   -1    0    0    0  501 -0.00000000000E+00 -0.00000000000E+00 -0.46510056976E+02  0.46531728959E+02  0.14200000000E+01 0. -1.
        -13    1    1    2    0    0  0.83761064181E+01 -0.54676794360E+01 -0.21244798223E+02  0.23482063393E+02  0.10570000000E+00 0.  1.
         13    1    1    2    0    0 -0.83761064181E+01  0.54676794360E+01 -0.23368232987E+02  0.25419287216E+02  0.10570000000E+00 0. -1.
<mgrwt>
<rscale>  0 0.20025472E+02</rscale>
<asrwt>0</asrwt>
<pdfrwt beam="1">  1        4 0.32987076E-03 0.20025472E+02</pdfrwt>
<pdfrwt beam="2">  1       -4 0.71934132E-02 0.20025472E+02</pdfrwt>
<totfact> 0.11536993E+06</totfact>
</mgrwt>
</event>
<event>
 5    1  0.4710515E-007  0.2000559E+02  0.7818608E-02  0.1745217E+00
         -4   -1    0    0    0  501 -0.00000000000E+00  0.00000000000E+00  0.23022635487E+02  0.23066385603E+02  0.14200000000E+01 0. -1.
          4   -1    0    0  501    0  0.00000000000E+00 -0.00000000000E+00 -0.41807071216E+01  0.44152816486E+01  0.14200000000E+01 0.  1.
       1023    2    1    2    0    0  0.00000000000E+00  0.00000000000E+00  0.18841928365E+02  0.27481667251E+02  0.20005593477E+02 0.  0.
        -13    1    3    3    0    0  0.99965929847E+01 -0.33600387183E+00  0.94215819780E+01  0.13741257197E+02  0.10570000000E+00 0. -1.
         13    1    3    3    0    0 -0.99965929847E+01  0.33600387183E+00  0.94203463874E+01  0.13740410054E+02  0.10570000000E+00 0.  1.
<mgrwt>
<rscale>  0 0.20005593E+02</rscale>
<asrwt>0</asrwt>
<pdfrwt beam="2">  1        4 0.66459529E-03 0.20005593E+02</pdfrwt>
<pdfrwt beam="1">  1       -4 0.35633535E-02 0.20005593E+02</pdfrwt>
<totfact> 0.12582265E+06</totfact>
</mgrwt>
</event>
<event>
 5    1  0.4710515E-007  0.2000240E+02  0.7818608E-02  0.1745280E+00
          4   -1    0    0  501    0  0.00000000000E+00  0.00000000000E+00  0.23804024437E+02  0.23846341007E+02  0.14200000000E+01 0.  1.
         -4   -1    0    0    0  501 -0.00000000000E+00 -0.00000000000E+00 -0.40345219892E+01  0.42771214247E+01  0.14200000000E+01 0. -1.
       1023    2    1    2    0    0  0.00000000000E+00  0.00000000000E+00  0.19769502448E+02  0.28123462431E+02  0.20002397658E+02 0.  0.
        -13    1    3    3    0    0 -0.72813616744E+01  0.68548136665E+01  0.97748731145E+01  0.13984491951E+02  0.10570000000E+00 0. -1.
         13    1    3    3    0    0  0.72813616744E+01 -0.68548136665E+01  0.99946293335E+01  0.14138970480E+02  0.10570000000E+00 0.  1.
<mgrwt>
<rscale>  0 0.20002398E+02</rscale>
<asrwt>0</asrwt>
<pdfrwt beam="1">  1        4 0.36840741E-02 0.20002398E+02</pdfrwt>
<pdfrwt beam="2">  1       -4 0.64261232E-03 0.20002398E+02</pdfrwt>
<totfact> 0.12551878E+06</totfact>
</mgrwt>
</event>
<event>
 5    1  0.4710515E-007  0.2000242E+02  0.7818608E-02  0.1745280E+00
          4   -1    0    0  501    0  0.00000000000E+00  0.00000000000E+00  0.49630950615E+02  0.49651260396E+02  0.14200000000E+01 0. -1.
         -4   -1    0    0    0  501 -0.00000000000E+00 -0.00000000000E+00 -0.17418522049E+01  0.22473204274E+01  0.14200000000E+01 0.  1.
       1023    2    1    2    0    0  0.00000000000E+00  0.00000000000E+00  0.47889098410E+02  0.51898580824E+02  0.20002423478E+02 0.  0.
        -13    1    3    3    0    0 -0.63035165241E+01  0.77633119366E+01  0.23688601786E+02  0.25713116495E+02  0.10570000000E+00 0.  1.
         13    1    3    3    0    0  0.63035165241E+01 -0.77633119366E+01  0.24200496624E+02  0.26185464329E+02  0.10570000000E+00 0. -1.
<mgrwt>
<rscale>  0 0.20002423E+02</rscale>
<asrwt>0</asrwt>
<pdfrwt beam="1">  1        4 0.76759748E-02 0.20002423E+02</pdfrwt>
<pdfrwt beam="2">  1       -4 0.30842175E-03 0.20002423E+02</pdfrwt>
<totfact> 0.11438308E+06</totfact>
</mgrwt>
</event>
<event>
 5    1  0.4710515E-007  0.2000210E+02  0.7818608E-02  0.1745286E+00
          4   -1    0    0  501    0  0.00000000000E+00  0.00000000000E+00  0.50113992000E+00  0.15058357213E+01  0.14200000000E+01 0. -1.
         -4   -1    0    0    0  501 -0.00000000000E+00 -0.00000000000E+00 -0.98660975162E+02  0.98671193465E+02  0.14200000000E+01 0.  1.
       1023    2    1    2    0    0  0.00000000000E+00  0.00000000000E+00 -0.98159835242E+02  0.10017702919E+03  0.20002097939E+02 0.  0.
        -13    1    3    3    0    0  0.58914357583E+01 -0.80808110904E+01 -0.49259438456E+02  0.50264420544E+02  0.10570000000E+00 0.  1.
         13    1    3    3    0    0 -0.58914357583E+01  0.80808110904E+01 -0.48900396786E+02  0.49912608642E+02  0.10570000000E+00 0. -1.
<mgrwt>
<rscale>  0 0.20002098E+02</rscale>
<asrwt>0</asrwt>
<pdfrwt beam="1">  1        4 0.15516884E-03 0.20002098E+02</pdfrwt>
<pdfrwt beam="2">  1       -4 0.15256674E-01 0.20002098E+02</pdfrwt>
<totfact> 0.97941623E+05</totfact>
</mgrwt>
</event>
<event>
 4    1  0.4710515E-007  0.2141610E+02  0.7818608E-02  0.1718550E+00
         -4   -1    0    0    0  501 -0.00000000000E+00  0.00000000000E+00  0.68317506474E+02  0.68332262445E+02  0.14200000000E+01 0.  1.
          4   -1    0    0  501    0  0.00000000000E+00 -0.00000000000E+00 -0.13603514475E+01  0.19664577444E+01  0.14200000000E+01 0. -1.
        -13    1    1    2    0    0 -0.45243736380E+01  0.97005864121E+01  0.34406181644E+02  0.36032871678E+02  0.10570000000E+00 0. -1.
         13    1    1    2    0    0  0.45243736380E+01 -0.97005864121E+01  0.32550973383E+02  0.34265848512E+02  0.10570000000E+00 0.  1.
<mgrwt>
<rscale>  0 0.21416103E+02</rscale>
<asrwt>0</asrwt>
<pdfrwt beam="2">  1        4 0.25704349E-03 0.21416103E+02</pdfrwt>
<pdfrwt beam="1">  1       -4 0.10558144E-01 0.21416103E+02</pdfrwt>
<totfact> 0.93454767E+05</totfact>
</mgrwt>
</event>
<event>
 4    1  0.4710515E-007  0.2006734E+02  0.7818608E-02  0.1743992E+00
         -4   -1    0    0    0  501 -0.00000000000E+00  0.00000000000E+00  0.17128720706E+02  0.17187480124E+02  0.14200000000E+01 0.  1.
          4   -1    0    0  501    0  0.00000000000E+00 -0.00000000000E+00 -0.57217692937E+01  0.58953408596E+01  0.14200000000E+01 0. -1.
        -13    1    1    2    0    0  0.56737202055E+00 -0.10016657462E+02  0.56005231266E+01  0.11490533908E+02  0.10570000000E+00 0. -1.
         13    1    1    2    0    0 -0.56737202055E+00  0.10016657462E+02  0.58064282853E+01  0.11592287075E+02  0.10570000000E+00 0.  1.
<mgrwt>
<rscale>  0 0.20067339E+02</rscale>
<asrwt>0</asrwt>
<pdfrwt beam="2">  1        4 0.89814381E-03 0.20067339E+02</pdfrwt>
<pdfrwt beam="1">  1       -4 0.26530594E-02 0.20067339E+02</pdfrwt>
<totfact> 0.12746173E+06</totfact>
</mgrwt>
</event>
<event>
 5    1  0.4710515E-007  0.2000420E+02  0.7818608E-02  0.1745245E+00
         -4   -1    0    0    0  501 -0.00000000000E+00  0.00000000000E+00  0.40303045278E+01  0.42731434082E+01  0.14200000000E+01 0.  1.
          4   -1    0    0  501    0  0.00000000000E+00 -0.00000000000E+00 -0.23831895613E+02  0.23874162781E+02  0.14200000000E+01 0. -1.
       1023    2    1    2    0    0  0.00000000000E+00  0.00000000000E+00 -0.19801591085E+02  0.28147306189E+02  0.20004195465E+02 0.  0.
        -13    1    3    3    0    0  0.65227945187E+01  0.75817999137E+01 -0.98786235597E+01  0.14058055135E+02  0.10570000000E+00 0. -1.
         13    1    3    3    0    0 -0.65227945187E+01 -0.75817999137E+01 -0.99229675253E+01  0.14089251054E+02  0.10570000000E+00 0.  1.
<mgrwt>
<rscale>  0 0.20004195E+02</rscale>
<asrwt>0</asrwt>
<pdfrwt beam="2">  1        4 0.36883766E-02 0.20004195E+02</pdfrwt>
<pdfrwt beam="1">  1       -4 0.64197810E-03 0.20004195E+02</pdfrwt>
<totfact> 0.12548309E+06</totfact>
</mgrwt>
</event>
<event>
 5    1  0.4710515E-007  0.2000290E+02  0.7818608E-02  0.1745270E+00
          4   -1    0    0  501    0  0.00000000000E+00  0.00000000000E+00  0.11421313888E+01  0.18223238212E+01  0.14200000000E+01 0.  1.
         -4   -1    0    0    0  501 -0.00000000000E+00 -0.00000000000E+00 -0.66796121521E+02  0.66811213507E+02  0.14200000000E+01 0. -1.
       1023    2    1    2    0    0  0.00000000000E+00  0.00000000000E+00 -0.65653990133E+02  0.68633537328E+02  0.20002900436E+02 0.  0.
        -13    1    3    3    0    0  0.86586253647E+01  0.50044393144E+01 -0.32965434571E+02  0.34449198177E+02  0.10570000000E+00 0. -1.
         13    1    3    3    0    0 -0.86586253647E+01 -0.50044393144E+01 -0.32688555561E+02  0.34184339152E+02  0.10570000000E+00 0.  1.
<mgrwt>
<rscale>  0 0.20002900E+02</rscale>
<asrwt>0</asrwt>
<pdfrwt beam="1">  1        4 0.22919599E-03 0.20002900E+02</pdfrwt>
<pdfrwt beam="2">  1       -4 0.10329807E-01 0.20002900E+02</pdfrwt>
<totfact> 0.10796165E+06</totfact>
</mgrwt>
</event>
<event>
 5    1  0.4930509E-007  0.2000170E+02  0.7818608E-02  0.1745294E+00
         -4   -1    0    0    0  501 -0.00000000000E+00  0.00000000000E+00  0.10816259219E+02  0.10909072531E+02  0.14200000000E+01 0.  1.
          4   -1    0    0  501    0  0.00000000000E+00 -0.00000000000E+00 -0.90590491447E+01  0.91696658285E+01  0.14200000000E+01 0. -1.
       1023    2    1    2    0    0  0.00000000000E+00  0.00000000000E+00  0.17572100739E+01  0.20078738359E+02  0.20001698599E+02 0.  0.
        -13    1    3    3    0    0  0.15511631670E+00  0.99989587991E+01  0.92955569353E+00  0.10043828175E+02  0.10570000000E+00 0.  1.
         13    1    3    3    0    0 -0.15511631670E+00 -0.99989587991E+01  0.82765438037E+00  0.10034910184E+02  0.10570000000E+00 0. -1.
<mgrwt>
<rscale>  0 0.20001699E+02</rscale>
<asrwt>0</asrwt>
<pdfrwt beam="2">  1        4 0.14093483E-02 0.20001699E+02</pdfrwt>
<pdfrwt beam="1">  1       -4 0.16796883E-02 0.20001699E+02</pdfrwt>
<totfact> 0.13007117E+06</totfact>
</mgrwt>
</event>
<event>
 5    1  0.4710515E-007  0.2000773E+02  0.7818608E-02  0.1745174E+00
         -4   -1    0    0    0  501 -0.00000000000E+00  0.00000000000E+00  0.10910854103E+01  0.17907728422E+01  0.14200000000E+01 0. -1.
          4   -1    0    0  501    0  0.00000000000E+00 -0.00000000000E+00 -0.68744498282E+02  0.68759162619E+02  0.14200000000E+01 0.  1.
       1023    2    1    2    0    0  0.00000000000E+00  0.00000000000E+00 -0.67653412872E+02  0.70549935461E+02  0.20007726517E+02 0.  0.
        -13    1    3    3    0    0 -0.90387658825E+01 -0.42800076577E+01 -0.33051330582E+02  0.34531425976E+02  0.10570000000E+00 0.  1.
         13    1    3    3    0    0  0.90387658825E+01  0.42800076577E+01 -0.34602082289E+02  0.36018509484E+02  0.10570000000E+00 0. -1.
<mgrwt>
<rscale>  0 0.20007727E+02</rscale>
<asrwt>0</asrwt>
<pdfrwt beam="2">  1        4 0.10631024E-01 0.20007727E+02</pdfrwt>
<pdfrwt beam="1">  1       -4 0.22280948E-03 0.20007727E+02</pdfrwt>
<totfact> 0.10723115E+06</totfact>
</mgrwt>
</event>
<event>
 5    1  0.4710515E-007  0.2000637E+02  0.7818608E-02  0.1745201E+00
         -4   -1    0    0    0  501 -0.00000000000E+00  0.00000000000E+00  0.35435049771E+01  0.38174372978E+01  0.14200000000E+01 0. -1.
          4   -1    0    0  501    0  0.00000000000E+00 -0.00000000000E+00 -0.26894384187E+02  0.26931845477E+02  0.14200000000E+01 0.  1.
       1023    2    1    2    0    0  0.00000000000E+00  0.00000000000E+00 -0.23350879210E+02  0.30749282775E+02  0.20006369768E+02 0.  0.
        -13    1    3    3    0    0 -0.73105680882E+00 -0.99749440561E+01 -0.11465923679E+02  0.15215535852E+02  0.10570000000E+00 0. -1.
         13    1    3    3    0    0  0.73105680882E+00  0.99749440561E+01 -0.11884955531E+02  0.15533746922E+02  0.10570000000E+00 0.  1.
<mgrwt>
<rscale>  0 0.20006370E+02</rscale>
<asrwt>0</asrwt>
<pdfrwt beam="2">  1        4 0.41615508E-02 0.20006370E+02</pdfrwt>
<pdfrwt beam="1">  1       -4 0.56910798E-03 0.20006370E+02</pdfrwt>
<totfact> 0.12408759E+06</totfact>
</mgrwt>
</event>
<event>
 5    1  0.4710515E-007  0.2000210E+02  0.7818608E-02  0.1745286E+00
          4   -1    0    0  501    0  0.00000000000E+00  0.00000000000E+00  0.59256991082E+00  0.15386809608E+01  0.14200000000E+01 0. -1.
         -4   -1    0    0    0  501 -0.00000000000E+00 -0.00000000000E+00 -0.92907384241E+02  0.92918235274E+02  0.14200000000E+01 0.  1.
       1023    2    1    2    0    0  0.00000000000E+00  0.00000000000E+00 -0.92314814330E+02  0.94456916235E+02  0.20002101886E+02 0.  0.
        -13    1    3    3    0    0  0.82364632459E+01 -0.56717277847E+01 -0.46369892236E+02  0.47436124434E+02  0.10570000000E+00 0. -1.
         13    1    3    3    0    0 -0.82364632459E+01  0.56717277847E+01 -0.45944922094E+02  0.47020791801E+02  0.10570000000E+00 0.  1.
<mgrwt>
<rscale>  0 0.20002102E+02</rscale>
<asrwt>0</asrwt>
<pdfrwt beam="1">  1        4 0.16477714E-03 0.20002102E+02</pdfrwt>
<pdfrwt beam="2">  1       -4 0.14367050E-01 0.20002102E+02</pdfrwt>
<totfact> 0.99599245E+05</totfact>
</mgrwt>
</event>
<event>
 4    1  0.4710515E-007  0.2010668E+02  0.7818608E-02  0.1743215E+00
         -4   -1    0    0    0  501 -0.00000000000E+00  0.00000000000E+00  0.44217874293E+02  0.44240669152E+02  0.14200000000E+01 0. -1.
          4   -1    0    0  501    0  0.00000000000E+00 -0.00000000000E+00 -0.20394497944E+01  0.24851067309E+01  0.14200000000E+01 0.  1.
        -13    1    1    2    0    0  0.46410029592E+01  0.89080687526E+01  0.20142700586E+02  0.22508490770E+02  0.10570000000E+00 0. -1.
         13    1    1    2    0    0 -0.46410029592E+01 -0.89080687526E+01  0.22035723913E+02  0.24217285113E+02  0.10570000000E+00 0.  1.
<mgrwt>
<rscale>  0 0.20106681E+02</rscale>
<asrwt>0</asrwt>
<pdfrwt beam="2">  1        4 0.34979625E-03 0.20106681E+02</pdfrwt>
<pdfrwt beam="1">  1       -4 0.68387849E-02 0.20106681E+02</pdfrwt>
<totfact> 0.11535474E+06</totfact>
</mgrwt>
</event>
<event>
 5    1  0.4710515E-007  0.2000908E+02  0.7818608E-02  0.1745148E+00
          4   -1    0    0  501    0  0.00000000000E+00  0.00000000000E+00  0.27852203371E+01  0.31263160951E+01  0.14200000000E+01 0.  1.
         -4   -1    0    0    0  501 -0.00000000000E+00 -0.00000000000E+00 -0.33505883695E+02  0.33535960433E+02  0.14200000000E+01 0. -1.
       1023    2    1    2    0    0  0.00000000000E+00  0.00000000000E+00 -0.30720663358E+02  0.36662276528E+02  0.20009082015E+02 0.  0.
        -13    1    3    3    0    0 -0.89099069097E+01  0.45430782816E+01 -0.14935863248E+02  0.17975460630E+02  0.10570000000E+00 0. -1.
         13    1    3    3    0    0  0.89099069097E+01 -0.45430782816E+01 -0.15784800110E+02  0.18686815898E+02  0.10570000000E+00 0.  1.
<mgrwt>
<rscale>  0 0.20009082E+02</rscale>
<asrwt>0</asrwt>
<pdfrwt beam="1">  1        4 0.45704719E-03 0.20009082E+02</pdfrwt>
<pdfrwt beam="2">  1       -4 0.51833028E-02 0.20009082E+02</pdfrwt>
<totfact> 0.12109737E+06</totfact>
</mgrwt>
</event>
<event>
 5    1  0.4710515E-007  0.2000331E+02  0.7818608E-02  0.1745262E+00
         -4   -1    0    0    0  501 -0.00000000000E+00  0.00000000000E+00  0.22662324827E+01  0.26743615436E+01  0.14200000000E+01 0.  1.
          4   -1    0    0  501    0  0.00000000000E+00 -0.00000000000E+00 -0.40072634940E+02  0.40097786361E+02  0.14200000000E+01 0. -1.
       1023    2    1    2    0    0  0.00000000000E+00  0.00000000000E+00 -0.37806402458E+02  0.42772147905E+02  0.20003313965E+02 0.  0.
        -13    1    3    3    0    0 -0.94433240351E+01  0.32928352463E+01 -0.19017094399E+02  0.21486744394E+02  0.10570000000E+00 0. -1.
         13    1    3    3    0    0  0.94433240351E+01 -0.32928352463E+01 -0.18789308059E+02  0.21285403510E+02  0.10570000000E+00 0.  1.
<mgrwt>
<rscale>  0 0.20003314E+02</rscale>
<asrwt>0</asrwt>
<pdfrwt beam="2">  1        4 0.61983495E-02 0.20003314E+02</pdfrwt>
<pdfrwt beam="1">  1       -4 0.38198045E-03 0.20003314E+02</pdfrwt>
<totfact> 0.11831502E+06</totfact>
</mgrwt>
</event>
<event>
 5    1  0.4710515E-007  0.2000886E+02  0.7818608E-02  0.1745152E+00
         -4   -1    0    0    0  501 -0.00000000000E+00  0.00000000000E+00  0.38289286364E+01  0.40837598488E+01  0.14200000000E+01 0.  1.
          4   -1    0    0  501    0  0.00000000000E+00 -0.00000000000E+00 -0.25022648493E+02  0.25062907605E+02  0.14200000000E+01 0. -1.
       1023    2    1    2    0    0  0.00000000000E+00  0.00000000000E+00 -0.21193719857E+02  0.29146667454E+02  0.20008859595E+02 0.  0.
        -13    1    3    3    0    0  0.47124935356E+01  0.88243822299E+01 -0.10580507303E+02  0.14561443072E+02  0.10570000000E+00 0.  1.
         13    1    3    3    0    0 -0.47124935356E+01 -0.88243822299E+01 -0.10613212554E+02  0.14585224382E+02  0.10570000000E+00 0. -1.
<mgrwt>
<rscale>  0 0.20008860E+02</rscale>
<asrwt>0</asrwt>
<pdfrwt beam="2">  1        4 0.38723374E-02 0.20008860E+02</pdfrwt>
<pdfrwt beam="1">  1       -4 0.61176521E-03 0.20008860E+02</pdfrwt>
<totfact> 0.12489303E+06</totfact>
</mgrwt>
</event>
<event>
 5    1  0.4791380E-007  0.2000191E+02  0.7818608E-02  0.1745290E+00
         -4   -1    0    0    0  501 -0.00000000000E+00  0.00000000000E+00  0.80787924289E+01  0.82026390332E+01  0.14200000000E+01 0. -1.
          4   -1    0    0  501    0  0.00000000000E+00 -0.00000000000E+00 -0.12120670501E+02  0.12203567241E+02  0.14200000000E+01 0.  1.
       1023    2    1    2    0    0  0.00000000000E+00  0.00000000000E+00 -0.40418780725E+01  0.20406206274E+02  0.20001911812E+02 0.  0.
        -13    1    3    3    0    0 -0.91703012982E+00 -0.99582592108E+01 -0.20120580098E+01  0.10201344063E+02  0.10570000000E+00 0.  1.
         13    1    3    3    0    0  0.91703012982E+00  0.99582592108E+01 -0.20298200627E+01  0.10204862211E+02  0.10570000000E+00 0. -1.
<mgrwt>
<rscale>  0 0.20001912E+02</rscale>
<asrwt>0</asrwt>
<pdfrwt beam="2">  1        4 0.18806219E-02 0.20001912E+02</pdfrwt>
<pdfrwt beam="1">  1       -4 0.12587945E-02 0.20001912E+02</pdfrwt>
<totfact> 0.12987346E+06</totfact>
</mgrwt>
</event>
<event>
 4    1  0.4710515E-007  0.2001363E+02  0.7818608E-02  0.1745057E+00
         -4   -1    0    0    0  501 -0.00000000000E+00  0.00000000000E+00  0.42026527491E+02  0.42050510258E+02  0.14200000000E+01 0. -1.
          4   -1    0    0  501    0  0.00000000000E+00 -0.00000000000E+00 -0.21441836013E+01  0.25717549098E+01  0.14200000000E+01 0.  1.
        -13    1    1    2    0    0  0.54432617413E+01 -0.83904645359E+01  0.20632463543E+02  0.22928992953E+02  0.10570000000E+00 0. -1.
         13    1    1    2    0    0 -0.54432617413E+01  0.83904645359E+01  0.19249880347E+02  0.21693272215E+02  0.10570000000E+00 0.  1.
<mgrwt>
<rscale>  0 0.20013625E+02</rscale>
<asrwt>0</asrwt>
<pdfrwt beam="2">  1        4 0.36460934E-03 0.20013625E+02</pdfrwt>
<pdfrwt beam="1">  1       -4 0.65003543E-02 0.20013625E+02</pdfrwt>
<totfact> 0.11736378E+06</totfact>
</mgrwt>
</event>
<event>
 5    1  0.4715562E-007  0.2000145E+02  0.7818608E-02  0.1745299E+00
         -4   -1    0    0    0  501 -0.00000000000E+00  0.00000000000E+00  0.22176073903E+02  0.22221490808E+02  0.14200000000E+01 0.  1.
          4   -1    0    0  501    0  0.00000000000E+00 -0.00000000000E+00 -0.43468425237E+01  0.45729027899E+01  0.14200000000E+01 0. -1.
       1023    2    1    2    0    0  0.00000000000E+00  0.00000000000E+00  0.17829231379E+02  0.26794393598E+02  0.20001450866E+02 0.  0.
        -13    1    3    3    0    0  0.35042916022E+01  0.93659857761E+01  0.88612405044E+01  0.13361680469E+02  0.10570000000E+00 0. -1.
         13    1    3    3    0    0 -0.35042916022E+01 -0.93659857761E+01  0.89679908749E+01  0.13432713129E+02  0.10570000000E+00 0.  1.
<mgrwt>
<rscale>  0 0.20001451E+02</rscale>
<asrwt>0</asrwt>
<pdfrwt beam="2">  1        4 0.68962789E-03 0.20001451E+02</pdfrwt>
<pdfrwt beam="1">  1       -4 0.34325864E-02 0.20001451E+02</pdfrwt>
<totfact> 0.12624813E+06</totfact>
</mgrwt>
</event>
<event>
 5    1  0.4710515E-007  0.2000971E+02  0.7818608E-02  0.1745135E+00
         -4   -1    0    0    0  501 -0.00000000000E+00  0.00000000000E+00  0.52773565470E+00  0.15148943598E+01  0.14200000000E+01 0. -1.
          4   -1    0    0  501    0  0.00000000000E+00 -0.00000000000E+00 -0.97013239397E+02  0.97023631237E+02  0.14200000000E+01 0. -1.
       1023    2    1    2    0    0  0.00000000000E+00  0.00000000000E+00 -0.96485503743E+02  0.98538525597E+02  0.20009712498E+02 0.  0.
        -13    1    3    3    0    0 -0.17880399970E+01  0.98430812286E+01 -0.47989678029E+02  0.49021461677E+02  0.10570000000E+00 0. -1.
         13    1    3    3    0    0  0.17880399970E+01 -0.98430812286E+01 -0.48495825713E+02  0.49517063919E+02  0.10570000000E+00 0.  1.
<mgrwt>
<rscale>  0 0.20009712E+02</rscale>
<asrwt>0</asrwt>
<pdfrwt beam="2">  1        4 0.15001841E-01 0.20009712E+02</pdfrwt>
<pdfrwt beam="1">  1       -4 0.15792484E-03 0.20009712E+02</pdfrwt>
<totfact> 0.98335333E+05</totfact>
</mgrwt>
</event>
<event>
 5    1  0.4710515E-007  0.2000453E+02  0.7818608E-02  0.1745238E+00
         -4   -1    0    0    0  501 -0.00000000000E+00  0.00000000000E+00  0.22601678338E+01  0.26692243512E+01  0.14200000000E+01 0.  1.
          4   -1    0    0  501    0  0.00000000000E+00 -0.00000000000E+00 -0.40168702565E+02  0.40193793871E+02  0.14200000000E+01 0. -1.
       1023    2    1    2    0    0  0.00000000000E+00  0.00000000000E+00 -0.37908534731E+02  0.42863018222E+02  0.20004532628E+02 0.  0.
        -13    1    3    3    0    0 -0.28032870102E+01 -0.96005560281E+01 -0.18801779209E+02  0.21296646873E+02  0.10570000000E+00 0.  1.
         13    1    3    3    0    0  0.28032870102E+01  0.96005560281E+01 -0.19106755521E+02  0.21566371349E+02  0.10570000000E+00 0. -1.
<mgrwt>
<rscale>  0 0.20004533E+02</rscale>
<asrwt>0</asrwt>
<pdfrwt beam="2">  1        4 0.62131959E-02 0.20004533E+02</pdfrwt>
<pdfrwt beam="1">  1       -4 0.38111414E-03 0.20004533E+02</pdfrwt>
<totfact> 0.11825936E+06</totfact>
</mgrwt>
</event>
<event>
 5    1  0.4710515E-007  0.2000734E+02  0.7818608E-02  0.1745182E+00
         -4   -1    0    0    0  501 -0.00000000000E+00  0.00000000000E+00  0.91132562363E+02  0.91143624697E+02  0.14200000000E+01 0. -1.
          4   -1    0    0  501    0  0.00000000000E+00 -0.00000000000E+00 -0.62317673588E+00  0.15507253929E+01  0.14200000000E+01 0.  1.
       1023    2    1    2    0    0  0.00000000000E+00  0.00000000000E+00  0.90509385628E+02  0.92694350090E+02  0.20007339951E+02 0.  0.
        -13    1    3    3    0    0 -0.48732301615E+01 -0.87357039519E+01  0.45424589344E+02  0.46513066823E+02  0.10570000000E+00 0. -1.
         13    1    3    3    0    0  0.48732301615E+01  0.87357039519E+01  0.45084796284E+02  0.46181283267E+02  0.10570000000E+00 0.  1.
<mgrwt>
<rscale>  0 0.20007340E+02</rscale>
<asrwt>0</asrwt>
<pdfrwt beam="2">  1        4 0.16807417E-03 0.20007340E+02</pdfrwt>
<pdfrwt beam="1">  1       -4 0.14092597E-01 0.20007340E+02</pdfrwt>
<totfact> 0.10007060E+06</totfact>
</mgrwt>
</event>
<event>
 5    1  0.4710515E-007  0.2000198E+02  0.7818608E-02  0.1745289E+00
         -4   -1    0    0    0  501 -0.00000000000E+00  0.00000000000E+00  0.52650864547E+01  0.54532133074E+01  0.14200000000E+01 0. -1.
          4   -1    0    0  501    0  0.00000000000E+00 -0.00000000000E+00 -0.18447472762E+02  0.18502044517E+02  0.14200000000E+01 0.  1.
       1023    2    1    2    0    0  0.00000000000E+00  0.00000000000E+00 -0.13182386308E+02  0.23955257825E+02  0.20001976619E+02 0.  0.
        -13    1    3    3    0    0  0.82527615385E+01 -0.56476814397E+01 -0.66689573211E+01  0.12020421910E+02  0.10570000000E+00 0.  1.
         13    1    3    3    0    0 -0.82527615385E+01  0.56476814397E+01 -0.65134289865E+01  0.11934835915E+02  0.10570000000E+00 0. -1.
<mgrwt>
<rscale>  0 0.20001977E+02</rscale>
<asrwt>0</asrwt>
<pdfrwt beam="2">  1        4 0.28567418E-02 0.20001977E+02</pdfrwt>
<pdfrwt beam="1">  1       -4 0.82868243E-03 0.20001977E+02</pdfrwt>
<totfact> 0.12781710E+06</totfact>
</mgrwt>
</event>
<event>
 5    1  0.4710515E-007  0.2000211E+02  0.7818608E-02  0.1745286E+00
          4   -1    0    0  501    0  0.00000000000E+00  0.00000000000E+00  0.42520308954E+02  0.42544013369E+02  0.14200000000E+01 0.  1.
         -4   -1    0    0    0  501 -0.00000000000E+00 -0.00000000000E+00 -0.21113461992E+01  0.25444415444E+01  0.14200000000E+01 0. -1.
       1023    2    1    2    0    0  0.00000000000E+00  0.00000000000E+00  0.40408962754E+02  0.45088454913E+02  0.20002112278E+02 0.  0.
        -13    1    3    3    0    0  0.96263397168E+01 -0.27094000589E+01  0.20087646356E+02  0.22439518124E+02  0.10570000000E+00 0.  1.
         13    1    3    3    0    0 -0.96263397168E+01  0.27094000589E+01  0.20321316399E+02  0.22648936790E+02  0.10570000000E+00 0. -1.
<mgrwt>
<rscale>  0 0.20002112E+02</rscale>
<asrwt>0</asrwt>
<pdfrwt beam="1">  1        4 0.65767237E-02 0.20002112E+02</pdfrwt>
<pdfrwt beam="2">  1       -4 0.35996097E-03 0.20002112E+02</pdfrwt>
<totfact> 0.11729395E+06</totfact>
</mgrwt>
</event>
<event>
 5    1  0.4710515E-007  0.2001130E+02  0.7818608E-02  0.1745103E+00
          4   -1    0    0  501    0  0.00000000000E+00  0.00000000000E+00  0.27458971675E+02  0.27495663757E+02  0.14200000000E+01 0. -1.
         -4   -1    0    0    0  501 -0.00000000000E+00 -0.00000000000E+00 -0.34669265752E+01  0.37464623150E+01  0.14200000000E+01 0.  1.
       1023    2    1    2    0    0  0.00000000000E+00  0.00000000000E+00  0.23992045100E+02  0.31242126072E+02  0.20011302143E+02 0.  0.
        -13    1    3    3    0    0 -0.99550181717E+01 -0.99967526904E+00  0.12014720096E+02  0.15635421610E+02  0.10570000000E+00 0.  1.
         13    1    3    3    0    0  0.99550181717E+01  0.99967526904E+00  0.11977325004E+02  0.15606704463E+02  0.10570000000E+00 0. -1.
<mgrwt>
<rscale>  0 0.20011302E+02</rscale>
<asrwt>0</asrwt>
<pdfrwt beam="1">  1        4 0.42487826E-02 0.20011302E+02</pdfrwt>
<pdfrwt beam="2">  1       -4 0.55769852E-03 0.20011302E+02</pdfrwt>
<totfact> 0.12377141E+06</totfact>
</mgrwt>
</event>
<event>
 4    1  0.4710515E-007  0.2016614E+02  0.7818608E-02  0.1742044E+00
          4   -1    0    0  501    0  0.00000000000E+00  0.00000000000E+00  0.27830538946E+01  0.31243861766E+01  0.14200000000E+01 0. -1.
         -4   -1    0    0    0  501 -0.00000000000E+00 -0.00000000000E+00 -0.34063435313E+02  0.34093020184E+02  0.14200000000E+01 0.  1.
        -13    1    1    2    0    0  0.62002127912E+01 -0.79364244789E+01 -0.16520696894E+02  0.19348748552E+02  0.10570000000E+00 0. -1.
         13    1    1    2    0    0 -0.62002127912E+01  0.79364244789E+01 -0.14759684524E+02  0.17868657809E+02  0.10570000000E+00 0.  1.
<mgrwt>
<rscale>  0 0.20166137E+02</rscale>
<asrwt>0</asrwt>
<pdfrwt beam="1">  1        4 0.45669425E-03 0.20166137E+02</pdfrwt>
<pdfrwt beam="2">  1       -4 0.52690603E-02 0.20166137E+02</pdfrwt>
<totfact> 0.11892897E+06</totfact>
</mgrwt>
</event>
<event>
 5    1  0.4710515E-007  0.2000761E+02  0.7818608E-02  0.1745177E+00
          4   -1    0    0  501    0  0.00000000000E+00  0.00000000000E+00  0.14336698051E+01  0.20178724217E+01  0.14200000000E+01 0. -1.
         -4   -1    0    0    0  501 -0.00000000000E+00 -0.00000000000E+00 -0.57394729272E+02  0.57412292658E+02  0.14200000000E+01 0.  1.
       1023    2    1    2    0    0  0.00000000000E+00  0.00000000000E+00 -0.55961059467E+02  0.59430165079E+02  0.20007607171E+02 0.  0.
        -13    1    3    3    0    0 -0.99195958201E+01 -0.12886567352E+01 -0.27752442776E+02  0.29500309658E+02  0.10570000000E+00 0.  1.
         13    1    3    3    0    0  0.99195958201E+01  0.12886567352E+01 -0.28208616691E+02  0.29929855421E+02  0.10570000000E+00 0. -1.
<mgrwt>
<rscale>  0 0.20007607E+02</rscale>
<asrwt>0</asrwt>
<pdfrwt beam="1">  1        4 0.26685432E-03 0.20007607E+02</pdfrwt>
<pdfrwt beam="2">  1       -4 0.88762466E-02 0.20007607E+02</pdfrwt>
<totfact> 0.11132257E+06</totfact>
</mgrwt>
</event>
<event>
 5    1  0.4988756E-007  0.2000206E+02  0.7818608E-02  0.1745287E+00
          4   -1    0    0  501    0  0.00000000000E+00  0.00000000000E+00  0.82585898120E+01  0.83797795725E+01  0.14200000000E+01 0.  1.
         -4   -1    0    0    0  501 -0.00000000000E+00 -0.00000000000E+00 -0.11859035326E+02  0.11943748108E+02  0.14200000000E+01 0. -1.
       1023    2    1    2    0    0  0.00000000000E+00  0.00000000000E+00 -0.36004455138E+01  0.20323527680E+02  0.20002064130E+02 0.  0.
        -13    1    3    3    0    0 -0.99352314129E+01 -0.11401015730E+01 -0.18292307084E+01  0.10166902788E+02  0.10570000000E+00 0. -1.
         13    1    3    3    0    0  0.99352314129E+01  0.11401015730E+01 -0.17712148054E+01  0.10156624892E+02  0.10570000000E+00 0.  1.
<mgrwt>
<rscale>  0 0.20002064E+02</rscale>
<asrwt>0</asrwt>
<pdfrwt beam="1">  1        4 0.12863909E-02 0.20002064E+02</pdfrwt>
<pdfrwt beam="2">  1       -4 0.18403056E-02 0.20002064E+02</pdfrwt>
<totfact> 0.12992053E+06</totfact>
</mgrwt>
</event>
<event>
 5    1  0.4710515E-007  0.2000331E+02  0.7818608E-02  0.1745262E+00
          4   -1    0    0  501    0  0.00000000000E+00  0.00000000000E+00  0.92381645810E+00  0.16940592812E+01  0.14200000000E+01 0.  1.
         -4   -1    0    0    0  501 -0.00000000000E+00 -0.00000000000E+00 -0.75644270198E+02  0.75657597198E+02  0.14200000000E+01 0. -1.
       1023    2    1    2    0    0  0.00000000000E+00  0.00000000000E+00 -0.74720453740E+02  0.77351656480E+02  0.20003313550E+02 0.  0.
        -13    1    3    3    0    0  0.81840969079E+01 -0.57473491112E+01 -0.36963950071E+02  0.38293031237E+02  0.10570000000E+00 0. -1.
         13    1    3    3    0    0 -0.81840969079E+01  0.57473491112E+01 -0.37756503669E+02  0.39058625242E+02  0.10570000000E+00 0.  1.
<mgrwt>
<rscale>  0 0.20003314E+02</rscale>
<asrwt>0</asrwt>
<pdfrwt beam="1">  1        4 0.20240027E-03 0.20003314E+02</pdfrwt>
<pdfrwt beam="2">  1       -4 0.11697851E-01 0.20003314E+02</pdfrwt>
<totfact> 0.10495107E+06</totfact>
</mgrwt>
</event>
<event>
 4    1  0.4710515E-007  0.2001750E+02  0.7818608E-02  0.1744980E+00
          4   -1    0    0  501    0  0.00000000000E+00  0.00000000000E+00  0.93613198946E+01  0.94684058938E+01  0.14200000000E+01 0. -1.
         -4   -1    0    0    0  501 -0.00000000000E+00 -0.00000000000E+00 -0.10484875633E+02  0.10580596252E+02  0.14200000000E+01 0.  1.
        -13    1    1    2    0    0  0.94103971825E+01 -0.34064791808E+01 -0.62652754025E+00  0.10028129676E+02  0.10570000000E+00 0.  1.
         13    1    1    2    0    0 -0.94103971825E+01  0.34064791808E+01 -0.49702819842E+00  0.10020872470E+02  0.10570000000E+00 0. -1.
<mgrwt>
<rscale>  0 0.20017495E+02</rscale>
<asrwt>0</asrwt>
<pdfrwt beam="1">  1        4 0.14558036E-02 0.20017495E+02</pdfrwt>
<pdfrwt beam="2">  1       -4 0.16286583E-02 0.20017495E+02</pdfrwt>
<totfact> 0.12987924E+06</totfact>
</mgrwt>
</event>
<event>
 4    1  0.4710515E-007  0.2003407E+02  0.7818608E-02  0.1744651E+00
          4   -1    0    0  501    0  0.00000000000E+00  0.00000000000E+00  0.35597577626E+02  0.35625888520E+02  0.14200000000E+01 0.  1.
         -4   -1    0    0    0  501 -0.00000000000E+00 -0.00000000000E+00 -0.26085280355E+01  0.29699862814E+01  0.14200000000E+01 0. -1.
        -13    1    1    2    0    0 -0.99947484390E+01 -0.65389664313E+00  0.16330036010E+02  0.19157343912E+02  0.10570000000E+00 0. -1.
         13    1    1    2    0    0  0.99947484390E+01  0.65389664313E+00  0.16659013581E+02  0.19438530890E+02  0.10570000000E+00 0.  1.
<mgrwt>
<rscale>  0 0.20034075E+02</rscale>
<asrwt>0</asrwt>
<pdfrwt beam="1">  1        4 0.55065324E-02 0.20034075E+02</pdfrwt>
<pdfrwt beam="2">  1       -4 0.43129427E-03 0.20034075E+02</pdfrwt>
<totfact> 0.11987067E+06</totfact>
</mgrwt>
</event>
<event>
 4    1  0.4710515E-007  0.2019986E+02  0.7818608E-02  0.1741383E+00
          4   -1    0    0  501    0  0.00000000000E+00  0.00000000000E+00  0.90729018496E+01  0.91833516743E+01  0.14200000000E+01 0. -1.
         -4   -1    0    0    0  501 -0.00000000000E+00 -0.00000000000E+00 -0.11018907284E+02  0.11110027801E+02  0.14200000000E+01 0.  1.
        -13    1    1    2    0    0  0.98792598633E+01 -0.20918110763E+01 -0.11218671212E+01  0.10160964883E+02  0.10570000000E+00 0.  1.
         13    1    1    2    0    0 -0.98792598633E+01  0.20918110763E+01 -0.82413831360E+00  0.10132414593E+02  0.10570000000E+00 0. -1.
<mgrwt>
<rscale>  0 0.20199859E+02</rscale>
<asrwt>0</asrwt>
<pdfrwt beam="1">  1        4 0.14113365E-02 0.20199859E+02</pdfrwt>
<pdfrwt beam="2">  1       -4 0.17107219E-02 0.20199859E+02</pdfrwt>
<totfact> 0.12735127E+06</totfact>
</mgrwt>
</event>
<event>
 5    1  0.5192576E-007  0.2000159E+02  0.7818608E-02  0.1745296E+00
          4   -1    0    0  501    0  0.00000000000E+00  0.00000000000E+00  0.36941450477E+01  0.39576644165E+01  0.14200000000E+01 0.  1.
         -4   -1    0    0    0  501 -0.00000000000E+00 -0.00000000000E+00 -0.25858098428E+02  0.25897058796E+02  0.14200000000E+01 0. -1.
       1023    2    1    2    0    0  0.00000000000E+00  0.00000000000E+00 -0.22163953380E+02  0.29854723213E+02  0.20001591654E+02 0.  0.
        -13    1    3    3    0    0 -0.99973703989E+01  0.23868510835E+00 -0.11053687574E+02  0.14906359949E+02  0.10570000000E+00 0. -1.
         13    1    3    3    0    0  0.99973703989E+01 -0.23868510835E+00 -0.11110265806E+02  0.14948363263E+02  0.10570000000E+00 0.  1.
<mgrwt>
<rscale>  0 0.20001592E+02</rscale>
<asrwt>0</asrwt>
<pdfrwt beam="1">  1        4 0.59159770E-03 0.20001592E+02</pdfrwt>
<pdfrwt beam="2">  1       -4 0.40014365E-02 0.20001592E+02</pdfrwt>
<totfact> 0.12461320E+06</totfact>
</mgrwt>
</event>
<event>
 5    1  0.4710515E-007  0.2000852E+02  0.7818608E-02  0.1745159E+00
         -4   -1    0    0    0  501 -0.00000000000E+00  0.00000000000E+00  0.54777759813E+01  0.56588364264E+01  0.14200000000E+01 0.  1.
          4   -1    0    0  501    0  0.00000000000E+00 -0.00000000000E+00 -0.17764231250E+02  0.17820895374E+02  0.14200000000E+01 0. -1.
       1023    2    1    2    0    0  0.00000000000E+00  0.00000000000E+00 -0.12286455269E+02  0.23479731800E+02  0.20008518744E+02 0.  0.
        -13    1    3    3    0    0  0.99427776706E+01  0.10864825175E+01 -0.63620161209E+01  0.11854353364E+02  0.10570000000E+00 0. -1.
         13    1    3    3    0    0 -0.99427776706E+01 -0.10864825175E+01 -0.59244391482E+01  0.11625378436E+02  0.10570000000E+00 0.  1.
<mgrwt>
<rscale>  0 0.20008519E+02</rscale>
<asrwt>0</asrwt>
<pdfrwt beam="2">  1        4 0.27512451E-02 0.20008519E+02</pdfrwt>
<pdfrwt beam="1">  1       -4 0.86102128E-03 0.20008519E+02</pdfrwt>
<totfact> 0.12800104E+06</totfact>
</mgrwt>
</event>
<event>
 5    1  0.4710515E-007  0.2000171E+02  0.7818608E-02  0.1745294E+00
         -4   -1    0    0    0  501 -0.00000000000E+00  0.00000000000E+00  0.10443120828E+01  0.17626649501E+01  0.14200000000E+01 0. -1.
          4   -1    0    0  501    0  0.00000000000E+00 -0.00000000000E+00 -0.70535920287E+02  0.70550212266E+02  0.14200000000E+01 0.  1.
       1023    2    1    2    0    0  0.00000000000E+00  0.00000000000E+00 -0.69491608204E+02  0.72312877216E+02  0.20001714937E+02 0.  0.
        -13    1    3    3    0    0 -0.90167089020E+01 -0.43248282856E+01 -0.34643643370E+02  0.36058263651E+02  0.10570000000E+00 0. -1.
         13    1    3    3    0    0  0.90167089020E+01  0.43248282856E+01 -0.34847964835E+02  0.36254613565E+02  0.10570000000E+00 0.  1.
<mgrwt>
<rscale>  0 0.20001715E+02</rscale>
<asrwt>0</asrwt>
<pdfrwt beam="2">  1        4 0.10908035E-01 0.20001715E+02</pdfrwt>
<pdfrwt beam="1">  1       -4 0.21702075E-03 0.20001715E+02</pdfrwt>
<totfact> 0.10668065E+06</totfact>
</mgrwt>
</event>
<event>
 5    1  0.4710515E-007  0.2000277E+02  0.7818608E-02  0.1745273E+00
          4   -1    0    0  501    0  0.00000000000E+00  0.00000000000E+00  0.14708433565E+02  0.14776820292E+02  0.14200000000E+01 0. -1.
         -4   -1    0    0    0  501 -0.00000000000E+00 -0.00000000000E+00 -0.66413159675E+01  0.67914267853E+01  0.14200000000E+01 0.  1.
       1023    2    1    2    0    0  0.00000000000E+00  0.00000000000E+00  0.80671175974E+01  0.21568247077E+02  0.20002772199E+02 0.  0.
        -13    1    3    3    0    0 -0.64860324681E+01 -0.76117743726E+01  0.39322643659E+01  0.10746236635E+02  0.10570000000E+00 0.  1.
         13    1    3    3    0    0  0.64860324681E+01  0.76117743726E+01  0.41348532315E+01  0.10822010442E+02  0.10570000000E+00 0. -1.
<mgrwt>
<rscale>  0 0.20002772E+02</rscale>
<asrwt>0</asrwt>
<pdfrwt beam="1">  1        4 0.22796434E-02 0.20002772E+02</pdfrwt>
<pdfrwt beam="2">  1       -4 0.10385484E-02 0.20002772E+02</pdfrwt>
<totfact> 0.12917721E+06</totfact>
</mgrwt>
</event>
<event>
 5    1  0.4710515E-007  0.2000167E+02  0.7818608E-02  0.1745295E+00
          4   -1    0    0  501    0  0.00000000000E+00  0.00000000000E+00  0.49621479518E+00  0.15042038170E+01  0.14200000000E+01 0.  1.
         -4   -1    0    0    0  501 -0.00000000000E+00 -0.00000000000E+00 -0.98980172993E+02  0.98990358347E+02  0.14200000000E+01 0. -1.
       1023    2    1    2    0    0  0.00000000000E+00  0.00000000000E+00 -0.98483958198E+02  0.10049456216E+03  0.20001674987E+02 0.  0.
        -13    1    3    3    0    0 -0.99977939158E+01  0.22245143099E+00 -0.49169125527E+02  0.50175885098E+02  0.10570000000E+00 0. -1.
         13    1    3    3    0    0  0.99977939158E+01 -0.22245143099E+00 -0.49314832671E+02  0.50318677066E+02  0.10570000000E+00 0.  1.
<mgrwt>
<rscale>  0 0.20001675E+02</rscale>
<asrwt>0</asrwt>
<pdfrwt beam="1">  1        4 0.15466192E-03 0.20001675E+02</pdfrwt>
<pdfrwt beam="2">  1       -4 0.15306032E-01 0.20001675E+02</pdfrwt>
<totfact> 0.97855551E+05</totfact>
</mgrwt>
</event>
<event>
 4    1  0.4710515E-007  0.2076151E+02  0.7818608E-02  0.1730595E+00
          4   -1    0    0  501    0  0.00000000000E+00  0.00000000000E+00  0.35041678459E+01  0.37809512417E+01  0.14200000000E+01 0. -1.
         -4   -1    0    0    0  501 -0.00000000000E+00 -0.00000000000E+00 -0.29288981187E+02  0.29323383484E+02  0.14200000000E+01 0. -1.
        -13    1    1    2    0    0 -0.29592657155E+01 -0.98988917790E+01 -0.14489787275E+02  0.17796359734E+02  0.10570000000E+00 0.  1.
         13    1    1    2    0    0  0.29592657155E+01  0.98988917790E+01 -0.11295026066E+02  0.15307974992E+02  0.10570000000E+00 0. -1.
<mgrwt>
<rscale>  0 0.20761512E+02</rscale>
<asrwt>0</asrwt>
<pdfrwt beam="1">  1        4 0.56304013E-03 0.20761512E+02</pdfrwt>
<pdfrwt beam="2">  1       -4 0.45299343E-02 0.20761512E+02</pdfrwt>
<totfact> 0.11391002E+06</totfact>
</mgrwt>
</event>
<event>
 5    1  0.4736955E-007  0.2000418E+02  0.7818608E-02  0.1745245E+00
         -4   -1    0    0    0  501 -0.00000000000E+00  0.00000000000E+00  0.45779317527E+01  0.47931053747E+01  0.14200000000E+01 0.  1.
          4   -1    0    0  501    0  0.00000000000E+00 -0.00000000000E+00 -0.21111710061E+02  0.21159411658E+02  0.14200000000E+01 0. -1.
       1023    2    1    2    0    0  0.00000000000E+00  0.00000000000E+00 -0.16533778308E+02  0.25952517032E+02  0.20004182442E+02 0.  0.
        -13    1    3    3    0    0 -0.89729200427E+01  0.44175465398E+01 -0.83336087337E+01  0.13018764094E+02  0.10570000000E+00 0. -1.
         13    1    3    3    0    0  0.89729200427E+01 -0.44175465398E+01 -0.82001695745E+01  0.12933752938E+02  0.10570000000E+00 0.  1.
<mgrwt>
<rscale>  0 0.20004182E+02</rscale>
<asrwt>0</asrwt>
<pdfrwt beam="2">  1        4 0.32681765E-02 0.20004182E+02</pdfrwt>
<pdfrwt beam="1">  1       -4 0.72451838E-03 0.20004182E+02</pdfrwt>
<totfact> 0.12667390E+06</totfact>
</mgrwt>
</event>
<event>
 5    1  0.4710515E-007  0.2000688E+02  0.7818608E-02  0.1745191E+00
          4   -1    0    0  501    0  0.00000000000E+00  0.00000000000E+00  0.96959911437E+02  0.96970308991E+02  0.14200000000E+01 0.  1.
         -4   -1    0    0    0  501 -0.00000000000E+00 -0.00000000000E+00 -0.52813550703E+00  0.15150337005E+01  0.14200000000E+01 0. -1.
       1023    2    1    2    0    0  0.00000000000E+00  0.00000000000E+00  0.96431775930E+02  0.98485342692E+02  0.20006881719E+02 0.  0.
        -13    1    3    3    0    0  0.28520255794E+01  0.95866472058E+01  0.48908590173E+02  0.49920929676E+02  0.10570000000E+00 0. -1.
         13    1    3    3    0    0 -0.28520255794E+01 -0.95866472058E+01  0.47523185757E+02  0.48564413015E+02  0.10570000000E+00 0.  1.
<mgrwt>
<rscale>  0 0.20006882E+02</rscale>
<asrwt>0</asrwt>
<pdfrwt beam="1">  1        4 0.14993626E-01 0.20006882E+02</pdfrwt>
<pdfrwt beam="2">  1       -4 0.15796665E-03 0.20006882E+02</pdfrwt>
<totfact> 0.98378366E+05</totfact>
</mgrwt>
</event>
<event>
 4    1  0.4710515E-007  0.2004753E+02  0.7818608E-02  0.1744384E+00
         -4   -1    0    0    0  501 -0.00000000000E+00  0.00000000000E+00  0.65472454667E+01  0.66994643966E+01  0.14200000000E+01 0. -1.
          4   -1    0    0  501    0  0.00000000000E+00 -0.00000000000E+00 -0.14983765189E+02  0.15050900945E+02  0.14200000000E+01 0.  1.
        -13    1    1    2    0    0  0.24637963087E+01  0.97154075304E+01 -0.42970479955E+01  0.10905742969E+02  0.10570000000E+00 0.  1.
         13    1    1    2    0    0 -0.24637963087E+01 -0.97154075304E+01 -0.41394717269E+01  0.10844622372E+02  0.10570000000E+00 0. -1.
<mgrwt>
<rscale>  0 0.20047532E+02</rscale>
<asrwt>0</asrwt>
<pdfrwt beam="2">  1        4 0.23220681E-02 0.20047532E+02</pdfrwt>
<pdfrwt beam="1">  1       -4 0.10241420E-02 0.20047532E+02</pdfrwt>
<totfact> 0.12848366E+06</totfact>
</mgrwt>
</event>
<event>
 5    1  0.4710515E-007  0.2000168E+02  0.7818608E-02  0.1745295E+00
          4   -1    0    0  501    0  0.00000000000E+00  0.00000000000E+00  0.60554049288E+02  0.60570696588E+02  0.14200000000E+01 0.  1.
         -4   -1    0    0    0  501 -0.00000000000E+00 -0.00000000000E+00 -0.13264171595E+01  0.19431372780E+01  0.14200000000E+01 0. -1.
       1023    2    1    2    0    0  0.00000000000E+00  0.00000000000E+00  0.59227632128E+02  0.62513833866E+02  0.20001675357E+02 0.  0.
        -13    1    3    3    0    0 -0.84392611142E+00 -0.99643984976E+01  0.29814747069E+02  0.31447285479E+02  0.10570000000E+00 0.  1.
         13    1    3    3    0    0  0.84392611142E+00  0.99643984976E+01  0.29412885059E+02  0.31066548387E+02  0.10570000000E+00 0. -1.
<mgrwt>
<rscale>  0 0.20001675E+02</rscale>
<asrwt>0</asrwt>
<pdfrwt beam="1">  1        4 0.93647291E-02 0.20001675E+02</pdfrwt>
<pdfrwt beam="2">  1       -4 0.25278472E-03 0.20001675E+02</pdfrwt>
<totfact> 0.11021528E+06</totfact>
</mgrwt>
</event>
<event>
 5    1  0.5061171E-007  0.2000160E+02  0.7818608E-02  0.1745296E+00
          4   -1    0    0  501    0  0.00000000000E+00  0.00000000000E+00  0.55865277090E+00  0.15259400114E+01  0.14200000000E+01 0. -1.
         -4   -1    0    0    0  501 -0.00000000000E+00 -0.00000000000E+00 -0.94982258983E+02  0.94992873004E+02  0.14200000000E+01 0. -1.
       1023    2    1    2    0    0  0.00000000000E+00  0.00000000000E+00 -0.94423606212E+02  0.96518813016E+02  0.20001596330E+02 0.  0.
        -13    1    3    3    0    0 -0.99953435963E+01 -0.31186269748E+00 -0.47089772755E+02  0.48140025162E+02  0.10570000000E+00 0. -1.
         13    1    3    3    0    0  0.99953435963E+01  0.31186269748E+00 -0.47333833457E+02  0.48378787854E+02  0.10570000000E+00 0.  1.
<mgrwt>
<rscale>  0 0.20001596E+02</rscale>
<asrwt>0</asrwt>
<pdfrwt beam="1">  1        4 0.16116983E-03 0.20001596E+02</pdfrwt>
<pdfrwt beam="2">  1       -4 0.14687871E-01 0.20001596E+02</pdfrwt>
<totfact> 0.98999431E+05</totfact>
</mgrwt>
</event>
<event>
 5    1  0.4710515E-007  0.2000421E+02  0.7818608E-02  0.1745244E+00
          4   -1    0    0  501    0  0.00000000000E+00  0.00000000000E+00  0.56508601293E+02  0.56526440009E+02  0.14200000000E+01 0. -1.
         -4   -1    0    0    0  501 -0.00000000000E+00 -0.00000000000E+00 -0.14645328391E+01  0.20399157916E+01  0.14200000000E+01 0.  1.
       1023    2    1    2    0    0  0.00000000000E+00  0.00000000000E+00  0.55044068453E+02  0.58566355800E+02  0.20004213551E+02 0.  0.
        -13    1    3    3    0    0 -0.21359224363E+00 -0.99992483365E+01  0.27578994342E+02  0.29336712330E+02  0.10570000000E+00 0.  1.
         13    1    3    3    0    0  0.21359224363E+00  0.99992483365E+01  0.27465074112E+02  0.29229643470E+02  0.10570000000E+00 0. -1.
<mgrwt>
<rscale>  0 0.20004214E+02</rscale>
<asrwt>0</asrwt>
<pdfrwt beam="1">  1        4 0.87392643E-02 0.20004214E+02</pdfrwt>
<pdfrwt beam="2">  1       -4 0.27094515E-03 0.20004214E+02</pdfrwt>
<totfact> 0.11169454E+06</totfact>
</mgrwt>
</event>
<event>
 5    1  0.4710515E-007  0.2000265E+02  0.7818608E-02  0.1745275E+00
         -4   -1    0    0    0  501 -0.00000000000E+00  0.00000000000E+00  0.50889883570E+02  0.50909691119E+02  0.14200000000E+01 0. -1.
          4   -1    0    0  501    0  0.00000000000E+00 -0.00000000000E+00 -0.16861713960E+01  0.22044441423E+01  0.14200000000E+01 0.  1.
       1023    2    1    2    0    0  0.00000000000E+00  0.00000000000E+00  0.49203712174E+02  0.53114135261E+02  0.20002651644E+02 0.  0.
        -13    1    3    3    0    0  0.40490769346E+01  0.91438004832E+01  0.24320408426E+02  0.26296340996E+02  0.10570000000E+00 0. -1.
         13    1    3    3    0    0 -0.40490769346E+01 -0.91438004832E+01  0.24883303749E+02  0.26817794265E+02  0.10570000000E+00 0.  1.
<mgrwt>
<rscale>  0 0.20002652E+02</rscale>
<asrwt>0</asrwt>
<pdfrwt beam="2">  1        4 0.30080180E-03 0.20002652E+02</pdfrwt>
<pdfrwt beam="1">  1       -4 0.78706029E-02 0.20002652E+02</pdfrwt>
<totfact> 0.11388161E+06</totfact>
</mgrwt>
</event>
<event>
 4    1  0.4710515E-007  0.2023143E+02  0.7818608E-02  0.1740765E+00
          4   -1    0    0  501    0  0.00000000000E+00  0.00000000000E+00  0.80040669672E+01  0.81290520982E+01  0.14200000000E+01 0.  1.
         -4   -1    0    0    0  501 -0.00000000000E+00 -0.00000000000E+00 -0.12519986776E+02  0.12600256699E+02  0.14200000000E+01 0. -1.
        -13    1    1    2    0    0 -0.58758465620E+01 -0.81083447118E+01 -0.37234300198E+01  0.10683909883E+02  0.10570000000E+00 0. -1.
         13    1    1    2    0    0  0.58758465620E+01  0.81083447118E+01 -0.79248978920E+00  0.10045398914E+02  0.10570000000E+00 0.  1.
<mgrwt>
<rscale>  0 0.20231429E+02</rscale>
<asrwt>0</asrwt>
<pdfrwt beam="1">  1        4 0.12471838E-02 0.20231429E+02</pdfrwt>
<pdfrwt beam="2">  1       -4 0.19419407E-02 0.20231429E+02</pdfrwt>
<totfact> 0.12669319E+06</totfact>
</mgrwt>
</event>
<event>
 5    1  0.4710515E-007  0.2000194E+02  0.7818608E-02  0.1745289E+00
          4   -1    0    0  501    0  0.00000000000E+00  0.00000000000E+00  0.43374180644E+01  0.45639451646E+01  0.14200000000E+01 0. -1.
         -4   -1    0    0    0  501 -0.00000000000E+00 -0.00000000000E+00 -0.22223065817E+02  0.22268386881E+02  0.14200000000E+01 0.  1.
       1023    2    1    2    0    0  0.00000000000E+00  0.00000000000E+00 -0.17885647752E+02  0.26832332046E+02  0.20001941093E+02 0.  0.
        -13    1    3    3    0    0  0.79921595923E+01 -0.60107003454E+01 -0.90386795553E+01  0.13480060615E+02  0.10570000000E+00 0. -1.
         13    1    3    3    0    0 -0.79921595923E+01  0.60107003454E+01 -0.88469681971E+01  0.13352271431E+02  0.10570000000E+00 0.  1.
<mgrwt>
<rscale>  0 0.20001941E+02</rscale>
<asrwt>0</asrwt>
<pdfrwt beam="1">  1        4 0.68820650E-03 0.20001941E+02</pdfrwt>
<pdfrwt beam="2">  1       -4 0.34398445E-02 0.20001941E+02</pdfrwt>
<totfact> 0.12622118E+06</totfact>
</mgrwt>
</event>
<event>
 4    1  0.4710515E-007  0.2001917E+02  0.7818608E-02  0.1744947E+00
         -4   -1    0    0    0  501 -0.00000000000E+00  0.00000000000E+00  0.10917893013E+03  0.10918816412E+03  0.14200000000E+01 0.  1.
          4   -1    0    0  501    0  0.00000000000E+00 -0.00000000000E+00 -0.35344960924E+00  0.14633272451E+01  0.14200000000E+01 0. -1.
        -13    1    1    2    0    0 -0.98774433722E+01  0.16161820212E+01  0.54032665806E+02  0.54951943355E+02  0.10570000000E+00 0.  1.
         13    1    1    2    0    0  0.98774433722E+01 -0.16161820212E+01  0.54792814713E+02  0.55699548010E+02  0.10570000000E+00 0. -1.
<mgrwt>
<rscale>  0 0.20019174E+02</rscale>
<asrwt>0</asrwt>
<pdfrwt beam="2">  1        4 0.14046236E-03 0.20019174E+02</pdfrwt>
<pdfrwt beam="1">  1       -4 0.16882845E-01 0.20019174E+02</pdfrwt>
<totfact> 0.94897818E+05</totfact>
</mgrwt>
</event>
<event>
 5    1  0.5211015E-007  0.2000173E+02  0.7818608E-02  0.1745294E+00
          4   -1    0    0  501    0  0.00000000000E+00  0.00000000000E+00  0.68919103618E+01  0.70366773719E+01  0.14200000000E+01 0. -1.
         -4   -1    0    0    0  501 -0.00000000000E+00 -0.00000000000E+00 -0.14180849635E+02  0.14251768184E+02  0.14200000000E+01 0.  1.
       1023    2    1    2    0    0  0.00000000000E+00  0.00000000000E+00 -0.72889392729E+01  0.21288445556E+02  0.20001731886E+02 0.  0.
        -13    1    3    3    0    0 -0.44235286708E+01  0.89687450441E+01 -0.36312807504E+01  0.10639707042E+02  0.10570000000E+00 0. -1.
         13    1    3    3    0    0  0.44235286708E+01 -0.89687450441E+01 -0.36576585225E+01  0.10648738513E+02  0.10570000000E+00 0.  1.
<mgrwt>
<rscale>  0 0.20001732E+02</rscale>
<asrwt>0</asrwt>
<pdfrwt beam="1">  1        4 0.10768851E-02 0.20001732E+02</pdfrwt>
<pdfrwt beam="2">  1       -4 0.21982604E-02 0.20001732E+02</pdfrwt>
<totfact> 0.12935482E+06</totfact>
</mgrwt>
</event>
<event>
 5    1  0.4710515E-007  0.2000248E+02  0.7818608E-02  0.1745279E+00
         -4   -1    0    0    0  501 -0.00000000000E+00  0.00000000000E+00  0.11545428715E+02  0.11632425552E+02  0.14200000000E+01 0.  1.
          4   -1    0    0  501    0  0.00000000000E+00 -0.00000000000E+00 -0.84848495141E+01  0.86028525081E+01  0.14200000000E+01 0. -1.
       1023    2    1    2    0    0  0.00000000000E+00  0.00000000000E+00  0.30605792011E+01  0.20235278060E+02  0.20002483174E+02 0.  0.
        -13    1    3    3    0    0 -0.65627072177E+01 -0.75461384497E+01  0.15119328752E+01  0.10114862581E+02  0.10570000000E+00 0. -1.
         13    1    3    3    0    0  0.65627072177E+01  0.75461384497E+01  0.15486463258E+01  0.10120415479E+02  0.10570000000E+00 0.  1.
<mgrwt>
<rscale>  0 0.20002483E+02</rscale>
<asrwt>0</asrwt>
<pdfrwt beam="2">  1        4 0.13211307E-02 0.20002483E+02</pdfrwt>
<pdfrwt beam="1">  1       -4 0.17919890E-02 0.20002483E+02</pdfrwt>
<totfact> 0.12996746E+06</totfact>
</mgrwt>
</event>
<event>
 5    1  0.4710515E-007  0.2000662E+02  0.7818608E-02  0.1745196E+00
         -4   -1    0    0    0  501 -0.00000000000E+00  0.00000000000E+00  0.27226342847E+02  0.27263348012E+02  0.14200000000E+01 0. -1.
          4   -1    0    0  501    0  0.00000000000E+00 -0.00000000000E+00 -0.34970990839E+01  0.37744008800E+01  0.14200000000E+01 0.  1.
       1023    2    1    2    0    0  0.00000000000E+00  0.00000000000E+00  0.23729243763E+02  0.31037748892E+02  0.20006620072E+02 0.  0.
        -13    1    3    3    0    0 -0.71844702269E+01  0.69583342521E+01  0.12084080610E+02  0.15686656900E+02  0.10570000000E+00 0. -1.
         13    1    3    3    0    0  0.71844702269E+01 -0.69583342521E+01  0.11645163152E+02  0.15351091992E+02  0.10570000000E+00 0.  1.
<mgrwt>
<rscale>  0 0.20006620E+02</rscale>
<asrwt>0</asrwt>
<pdfrwt beam="2">  1        4 0.56219270E-03 0.20006620E+02</pdfrwt>
<pdfrwt beam="1">  1       -4 0.42128456E-02 0.20006620E+02</pdfrwt>
<totfact> 0.12393555E+06</totfact>
</mgrwt>
</event>
<event>
 4    1  0.4710515E-007  0.2070821E+02  0.7818608E-02  0.1731600E+00
         -4   -1    0    0    0  501 -0.00000000000E+00  0.00000000000E+00  0.16697528082E+01  0.21919111388E+01  0.14200000000E+01 0.  1.
          4   -1    0    0  501    0  0.00000000000E+00 -0.00000000000E+00 -0.54991426110E+02  0.55009756822E+02  0.14200000000E+01 0. -1.
        -13    1    1    2    0    0 -0.52429409534E+00 -0.10215470000E+02 -0.22236365283E+02  0.24476474932E+02  0.10570000000E+00 0.  1.
         13    1    1    2    0    0  0.52429409534E+00  0.10215470000E+02 -0.31085308019E+02  0.32725193029E+02  0.10570000000E+00 0. -1.
<mgrwt>
<rscale>  0 0.20708210E+02</rscale>
<asrwt>0</asrwt>
<pdfrwt beam="2">  1        4 0.85017943E-02 0.20708210E+02</pdfrwt>
<pdfrwt beam="1">  1       -4 0.29846117E-03 0.20708210E+02</pdfrwt>
<totfact> 0.10461999E+06</totfact>
</mgrwt>
</event>
<event>
 5    1  0.4761240E-007  0.2000436E+02  0.7818608E-02  0.1745241E+00
         -4   -1    0    0    0  501 -0.00000000000E+00  0.00000000000E+00  0.75220108638E+01  0.76548708308E+01  0.14200000000E+01 0. -1.
          4   -1    0    0  501    0  0.00000000000E+00 -0.00000000000E+00 -0.13011859408E+02  0.13089113234E+02  0.14200000000E+01 0.  1.
       1023    2    1    2    0    0  0.00000000000E+00  0.00000000000E+00 -0.54898485441E+01  0.20743984065E+02  0.20004360471E+02 0.  0.
        -13    1    3    3    0    0 -0.98540846584E+01 -0.17090526147E+01 -0.28410426478E+01  0.10397429543E+02  0.10570000000E+00 0.  1.
         13    1    3    3    0    0  0.98540846584E+01  0.17090526147E+01 -0.26488058963E+01  0.10346554521E+02  0.10570000000E+00 0. -1.
<mgrwt>
<rscale>  0 0.20004360E+02</rscale>
<asrwt>0</asrwt>
<pdfrwt beam="2">  1        4 0.20179871E-02 0.20004360E+02</pdfrwt>
<pdfrwt beam="1">  1       -4 0.11733950E-02 0.20004360E+02</pdfrwt>
<totfact> 0.12964129E+06</totfact>
</mgrwt>
</event>
<event>
 4    1  0.4710515E-007  0.2003667E+02  0.7818608E-02  0.1744600E+00
          4   -1    0    0  501    0  0.00000000000E+00  0.00000000000E+00  0.93162881738E+02  0.93173703016E+02  0.14200000000E+01 0.  1.
         -4   -1    0    0    0  501 -0.00000000000E+00 -0.00000000000E+00 -0.59371238184E+00  0.15391213053E+01  0.14200000000E+01 0. -1.
        -13    1    1    2    0    0 -0.93363798679E+01  0.36169886884E+01  0.44751227847E+02  0.45857760112E+02  0.10570000000E+00 0.  1.
         13    1    1    2    0    0  0.93363798679E+01 -0.36169886884E+01  0.47817941509E+02  0.48855064209E+02  0.10570000000E+00 0. -1.
<mgrwt>
<rscale>  0 0.20036666E+02</rscale>
<asrwt>0</asrwt>
<pdfrwt beam="1">  1        4 0.14406307E-01 0.20036666E+02</pdfrwt>
<pdfrwt beam="2">  1       -4 0.16489653E-03 0.20036666E+02</pdfrwt>
<totfact> 0.99181112E+05</totfact>
</mgrwt>
</event>
<event>
 5    1  0.4710515E-007  0.2000481E+02  0.7818608E-02  0.1745232E+00
          4   -1    0    0  501    0  0.00000000000E+00  0.00000000000E+00  0.10628337495E+02  0.10722777527E+02  0.14200000000E+01 0. -1.
         -4   -1    0    0    0  501 -0.00000000000E+00 -0.00000000000E+00 -0.92226781797E+01  0.93313553574E+01  0.14200000000E+01 0.  1.
       1023    2    1    2    0    0  0.00000000000E+00  0.00000000000E+00  0.14056593150E+01  0.20054132885E+02  0.20004808613E+02 0.  0.
        -13    1    3    3    0    0 -0.67080573818E+01  0.74184077805E+01  0.62446026193E+00  0.10021573277E+02  0.10570000000E+00 0. -1.
         13    1    3    3    0    0  0.67080573818E+01 -0.74184077805E+01  0.78119905305E+00  0.10032559608E+02  0.10570000000E+00 0.  1.
<mgrwt>
<rscale>  0 0.20004809E+02</rscale>
<asrwt>0</asrwt>
<pdfrwt beam="1">  1        4 0.16507532E-02 0.20004809E+02</pdfrwt>
<pdfrwt beam="2">  1       -4 0.14344980E-02 0.20004809E+02</pdfrwt>
<totfact> 0.13004447E+06</totfact>
</mgrwt>
</event>
<event>
 5    1  0.4710515E-007  0.2000326E+02  0.7818608E-02  0.1745263E+00
          4   -1    0    0  501    0  0.00000000000E+00  0.00000000000E+00  0.15318398367E+02  0.15384073860E+02  0.14200000000E+01 0.  1.
         -4   -1    0    0    0  501 -0.00000000000E+00 -0.00000000000E+00 -0.63722659495E+01  0.65285659476E+01  0.14200000000E+01 0. -1.
       1023    2    1    2    0    0  0.00000000000E+00  0.00000000000E+00  0.89461324170E+01  0.21912639807E+02  0.20003262186E+02 0.  0.
        -13    1    3    3    0    0  0.71091804489E+01 -0.70340584335E+01  0.44127930648E+01  0.10931712575E+02  0.10570000000E+00 0.  1.
         13    1    3    3    0    0 -0.71091804489E+01  0.70340584335E+01  0.45333393522E+01  0.10980927232E+02  0.10570000000E+00 0. -1.
<mgrwt>
<rscale>  0 0.20003262E+02</rscale>
<asrwt>0</asrwt>
<pdfrwt beam="1">  1        4 0.23737517E-02 0.20003262E+02</pdfrwt>
<pdfrwt beam="2">  1       -4 0.99742365E-03 0.20003262E+02</pdfrwt>
<totfact> 0.12897008E+06</totfact>
</mgrwt>
</event>
<event>
 5    1  0.4710515E-007  0.2000786E+02  0.7818608E-02  0.1745172E+00
         -4   -1    0    0    0  501 -0.00000000000E+00  0.00000000000E+00  0.92961339151E+02  0.92972183888E+02  0.14200000000E+01 0. -1.
          4   -1    0    0  501    0  0.00000000000E+00 -0.00000000000E+00 -0.59257132003E+00  0.15386815035E+01  0.14200000000E+01 0.  1.
       1023    2    1    2    0    0  0.00000000000E+00  0.00000000000E+00  0.92368767831E+02  0.94510865391E+02  0.20007858613E+02 0.  0.
        -13    1    3    3    0    0 -0.96450771963E+01 -0.26529553030E+01  0.45987166757E+02  0.47062685483E+02  0.10570000000E+00 0.  1.
         13    1    3    3    0    0  0.96450771963E+01  0.26529553030E+01  0.46381601074E+02  0.47448179909E+02  0.10570000000E+00 0. -1.
<mgrwt>
<rscale>  0 0.20007859E+02</rscale>
<asrwt>0</asrwt>
<pdfrwt beam="2">  1        4 0.16477671E-03 0.20007859E+02</pdfrwt>
<pdfrwt beam="1">  1       -4 0.14375358E-01 0.20007859E+02</pdfrwt>
<totfact> 0.99526088E+05</totfact>
</mgrwt>
</event>
<event>
 4    1  0.4710515E-007  0.2023584E+02  0.7818608E-02  0.1740678E+00
          4   -1    0    0  501    0  0.00000000000E+00  0.00000000000E+00  0.36035814298E+02  0.36063781168E+02  0.14200000000E+01 0. -1.
         -4   -1    0    0    0  501 -0.00000000000E+00 -0.00000000000E+00 -0.26324235340E+01  0.29909954300E+01  0.14200000000E+01 0.  1.
        -13    1    1    2    0    0 -0.99913435982E+01 -0.14767468385E+01  0.15554428428E+02  0.18546135563E+02  0.10570000000E+00 0.  1.
         13    1    1    2    0    0  0.99913435982E+01  0.14767468385E+01  0.17848962336E+02  0.20508641035E+02  0.10570000000E+00 0. -1.
<mgrwt>
<rscale>  0 0.20235836E+02</rscale>
<asrwt>0</asrwt>
<pdfrwt beam="1">  1        4 0.55737048E-02 0.20235836E+02</pdfrwt>
<pdfrwt beam="2">  1       -4 0.43472202E-03 0.20235836E+02</pdfrwt>
<totfact> 0.11724747E+06</totfact>
</mgrwt>
</event>
<event>
 5    1  0.4710515E-007  0.2000209E+02  0.7818608E-02  0.1745287E+00
         -4   -1    0    0    0  501 -0.00000000000E+00  0.00000000000E+00  0.10551642095E+03  0.10552597542E+03  0.14200000000E+01 0.  1.
          4   -1    0    0  501    0  0.00000000000E+00 -0.00000000000E+00 -0.40104507725E+00  0.14755463917E+01  0.14200000000E+01 0. -1.
       1023    2    1    2    0    0  0.00000000000E+00  0.00000000000E+00  0.10511537587E+03  0.10700152182E+03  0.20002085564E+02 0.  0.
        -13    1    3    3    0    0 -0.36454616296E+01  0.93120885756E+01  0.52168233298E+02  0.53118171298E+02  0.10570000000E+00 0.  1.
         13    1    3    3    0    0  0.36454616296E+01 -0.93120885756E+01  0.52947142571E+02  0.53883350518E+02  0.10570000000E+00 0. -1.
<mgrwt>
<rscale>  0 0.20002086E+02</rscale>
<asrwt>0</asrwt>
<pdfrwt beam="2">  1        4 0.14508818E-03 0.20002086E+02</pdfrwt>
<pdfrwt beam="1">  1       -4 0.16316681E-01 0.20002086E+02</pdfrwt>
<totfact> 0.96042551E+05</totfact>
</mgrwt>
</event>
<event>
 5    1  0.4738937E-007  0.2000275E+02  0.7818608E-02  0.1745273E+00
         -4   -1    0    0    0  501 -0.00000000000E+00  0.00000000000E+00  0.32026818118E+02  0.32058282529E+02  0.14200000000E+01 0. -1.
          4   -1    0    0  501    0  0.00000000000E+00 -0.00000000000E+00 -0.29270325312E+01  0.32532936294E+01  0.14200000000E+01 0.  1.
       1023    2    1    2    0    0  0.00000000000E+00  0.00000000000E+00  0.29099785586E+02  0.35311576159E+02  0.20002747052E+02 0.  0.
        -13    1    3    3    0    0  0.23822299852E+01 -0.97127825967E+01  0.14451058422E+02  0.17574340030E+02  0.10570000000E+00 0. -1.
         13    1    3    3    0    0 -0.23822299852E+01  0.97127825967E+01  0.14648727164E+02  0.17737236129E+02  0.10570000000E+00 0.  1.
<mgrwt>
<rscale>  0 0.20002747E+02</rscale>
<asrwt>0</asrwt>
<pdfrwt beam="2">  1        4 0.47783002E-03 0.20002747E+02</pdfrwt>
<pdfrwt beam="1">  1       -4 0.49547204E-02 0.20002747E+02</pdfrwt>
<totfact> 0.12183273E+06</totfact>
</mgrwt>
</event>
<event>
 5    1  0.4710515E-007  0.2000304E+02  0.7818608E-02  0.1745268E+00
          4   -1    0    0  501    0  0.00000000000E+00  0.00000000000E+00  0.77227704817E+01  0.78522343261E+01  0.14200000000E+01 0. -1.
         -4   -1    0    0    0  501 -0.00000000000E+00 -0.00000000000E+00 -0.12675557025E+02  0.12754847937E+02  0.14200000000E+01 0.  1.
       1023    2    1    2    0    0  0.00000000000E+00  0.00000000000E+00 -0.49527865433E+01  0.20607082263E+02  0.20003043390E+02 0.  0.
        -13    1    3    3    0    0 -0.69495030862E+01 -0.71918308080E+01 -0.24401132534E+01  0.10294821450E+02  0.10570000000E+00 0. -1.
         13    1    3    3    0    0  0.69495030862E+01  0.71918308080E+01 -0.25126732899E+01  0.10312260813E+02  0.10570000000E+00 0.  1.
<mgrwt>
<rscale>  0 0.20003043E+02</rscale>
<asrwt>0</asrwt>
<pdfrwt beam="1">  1        4 0.12041766E-02 0.20003043E+02</pdfrwt>
<pdfrwt beam="2">  1       -4 0.19661438E-02 0.20003043E+02</pdfrwt>
<totfact> 0.12973958E+06</totfact>
</mgrwt>
</event>
<event>
 5    1  0.4710515E-007  0.2000202E+02  0.7818608E-02  0.1745288E+00
          4   -1    0    0  501    0  0.00000000000E+00  0.00000000000E+00  0.39694426146E+01  0.42157887365E+01  0.14200000000E+01 0.  1.
         -4   -1    0    0    0  501 -0.00000000000E+00 -0.00000000000E+00 -0.24171381164E+02  0.24213055721E+02  0.14200000000E+01 0. -1.
       1023    2    1    2    0    0  0.00000000000E+00  0.00000000000E+00 -0.20201938549E+02  0.28428844458E+02  0.20002021799E+02 0.  0.
        -13    1    3    3    0    0  0.99544017772E+01  0.95631863009E+00 -0.10195102398E+02  0.14281314556E+02  0.10570000000E+00 0. -1.
         13    1    3    3    0    0 -0.99544017772E+01 -0.95631863009E+00 -0.10006836152E+02  0.14147529902E+02  0.10570000000E+00 0.  1.
<mgrwt>
<rscale>  0 0.20002022E+02</rscale>
<asrwt>0</asrwt>
<pdfrwt beam="1">  1        4 0.63283893E-03 0.20002022E+02</pdfrwt>
<pdfrwt beam="2">  1       -4 0.37408294E-02 0.20002022E+02</pdfrwt>
<totfact> 0.12536054E+06</totfact>
</mgrwt>
</event>
<event>
 4    1  0.4710515E-007  0.2005765E+02  0.7818608E-02  0.1744184E+00
          4   -1    0    0  501    0  0.00000000000E+00  0.00000000000E+00  0.46620382192E+01  0.48734998058E+01  0.14200000000E+01 0.  1.
         -4   -1    0    0    0  501 -0.00000000000E+00 -0.00000000000E+00 -0.20859117487E+02  0.20907395399E+02  0.14200000000E+01 0. -1.
        -13    1    1    2    0    0 -0.91451245726E+01  0.40995156219E+01 -0.85562197846E+01  0.13177989273E+02  0.10570000000E+00 0.  1.
         13    1    1    2    0    0  0.91451245726E+01 -0.40995156219E+01 -0.76408594835E+01  0.12602905932E+02  0.10570000000E+00 0. -1.
<mgrwt>
<rscale>  0 0.20057646E+02</rscale>
<asrwt>0</asrwt>
<pdfrwt beam="1">  1        4 0.73721662E-03 0.20057646E+02</pdfrwt>
<pdfrwt beam="2">  1       -4 0.32290749E-02 0.20057646E+02</pdfrwt>
<totfact> 0.12608131E+06</totfact>
</mgrwt>
</event>
<event>
 5    1  0.4710515E-007  0.2000449E+02  0.7818608E-02  0.1745239E+00
          4   -1    0    0  501    0  0.00000000000E+00  0.00000000000E+00  0.61392381360E+02  0.61408801397E+02  0.14200000000E+01 0.  1.
         -4   -1    0    0    0  501 -0.00000000000E+00 -0.00000000000E+00 -0.13003793921E+01  0.19254574946E+01  0.14200000000E+01 0. -1.
       1023    2    1    2    0    0  0.00000000000E+00  0.00000000000E+00  0.60092001968E+02  0.63334258892E+02  0.20004490718E+02 0.  0.
        -13    1    3    3    0    0  0.89552365509E+01  0.44539135718E+01  0.30009634604E+02  0.31632624762E+02  0.10570000000E+00 0. -1.
         13    1    3    3    0    0 -0.89552365509E+01 -0.44539135718E+01  0.30082367364E+02  0.31701634130E+02  0.10570000000E+00 0.  1.
<mgrwt>
<rscale>  0 0.20004491E+02</rscale>
<asrwt>0</asrwt>
<pdfrwt beam="1">  1        4 0.94943277E-02 0.20004491E+02</pdfrwt>
<pdfrwt beam="2">  1       -4 0.24940438E-03 0.20004491E+02</pdfrwt>
<totfact> 0.10987711E+06</totfact>
</mgrwt>
</event>
<event>
 4    1  0.4710515E-007  0.2001519E+02  0.7818608E-02  0.1745026E+00
          4   -1    0    0  501    0  0.00000000000E+00  0.00000000000E+00  0.50923925782E+02  0.50943720095E+02  0.14200000000E+01 0.  1.
         -4   -1    0    0    0  501 -0.00000000000E+00 -0.00000000000E+00 -0.16874900185E+01  0.22054529155E+01  0.14200000000E+01 0. -1.
        -13    1    1    2    0    0 -0.74333305900E+01 -0.66997300792E+01  0.24634359516E+02  0.26589539824E+02  0.10570000000E+00 0. -1.
         13    1    1    2    0    0  0.74333305900E+01  0.66997300792E+01  0.24602076248E+02  0.26559633186E+02  0.10570000000E+00 0.  1.
<mgrwt>
<rscale>  0 0.20015194E+02</rscale>
<asrwt>0</asrwt>
<pdfrwt beam="1">  1        4 0.78758170E-02 0.20015194E+02</pdfrwt>
<pdfrwt beam="2">  1       -4 0.30097975E-03 0.20015194E+02</pdfrwt>
<totfact> 0.11372352E+06</totfact>
</mgrwt>
</event>
<event>
 5    1  0.4710515E-007  0.2000223E+02  0.7818608E-02  0.1745284E+00
         -4   -1    0    0    0  501 -0.00000000000E+00  0.00000000000E+00  0.84464499773E+02  0.84476435305E+02  0.14200000000E+01 0.  1.
          4   -1    0    0  501    0  0.00000000000E+00 -0.00000000000E+00 -0.74207769890E+00  0.16022107574E+01  0.14200000000E+01 0. -1.
       1023    2    1    2    0    0  0.00000000000E+00  0.00000000000E+00  0.83722422074E+02  0.86078646063E+02  0.20002233627E+02 0.  0.
        -13    1    3    3    0    0  0.93219082189E+01 -0.36212041904E+01  0.41897826395E+02  0.43074936120E+02  0.10570000000E+00 0.  1.
         13    1    3    3    0    0 -0.93219082189E+01  0.36212041904E+01  0.41824595679E+02  0.43003709943E+02  0.10570000000E+00 0. -1.
<mgrwt>
<rscale>  0 0.20002234E+02</rscale>
<asrwt>0</asrwt>
<pdfrwt beam="2">  1        4 0.18124802E-03 0.20002234E+02</pdfrwt>
<pdfrwt beam="1">  1       -4 0.13061619E-01 0.20002234E+02</pdfrwt>
<totfact> 0.10214521E+06</totfact>
</mgrwt>
</event>
<event>
 5    1  0.4710515E-007  0.2000247E+02  0.7818608E-02  0.1745279E+00
          4   -1    0    0  501    0  0.00000000000E+00  0.00000000000E+00  0.10878337295E+02  0.10970625429E+02  0.14200000000E+01 0. -1.
         -4   -1    0    0    0  501 -0.00000000000E+00 -0.00000000000E+00 -0.90078736069E+01  0.91191110815E+01  0.14200000000E+01 0.  1.
       1023    2    1    2    0    0  0.00000000000E+00  0.00000000000E+00  0.18704636879E+01  0.20089736510E+02  0.20002471813E+02 0.  0.
        -13    1    3    3    0    0  0.94636605076E+01  0.32309973645E+01  0.81925947967E+00  0.10034070598E+02  0.10570000000E+00 0.  1.
         13    1    3    3    0    0 -0.94636605076E+01 -0.32309973645E+01  0.10512042083E+01  0.10055665913E+02  0.10570000000E+00 0. -1.
<mgrwt>
<rscale>  0 0.20002472E+02</rscale>
<asrwt>0</asrwt>
<pdfrwt beam="1">  1        4 0.16892462E-02 0.20002472E+02</pdfrwt>
<pdfrwt beam="2">  1       -4 0.14014825E-02 0.20002472E+02</pdfrwt>
<totfact> 0.13005438E+06</totfact>
</mgrwt>
</event>
<event>
 5    1  0.4974482E-007  0.2000236E+02  0.7818608E-02  0.1745281E+00
         -4   -1    0    0    0  501 -0.00000000000E+00  0.00000000000E+00  0.25760264205E+01  0.29414812797E+01  0.14200000000E+01 0.  1.
          4   -1    0    0  501    0  0.00000000000E+00 -0.00000000000E+00 -0.35876364988E+02  0.35904456057E+02  0.14200000000E+01 0. -1.
       1023    2    1    2    0    0  0.00000000000E+00  0.00000000000E+00 -0.33300338567E+02  0.38845937337E+02  0.20002357333E+02 0.  0.
        -13    1    3    3    0    0 -0.98090365780E+01 -0.19475214461E+01 -0.16744591584E+02  0.19503911355E+02  0.10570000000E+00 0.  1.
         13    1    3    3    0    0  0.98090365780E+01  0.19475214461E+01 -0.16555746984E+02  0.19342025981E+02  0.10570000000E+00 0. -1.
<mgrwt>
<rscale>  0 0.20002357E+02</rscale>
<asrwt>0</asrwt>
<pdfrwt beam="2">  1        4 0.55497132E-02 0.20002357E+02</pdfrwt>
<pdfrwt beam="1">  1       -4 0.42658455E-03 0.20002357E+02</pdfrwt>
<totfact> 0.12013799E+06</totfact>
</mgrwt>
</event>
<event>
 5    1  0.4710515E-007  0.2000209E+02  0.7818608E-02  0.1745287E+00
         -4   -1    0    0    0  501 -0.00000000000E+00  0.00000000000E+00  0.61840434498E+00  0.15488137183E+01  0.14200000000E+01 0.  1.
          4   -1    0    0  501    0  0.00000000000E+00 -0.00000000000E+00 -0.91365187795E+02  0.91376221966E+02  0.14200000000E+01 0. -1.
       1023    2    1    2    0    0  0.00000000000E+00  0.00000000000E+00 -0.90746783450E+02  0.92925035684E+02  0.20002088652E+02 0.  0.
        -13    1    3    3    0    0 -0.70061974634E+01  0.71358097420E+01 -0.45633369881E+02  0.46716401860E+02  0.10570000000E+00 0. -1.
         13    1    3    3    0    0  0.70061974634E+01 -0.71358097420E+01 -0.45113413569E+02  0.46208633824E+02  0.10570000000E+00 0.  1.
<mgrwt>
<rscale>  0 0.20002089E+02</rscale>
<asrwt>0</asrwt>
<pdfrwt beam="2">  1        4 0.14128595E-01 0.20002089E+02</pdfrwt>
<pdfrwt beam="1">  1       -4 0.16755794E-03 0.20002089E+02</pdfrwt>
<totfact> 0.10005420E+06</totfact>
</mgrwt>
</event>
<event>
 5    1  0.4710515E-007  0.2000278E+02  0.7818608E-02  0.1745273E+00
          4   -1    0    0  501    0  0.00000000000E+00  0.00000000000E+00  0.17897975203E+01  0.22846827272E+01  0.14200000000E+01 0.  1.
         -4   -1    0    0    0  501 -0.00000000000E+00 -0.00000000000E+00 -0.48593129134E+02  0.48613872496E+02  0.14200000000E+01 0. -1.
       1023    2    1    2    0    0  0.00000000000E+00  0.00000000000E+00 -0.46803331614E+02  0.50898555223E+02  0.20002776648E+02 0.  0.
        -13    1    3    3    0    0 -0.63385018005E+01  0.77352532806E+01 -0.23207084340E+02  0.25270351886E+02  0.10570000000E+00 0.  1.
         13    1    3    3    0    0  0.63385018005E+01 -0.77352532806E+01 -0.23596247274E+02  0.25628203337E+02  0.10570000000E+00 0. -1.
<mgrwt>
<rscale>  0 0.20002777E+02</rscale>
<asrwt>0</asrwt>
<pdfrwt beam="1">  1        4 0.31501724E-03 0.20002777E+02</pdfrwt>
<pdfrwt beam="2">  1       -4 0.75155289E-02 0.20002777E+02</pdfrwt>
<totfact> 0.11479377E+06</totfact>
</mgrwt>
</event>
<event>
 4    1  0.4710515E-007  0.2002684E+02  0.7818608E-02  0.1744795E+00
         -4   -1    0    0    0  501 -0.00000000000E+00  0.00000000000E+00  0.59424508983E+01  0.61097563518E+01  0.14200000000E+01 0.  1.
          4   -1    0    0  501    0  0.00000000000E+00 -0.00000000000E+00 -0.16440706851E+02  0.16501916306E+02  0.14200000000E+01 0. -1.
        -13    1    1    2    0    0  0.13329751307E+01 -0.99140485854E+01 -0.57441649558E+01  0.11535674475E+02  0.10570000000E+00 0.  1.
         13    1    1    2    0    0 -0.13329751307E+01  0.99140485854E+01 -0.47540909969E+01  0.11075998183E+02  0.10570000000E+00 0. -1.
<mgrwt>
<rscale>  0 0.20026841E+02</rscale>
<asrwt>0</asrwt>
<pdfrwt beam="2">  1        4 0.25469176E-02 0.20026841E+02</pdfrwt>
<pdfrwt beam="1">  1       -4 0.93180129E-03 0.20026841E+02</pdfrwt>
<totfact> 0.12825743E+06</totfact>
</mgrwt>
</event>
<event>
 5    1  0.4710515E-007  0.2000670E+02  0.7818608E-02  0.1745195E+00
         -4   -1    0    0    0  501 -0.00000000000E+00  0.00000000000E+00  0.18597358046E+02  0.18651491262E+02  0.14200000000E+01 0.  1.
          4   -1    0    0  501    0  0.00000000000E+00 -0.00000000000E+00 -0.52238381630E+01  0.54133986694E+01  0.14200000000E+01 0. -1.
       1023    2    1    2    0    0  0.00000000000E+00  0.00000000000E+00  0.13373519883E+02  0.24064889931E+02  0.20006696212E+02 0.  0.
        -13    1    3    3    0    0  0.63962988531E+01  0.76879807467E+01  0.64519318818E+01  0.11901944567E+02  0.10570000000E+00 0. -1.
         13    1    3    3    0    0 -0.63962988531E+01 -0.76879807467E+01  0.69215880010E+01  0.12162945364E+02  0.10570000000E+00 0.  1.
<mgrwt>
<rscale>  0 0.20006696E+02</rscale>
<asrwt>0</asrwt>
<pdfrwt beam="2">  1        4 0.82241308E-03 0.20006696E+02</pdfrwt>
<pdfrwt beam="1">  1       -4 0.28798777E-02 0.20006696E+02</pdfrwt>
<totfact> 0.12769388E+06</totfact>
</mgrwt>
</event>
<event>
 4    1  0.4710515E-007  0.2003723E+02  0.7818608E-02  0.1744589E+00
         -4   -1    0    0    0  501 -0.00000000000E+00  0.00000000000E+00  0.54292638493E+01  0.56118896947E+01  0.14200000000E+01 0.  1.
          4   -1    0    0  501    0  0.00000000000E+00 -0.00000000000E+00 -0.17970445742E+02  0.18026461665E+02  0.14200000000E+01 0. -1.
        -13    1    1    2    0    0  0.10006575757E+02 -0.25322245931E+00 -0.67508847251E+01  0.12073992590E+02  0.10570000000E+00 0. -1.
         13    1    1    2    0    0 -0.10006575757E+02  0.25322245931E+00 -0.57902971676E+01  0.11564358770E+02  0.10570000000E+00 0.  1.
<mgrwt>
<rscale>  0 0.20037226E+02</rscale>
<asrwt>0</asrwt>
<pdfrwt beam="2">  1        4 0.27830410E-02 0.20037226E+02</pdfrwt>
<pdfrwt beam="1">  1       -4 0.85362843E-03 0.20037226E+02</pdfrwt>
<totfact> 0.12753781E+06</totfact>
</mgrwt>
</event>
<event>
 5    1  0.4710515E-007  0.2000617E+02  0.7818608E-02  0.1745205E+00
         -4   -1    0    0    0  501 -0.00000000000E+00  0.00000000000E+00  0.20671325806E+02  0.20720041278E+02  0.14200000000E+01 0.  1.
          4   -1    0    0  501    0  0.00000000000E+00 -0.00000000000E+00 -0.46807398536E+01  0.48913930099E+01  0.14200000000E+01 0. -1.
       1023    2    1    2    0    0  0.00000000000E+00  0.00000000000E+00  0.15990585952E+02  0.25611434288E+02  0.20006167229E+02 0.  0.
        -13    1    3    3    0    0 -0.71795731165E+01 -0.69630741885E+01  0.81755981652E+01  0.12918291301E+02  0.10570000000E+00 0.  1.
         13    1    3    3    0    0  0.71795731165E+01  0.69630741885E+01  0.78149877872E+01  0.12693142987E+02  0.10570000000E+00 0. -1.
<mgrwt>
<rscale>  0 0.20006167E+02</rscale>
<asrwt>0</asrwt>
<pdfrwt beam="2">  1        4 0.74006524E-03 0.20006167E+02</pdfrwt>
<pdfrwt beam="1">  1       -4 0.32001555E-02 0.20006167E+02</pdfrwt>
<totfact> 0.12683651E+06</totfact>
</mgrwt>
</event>
<event>
 5    1  0.4908967E-007  0.2000628E+02  0.7818608E-02  0.1745203E+00
         -4   -1    0    0    0  501 -0.00000000000E+00  0.00000000000E+00  0.71547947444E+00  0.15900663126E+01  0.14200000000E+01 0.  1.
          4   -1    0    0  501    0  0.00000000000E+00 -0.00000000000E+00 -0.85919182647E+02  0.85930916129E+02  0.14200000000E+01 0. -1.
       1023    2    1    2    0    0  0.00000000000E+00  0.00000000000E+00 -0.85203703172E+02  0.87520982441E+02  0.20006282343E+02 0.  0.
        -13    1    3    3    0    0 -0.99813985398E+01  0.63799441794E+00 -0.42043208551E+02  0.43216639289E+02  0.10570000000E+00 0. -1.
         13    1    3    3    0    0  0.99813985398E+01 -0.63799441794E+00 -0.43160494622E+02  0.44304343152E+02  0.10570000000E+00 0.  1.
<mgrwt>
<rscale>  0 0.20006282E+02</rscale>
<asrwt>0</asrwt>
<pdfrwt beam="2">  1        4 0.13286509E-01 0.20006282E+02</pdfrwt>
<pdfrwt beam="1">  1       -4 0.17825232E-03 0.20006282E+02</pdfrwt>
<totfact> 0.10165487E+06</totfact>
</mgrwt>
</event>
<event>
 5    1  0.4710515E-007  0.2000382E+02  0.7818608E-02  0.1745252E+00
         -4   -1    0    0    0  501 -0.00000000000E+00  0.00000000000E+00  0.13492501187E+01  0.19587944973E+01  0.14200000000E+01 0.  1.
          4   -1    0    0  501    0  0.00000000000E+00 -0.00000000000E+00 -0.59862275212E+02  0.59879114836E+02  0.14200000000E+01 0. -1.
       1023    2    1    2    0    0  0.00000000000E+00  0.00000000000E+00 -0.58513025094E+02  0.61837909334E+02  0.20003822764E+02 0.  0.
        -13    1    3    3    0    0  0.91168938083E+01 -0.41119935576E+01 -0.29344767571E+02  0.31002464419E+02  0.10570000000E+00 0. -1.
         13    1    3    3    0    0 -0.91168938083E+01  0.41119935576E+01 -0.29168257522E+02  0.30835444915E+02  0.10570000000E+00 0.  1.
<mgrwt>
<rscale>  0 0.20003823E+02</rscale>
<asrwt>0</asrwt>
<pdfrwt beam="2">  1        4 0.92577625E-02 0.20003823E+02</pdfrwt>
<pdfrwt beam="1">  1       -4 0.25576037E-03 0.20003823E+02</pdfrwt>
<totfact> 0.11044606E+06</totfact>
</mgrwt>
</event>
<event>
 4    1  0.4710515E-007  0.2004144E+02  0.7818608E-02  0.1744505E+00
         -4   -1    0    0    0  501 -0.00000000000E+00  0.00000000000E+00  0.19838488452E+02  0.19889243929E+02  0.14200000000E+01 0.  1.
          4   -1    0    0  501    0  0.00000000000E+00 -0.00000000000E+00 -0.49035325981E+01  0.51050006798E+01  0.14200000000E+01 0. -1.
        -13    1    1    2    0    0 -0.99218281778E+01 -0.12606920640E+01  0.67071920256E+01  0.12042824263E+02  0.10570000000E+00 0.  1.
         13    1    1    2    0    0  0.99218281778E+01  0.12606920640E+01  0.82277638288E+01  0.12951420346E+02  0.10570000000E+00 0. -1.
<mgrwt>
<rscale>  0 0.20041441E+02</rscale>
<asrwt>0</asrwt>
<pdfrwt beam="2">  1        4 0.77379145E-03 0.20041441E+02</pdfrwt>
<pdfrwt beam="1">  1       -4 0.30714769E-02 0.20041441E+02</pdfrwt>
<totfact> 0.12672374E+06</totfact>
</mgrwt>
</event>
<event>
 5    1  0.4710515E-007  0.2000176E+02  0.7818608E-02  0.1745293E+00
         -4   -1    0    0    0  501 -0.00000000000E+00  0.00000000000E+00  0.53134093954E+00  0.15161540799E+01  0.14200000000E+01 0.  1.
          4   -1    0    0  501    0  0.00000000000E+00 -0.00000000000E+00 -0.96704971411E+02  0.96715396373E+02  0.14200000000E+01 0. -1.
       1023    2    1    2    0    0  0.00000000000E+00  0.00000000000E+00 -0.96173630472E+02  0.98231550453E+02  0.20001757581E+02 0.  0.
        -13    1    3    3    0    0  0.81989536524E+00  0.99664710076E+01 -0.48382763825E+02  0.49405523786E+02  0.10570000000E+00 0.  1.
         13    1    3    3    0    0 -0.81989536524E+00 -0.99664710076E+01 -0.47790866647E+02  0.48826026668E+02  0.10570000000E+00 0. -1.
<mgrwt>
<rscale>  0 0.20001758E+02</rscale>
<asrwt>0</asrwt>
<pdfrwt beam="2">  1        4 0.14954237E-01 0.20001758E+02</pdfrwt>
<pdfrwt beam="1">  1       -4 0.15830161E-03 0.20001758E+02</pdfrwt>
<totfact> 0.98501721E+05</totfact>
</mgrwt>
</event>
<event>
 5    1  0.4710515E-007  0.2000319E+02  0.7818608E-02  0.1745265E+00
         -4   -1    0    0    0  501 -0.00000000000E+00  0.00000000000E+00  0.65489339156E+02  0.65504732219E+02  0.14200000000E+01 0. -1.
          4   -1    0    0  501    0  0.00000000000E+00 -0.00000000000E+00 -0.11784064627E+01  0.18452755326E+01  0.14200000000E+01 0.  1.
       1023    2    1    2    0    0  0.00000000000E+00  0.00000000000E+00  0.64310932693E+02  0.67350007751E+02  0.20003186753E+02 0.  0.
        -13    1    3    3    0    0 -0.56815376325E+01 -0.82300914070E+01  0.31885622745E+02  0.33417336590E+02  0.10570000000E+00 0. -1.
         13    1    3    3    0    0  0.56815376325E+01  0.82300914070E+01  0.32425309948E+02  0.33932671161E+02  0.10570000000E+00 0.  1.
<mgrwt>
<rscale>  0 0.20003187E+02</rscale>
<asrwt>0</asrwt>
<pdfrwt beam="2">  1        4 0.23377507E-03 0.20003187E+02</pdfrwt>
<pdfrwt beam="1">  1       -4 0.10127762E-01 0.20003187E+02</pdfrwt>
<totfact> 0.10841896E+06</totfact>
</mgrwt>
</event>
<event>
 5    1  0.4710515E-007  0.2000360E+02  0.7818608E-02  0.1745257E+00
          4   -1    0    0  501    0  0.00000000000E+00  0.00000000000E+00  0.61513922862E+02  0.61530310465E+02  0.14200000000E+01 0. -1.
         -4   -1    0    0    0  501 -0.00000000000E+00 -0.00000000000E+00 -0.12964015598E+01  0.19227732586E+01  0.14200000000E+01 0.  1.
       1023    2    1    2    0    0  0.00000000000E+00  0.00000000000E+00  0.60217521302E+02  0.63453083724E+02  0.20003598731E+02 0.  0.
        -13    1    3    3    0    0  0.99267910575E+01 -0.12117375318E+01  0.29716017314E+02  0.31353825062E+02  0.10570000000E+00 0. -1.
         13    1    3    3    0    0 -0.99267910575E+01  0.12117375318E+01  0.30501503988E+02  0.32099258661E+02  0.10570000000E+00 0.  1.
<mgrwt>
<rscale>  0 0.20003599E+02</rscale>
<asrwt>0</asrwt>
<pdfrwt beam="1">  1        4 0.95131251E-02 0.20003599E+02</pdfrwt>
<pdfrwt beam="2">  1       -4 0.24888937E-03 0.20003599E+02</pdfrwt>
<totfact> 0.10984267E+06</totfact>
</mgrwt>
</event>
<event>
 5    1  0.4710515E-007  0.2000148E+02  0.7818608E-02  0.1745299E+00
         -4   -1    0    0    0  501 -0.00000000000E+00  0.00000000000E+00  0.16845334695E+02  0.16905079147E+02  0.14200000000E+01 0. -1.
          4   -1    0    0  501    0  0.00000000000E+00 -0.00000000000E+00 -0.57809130134E+01  0.59527603067E+01  0.14200000000E+01 0.  1.
       1023    2    1    2    0    0  0.00000000000E+00  0.00000000000E+00  0.11064421681E+02  0.22857839454E+02  0.20001484879E+02 0.  0.
        -13    1    3    3    0    0  0.77722455556E+01 -0.62925248383E+01  0.55291803312E+01  0.11427452798E+02  0.10570000000E+00 0.  1.
         13    1    3    3    0    0 -0.77722455556E+01  0.62925248383E+01  0.55352413499E+01  0.11430386656E+02  0.10570000000E+00 0. -1.
<mgrwt>
<rscale>  0 0.20001485E+02</rscale>
<asrwt>0</asrwt>
<pdfrwt beam="2">  1        4 0.90718599E-03 0.20001485E+02</pdfrwt>
<pdfrwt beam="1">  1       -4 0.26094047E-02 0.20001485E+02</pdfrwt>
<totfact> 0.12844777E+06</totfact>
</mgrwt>
</event>
<event>
 4    1  0.4710515E-007  0.2008423E+02  0.7818608E-02  0.1743658E+00
          4   -1    0    0  501    0  0.00000000000E+00  0.00000000000E+00  0.67414272803E+01  0.68893571381E+01  0.14200000000E+01 0. -1.
         -4   -1    0    0    0  501 -0.00000000000E+00 -0.00000000000E+00 -0.14613807947E+02  0.14682635414E+02  0.14200000000E+01 0.  1.
        -13    1    1    2    0    0  0.74891627585E+01  0.66876876018E+01 -0.37834427054E+01  0.10730253281E+02  0.10570000000E+00 0.  1.
         13    1    1    2    0    0 -0.74891627585E+01 -0.66876876018E+01 -0.40889379610E+01  0.10841739271E+02  0.10570000000E+00 0. -1.
<mgrwt>
<rscale>  0 0.20084235E+02</rscale>
<asrwt>0</asrwt>
<pdfrwt beam="1">  1        4 0.10538163E-02 0.20084235E+02</pdfrwt>
<pdfrwt beam="2">  1       -4 0.22649518E-02 0.20084235E+02</pdfrwt>
<totfact> 0.12810793E+06</totfact>
</mgrwt>
</event>
<event>
 4    1  0.4710515E-007  0.2016416E+02  0.7818608E-02  0.1742083E+00
         -4   -1    0    0    0  501 -0.00000000000E+00  0.00000000000E+00  0.38217222081E+01  0.40770038798E+01  0.14200000000E+01 0. -1.
          4   -1    0    0  501    0  0.00000000000E+00 -0.00000000000E+00 -0.25462208269E+02  0.25501773467E+02  0.14200000000E+01 0.  1.
        -13    1    1    2    0    0  0.30429918390E+00  0.10047095255E+02 -0.11956937433E+02  0.15621019375E+02  0.10570000000E+00 0.  1.
         13    1    1    2    0    0 -0.30429918390E+00 -0.10047095255E+02 -0.96835486282E+01  0.13957757971E+02  0.10570000000E+00 0. -1.
<mgrwt>
<rscale>  0 0.20164162E+02</rscale>
<asrwt>0</asrwt>
<pdfrwt beam="2">  1        4 0.39399432E-02 0.20164162E+02</pdfrwt>
<pdfrwt beam="1">  1       -4 0.61063781E-03 0.20164162E+02</pdfrwt>
<totfact> 0.12271990E+06</totfact>
</mgrwt>
</event>
<event>
 4    1  0.4710515E-007  0.2001931E+02  0.7818608E-02  0.1744944E+00
          4   -1    0    0  501    0  0.00000000000E+00  0.00000000000E+00  0.22902610979E+01  0.26947534018E+01  0.14200000000E+01 0. -1.
         -4   -1    0    0    0  501 -0.00000000000E+00 -0.00000000000E+00 -0.39779579617E+02  0.39804916210E+02  0.14200000000E+01 0.  1.
        -13    1    1    2    0    0  0.43938858802E+01 -0.89927686588E+01 -0.18908204497E+02  0.21394099445E+02  0.10570000000E+00 0.  1.
         13    1    1    2    0    0 -0.43938858802E+01  0.89927686588E+01 -0.18581114022E+02  0.21105570167E+02  0.10570000000E+00 0. -1.
<mgrwt>
<rscale>  0 0.20019314E+02</rscale>
<asrwt>0</asrwt>
<pdfrwt beam="1">  1        4 0.38541165E-03 0.20019314E+02</pdfrwt>
<pdfrwt beam="2">  1       -4 0.61529986E-02 0.20019314E+02</pdfrwt>
<totfact> 0.11824709E+06</totfact>
</mgrwt>
</event>
<event>
 5    1  0.4710515E-007  0.2000291E+02  0.7818608E-02  0.1745270E+00
         -4   -1    0    0    0  501 -0.00000000000E+00  0.00000000000E+00  0.10105166553E+03  0.10106164211E+03  0.14200000000E+01 0. -1.
          4   -1    0    0  501    0  0.00000000000E+00 -0.00000000000E+00 -0.46535266871E+00  0.14943068983E+01  0.14200000000E+01 0.  1.
       1023    2    1    2    0    0  0.00000000000E+00  0.00000000000E+00  0.10058631286E+03  0.10255594901E+03  0.20002908348E+02 0.  0.
        -13    1    3    3    0    0 -0.29563340118E+01  0.95530659752E+01  0.50960319382E+02  0.51932324272E+02  0.10570000000E+00 0. -1.
         13    1    3    3    0    0  0.29563340118E+01 -0.95530659752E+01  0.49625993476E+02  0.50623624735E+02  0.10570000000E+00 0.  1.
<mgrwt>
<rscale>  0 0.20002908E+02</rscale>
<asrwt>0</asrwt>
<pdfrwt beam="2">  1        4 0.15151051E-03 0.20002908E+02</pdfrwt>
<pdfrwt beam="1">  1       -4 0.15626324E-01 0.20002908E+02</pdfrwt>
<totfact> 0.97262490E+05</totfact>
</mgrwt>
</event>
<event>
 5    1  0.4710515E-007  0.2000278E+02  0.7818608E-02  0.1745273E+00
          4   -1    0    0  501    0  0.00000000000E+00  0.00000000000E+00  0.18558912291E+01  0.23368209718E+01  0.14200000000E+01 0.  1.
         -4   -1    0    0    0  501 -0.00000000000E+00 -0.00000000000E+00 -0.47222257526E+02  0.47243602804E+02  0.14200000000E+01 0. -1.
       1023    2    1    2    0    0  0.00000000000E+00  0.00000000000E+00 -0.45366366297E+02  0.49580423776E+02  0.20002780576E+02 0.  0.
        -13    1    3    3    0    0 -0.97211639207E+01 -0.23482994691E+01 -0.22601093312E+02  0.24715099226E+02  0.10570000000E+00 0.  1.
         13    1    3    3    0    0  0.97211639207E+01  0.23482994691E+01 -0.22765272985E+02  0.24865324550E+02  0.10570000000E+00 0. -1.
<mgrwt>
<rscale>  0 0.20002781E+02</rscale>
<asrwt>0</asrwt>
<pdfrwt beam="1">  1        4 0.32415830E-03 0.20002781E+02</pdfrwt>
<pdfrwt beam="2">  1       -4 0.73035984E-02 0.20002781E+02</pdfrwt>
<totfact> 0.11534662E+06</totfact>
</mgrwt>
</event>
<event>
 5    1  0.4710515E-007  0.2001008E+02  0.7818608E-02  0.1745128E+00
          4   -1    0    0  501    0  0.00000000000E+00  0.00000000000E+00  0.21647669891E+01  0.25889411189E+01  0.14200000000E+01 0.  1.
         -4   -1    0    0    0  501 -0.00000000000E+00 -0.00000000000E+00 -0.41677498626E+02  0.41701682121E+02  0.14200000000E+01 0. -1.
       1023    2    1    2    0    0  0.00000000000E+00  0.00000000000E+00 -0.39512731637E+02  0.44290623240E+02  0.20010081099E+02 0.  0.
        -13    1    3    3    0    0  0.91477224906E+01 -0.40501098306E+01 -0.19919731757E+02  0.22291054308E+02  0.10570000000E+00 0. -1.
         13    1    3    3    0    0 -0.91477224906E+01  0.40501098306E+01 -0.19592999880E+02  0.21999568932E+02  0.10570000000E+00 0.  1.
<mgrwt>
<rscale>  0 0.20010081E+02</rscale>
<asrwt>0</asrwt>
<pdfrwt beam="1">  1        4 0.36753015E-03 0.20010081E+02</pdfrwt>
<pdfrwt beam="2">  1       -4 0.64464114E-02 0.20010081E+02</pdfrwt>
<totfact> 0.11755311E+06</totfact>
</mgrwt>
</event>
<event>
 4    1  0.4710515E-007  0.2035989E+02  0.7818608E-02  0.1738264E+00
         -4   -1    0    0    0  501 -0.00000000000E+00  0.00000000000E+00  0.14719294140E+01  0.20452325539E+01  0.14200000000E+01 0.  1.
          4   -1    0    0  501    0  0.00000000000E+00 -0.00000000000E+00 -0.58345572760E+02  0.58362850005E+02  0.14200000000E+01 0. -1.
        -13    1    1    2    0    0 -0.12907459371E+01 -0.10089861757E+02 -0.29581239075E+02  0.31281499533E+02  0.10570000000E+00 0. -1.
         13    1    1    2    0    0  0.12907459371E+01  0.10089861757E+02 -0.27292404272E+02  0.29126583026E+02  0.10570000000E+00 0.  1.
<mgrwt>
<rscale>  0 0.20359890E+02</rscale>
<asrwt>0</asrwt>
<pdfrwt beam="2">  1        4 0.90216697E-02 0.20359890E+02</pdfrwt>
<pdfrwt beam="1">  1       -4 0.27187998E-03 0.20359890E+02</pdfrwt>
<totfact> 0.10710382E+06</totfact>
</mgrwt>
</event>
<event>
 5    1  0.4710515E-007  0.2000157E+02  0.7818608E-02  0.1745297E+00
          4   -1    0    0  501    0  0.00000000000E+00  0.00000000000E+00  0.11552458932E+03  0.11553331614E+03  0.14200000000E+01 0. -1.
         -4   -1    0    0    0  501 -0.00000000000E+00 -0.00000000000E+00 -0.26873616946E+00  0.14452055663E+01  0.14200000000E+01 0.  1.
       1023    2    1    2    0    0  0.00000000000E+00  0.00000000000E+00  0.11525585315E+03  0.11697852171E+03  0.20001571298E+02 0.  0.
        -13    1    3    3    0    0 -0.94131518081E+01  0.33753469162E+01  0.57251286347E+02  0.58118167165E+02  0.10570000000E+00 0. -1.
         13    1    3    3    0    0  0.94131518081E+01 -0.33753469162E+01  0.58004566808E+02  0.58860354542E+02  0.10570000000E+00 0.  1.
<mgrwt>
<rscale>  0 0.20001571E+02</rscale>
<asrwt>0</asrwt>
<pdfrwt beam="1">  1        4 0.17864178E-01 0.20001571E+02</pdfrwt>
<pdfrwt beam="2">  1       -4 0.13251300E-03 0.20001571E+02</pdfrwt>
<totfact> 0.93411180E+05</totfact>
</mgrwt>
</event>
<event>
 4    1  0.4710515E-007  0.2034078E+02  0.7818608E-02  0.1738635E+00
         -4   -1    0    0    0  501 -0.00000000000E+00  0.00000000000E+00  0.32791829790E+01  0.35734354632E+01  0.14200000000E+01 0.  1.
          4   -1    0    0  501    0  0.00000000000E+00 -0.00000000000E+00 -0.29877170361E+02  0.29910896155E+02  0.14200000000E+01 0. -1.
        -13    1    1    2    0    0 -0.55733966870E+01 -0.85027070122E+01 -0.13724880785E+02  0.17080465515E+02  0.10570000000E+00 0.  1.
         13    1    1    2    0    0  0.55733966870E+01  0.85027070122E+01 -0.12873106597E+02  0.16403866103E+02  0.10570000000E+00 0. -1.
<mgrwt>
<rscale>  0 0.20340785E+02</rscale>
<asrwt>0</asrwt>
<pdfrwt beam="2">  1        4 0.46217167E-02 0.20340785E+02</pdfrwt>
<pdfrwt beam="1">  1       -4 0.52971881E-03 0.20340785E+02</pdfrwt>
<totfact> 0.11862011E+06</totfact>
</mgrwt>
</event>
<event>
 4    1  0.4710515E-007  0.2004552E+02  0.7818608E-02  0.1744424E+00
         -4   -1    0    0    0  501 -0.00000000000E+00  0.00000000000E+00  0.32538603357E+02  0.32569573353E+02  0.14200000000E+01 0.  1.
          4   -1    0    0  501    0  0.00000000000E+00 -0.00000000000E+00 -0.28897406765E+01  0.32197827842E+01  0.14200000000E+01 0. -1.
        -13    1    1    2    0    0  0.10204034657E+01  0.99559189736E+01  0.15774260072E+02  0.18681541669E+02  0.10570000000E+00 0.  1.
         13    1    1    2    0    0 -0.10204034657E+01 -0.99559189736E+01  0.13874602608E+02  0.17107814468E+02  0.10570000000E+00 0. -1.
<mgrwt>
<rscale>  0 0.20045522E+02</rscale>
<asrwt>0</asrwt>
<pdfrwt beam="2">  1        4 0.47234564E-03 0.20045522E+02</pdfrwt>
<pdfrwt beam="1">  1       -4 0.50337093E-02 0.20045522E+02</pdfrwt>
<totfact> 0.12107332E+06</totfact>
</mgrwt>
</event>
<event>
 5    1  0.4710515E-007  0.2000408E+02  0.7818608E-02  0.1745247E+00
          4   -1    0    0  501    0  0.00000000000E+00  0.00000000000E+00  0.88948006332E+02  0.88959340321E+02  0.14200000000E+01 0.  1.
         -4   -1    0    0    0  501 -0.00000000000E+00 -0.00000000000E+00 -0.66046823214E+00  0.15660837416E+01  0.14200000000E+01 0. -1.
       1023    2    1    2    0    0  0.00000000000E+00  0.00000000000E+00  0.88287538100E+02  0.90525424063E+02  0.20004075037E+02 0.  0.
        -13    1    3    3    0    0  0.99895732104E+01  0.48400431192E+00  0.44420849308E+02  0.45532942568E+02  0.10570000000E+00 0.  1.
         13    1    3    3    0    0 -0.99895732104E+01 -0.48400431192E+00  0.43866688791E+02  0.44992481495E+02  0.10570000000E+00 0. -1.
<mgrwt>
<rscale>  0 0.20004075E+02</rscale>
<asrwt>0</asrwt>
<pdfrwt beam="1">  1        4 0.13754847E-01 0.20004075E+02</pdfrwt>
<pdfrwt beam="2">  1       -4 0.17214503E-03 0.20004075E+02</pdfrwt>
<totfact> 0.10075628E+06</totfact>
</mgrwt>
</event>
<event>
 4    1  0.4710515E-007  0.2001436E+02  0.7818608E-02  0.1745043E+00
          4   -1    0    0  501    0  0.00000000000E+00  0.00000000000E+00  0.53876132962E+02  0.53894843009E+02  0.14200000000E+01 0. -1.
         -4   -1    0    0    0  501 -0.00000000000E+00 -0.00000000000E+00 -0.15656828476E+01  0.21137083004E+01  0.14200000000E+01 0.  1.
        -13    1    1    2    0    0  0.98428887820E+01  0.17938910982E+01  0.26655663358E+02  0.28471671296E+02  0.10570000000E+00 0. -1.
         13    1    1    2    0    0 -0.98428887820E+01 -0.17938910982E+01  0.25654786756E+02  0.27536880013E+02  0.10570000000E+00 0.  1.
<mgrwt>
<rscale>  0 0.20014361E+02</rscale>
<asrwt>0</asrwt>
<pdfrwt beam="1">  1        4 0.83322301E-02 0.20014361E+02</pdfrwt>
<pdfrwt beam="2">  1       -4 0.28446935E-03 0.20014361E+02</pdfrwt>
<totfact> 0.11258364E+06</totfact>
</mgrwt>
</event>
<event>
 5    1  0.4710515E-007  0.2000236E+02  0.7818608E-02  0.1745281E+00
         -4   -1    0    0    0  501 -0.00000000000E+00  0.00000000000E+00  0.20776429584E+01  0.25165453031E+01  0.14200000000E+01 0. -1.
          4   -1    0    0  501    0  0.00000000000E+00 -0.00000000000E+00 -0.43091833347E+02  0.43115223543E+02  0.14200000000E+01 0.  1.
       1023    2    1    2    0    0  0.00000000000E+00  0.00000000000E+00 -0.41014190388E+02  0.45631768846E+02  0.20002362731E+02 0.  0.
        -13    1    3    3    0    0  0.98337453532E+01  0.18191555085E+01 -0.20562120916E+02  0.22865341972E+02  0.10570000000E+00 0. -1.
         13    1    3    3    0    0 -0.98337453532E+01 -0.18191555085E+01 -0.20452069472E+02  0.22766426874E+02  0.10570000000E+00 0.  1.
<mgrwt>
<rscale>  0 0.20002363E+02</rscale>
<asrwt>0</asrwt>
<pdfrwt beam="2">  1        4 0.66650732E-02 0.20002363E+02</pdfrwt>
<pdfrwt beam="1">  1       -4 0.35519837E-03 0.20002363E+02</pdfrwt>
<totfact> 0.11705169E+06</totfact>
</mgrwt>
</event>
<event>
 5    1  0.4953457E-007  0.2000140E+02  0.7818608E-02  0.1745300E+00
          4   -1    0    0  501    0  0.00000000000E+00  0.00000000000E+00  0.11027128171E+01  0.17978808517E+01  0.14200000000E+01 0. -1.
         -4   -1    0    0    0  501 -0.00000000000E+00 -0.00000000000E+00 -0.68256701392E+02  0.68271470505E+02  0.14200000000E+01 0.  1.
       1023    2    1    2    0    0  0.00000000000E+00  0.00000000000E+00 -0.67153988575E+02  0.70069351357E+02  0.20001395402E+02 0.  0.
        -13    1    3    3    0    0 -0.94176257450E+01  0.33629651787E+01 -0.33438072460E+02  0.34901533946E+02  0.10570000000E+00 0. -1.
         13    1    3    3    0    0  0.94176257450E+01 -0.33629651787E+01 -0.33715916115E+02  0.35167817411E+02  0.10570000000E+00 0.  1.
<mgrwt>
<rscale>  0 0.20001395E+02</rscale>
<asrwt>0</asrwt>
<pdfrwt beam="1">  1        4 0.22425873E-03 0.20001395E+02</pdfrwt>
<pdfrwt beam="2">  1       -4 0.10555639E-01 0.20001395E+02</pdfrwt>
<totfact> 0.10746848E+06</totfact>
</mgrwt>
</event>
<event>
 5    1  0.4878531E-007  0.2000165E+02  0.7818608E-02  0.1745295E+00
         -4   -1    0    0    0  501 -0.00000000000E+00  0.00000000000E+00  0.27583382040E+01  0.31023909566E+01  0.14200000000E+01 0. -1.
          4   -1    0    0  501    0  0.00000000000E+00 -0.00000000000E+00 -0.33771222864E+02  0.33801063500E+02  0.14200000000E+01 0.  1.
       1023    2    1    2    0    0  0.00000000000E+00  0.00000000000E+00 -0.31012884660E+02  0.36903454457E+02  0.20001648329E+02 0.  0.
        -13    1    3    3    0    0  0.98924045518E+01  0.14647955412E+01 -0.15514201865E+02  0.18458248178E+02  0.10570000000E+00 0. -1.
         13    1    3    3    0    0 -0.98924045518E+01 -0.14647955412E+01 -0.15498682795E+02  0.18445206279E+02  0.10570000000E+00 0.  1.
<mgrwt>
<rscale>  0 0.20001648E+02</rscale>
<asrwt>0</asrwt>
<pdfrwt beam="2">  1        4 0.52243335E-02 0.20001648E+02</pdfrwt>
<pdfrwt beam="1">  1       -4 0.45312078E-03 0.20001648E+02</pdfrwt>
<totfact> 0.12107225E+06</totfact>
</mgrwt>
</event>
<event>
 5    1  0.4710515E-007  0.2000217E+02  0.7818608E-02  0.1745285E+00
          4   -1    0    0  501    0  0.00000000000E+00  0.00000000000E+00  0.11211197934E+03  0.11212097178E+03  0.14200000000E+01 0.  1.
         -4   -1    0    0    0  501 -0.00000000000E+00 -0.00000000000E+00 -0.31228311229E+00  0.14539328534E+01  0.14200000000E+01 0. -1.
       1023    2    1    2    0    0  0.00000000000E+00  0.00000000000E+00  0.11179969623E+03  0.11357490463E+03  0.20002171995E+02 0.  0.
        -13    1    3    3    0    0  0.99648431311E+01 -0.84302516026E+00  0.55661732738E+02  0.56553058750E+02  0.10570000000E+00 0. -1.
         13    1    3    3    0    0 -0.99648431311E+01  0.84302516026E+00  0.56137963491E+02  0.57021845879E+02  0.10570000000E+00 0.  1.
<mgrwt>
<rscale>  0 0.20002172E+02</rscale>
<asrwt>0</asrwt>
<pdfrwt beam="1">  1        4 0.17336510E-01 0.20002172E+02</pdfrwt>
<pdfrwt beam="2">  1       -4 0.13655448E-03 0.20002172E+02</pdfrwt>
<totfact> 0.94286896E+05</totfact>
</mgrwt>
</event>
<event>
 4    1  0.4710515E-007  0.2009193E+02  0.7818608E-02  0.1743506E+00
         -4   -1    0    0    0  501 -0.00000000000E+00  0.00000000000E+00  0.81654225060E+02  0.81666571314E+02  0.14200000000E+01 0.  1.
          4   -1    0    0  501    0  0.00000000000E+00 -0.00000000000E+00 -0.81147094700E+00  0.16355075964E+01  0.14200000000E+01 0. -1.
        -13    1    1    2    0    0  0.59115098222E+01 -0.81197125271E+01  0.39651147237E+02  0.40903549108E+02  0.10570000000E+00 0. -1.
         13    1    1    2    0    0 -0.59115098222E+01  0.81197125271E+01  0.41191606876E+02  0.42398529803E+02  0.10570000000E+00 0.  1.
<mgrwt>
<rscale>  0 0.20091925E+02</rscale>
<asrwt>0</asrwt>
<pdfrwt beam="2">  1        4 0.18917882E-03 0.20091925E+02</pdfrwt>
<pdfrwt beam="1">  1       -4 0.12626526E-01 0.20091925E+02</pdfrwt>
<totfact> 0.10210357E+06</totfact>
</mgrwt>
</event>
<event>
 5    1  0.4710515E-007  0.2000193E+02  0.7818608E-02  0.1745290E+00
          4   -1    0    0  501    0  0.00000000000E+00  0.00000000000E+00  0.11661977017E+02  0.11748110825E+02  0.14200000000E+01 0.  1.
         -4   -1    0    0    0  501 -0.00000000000E+00 -0.00000000000E+00 -0.83990238260E+01  0.85182158478E+01  0.14200000000E+01 0. -1.
       1023    2    1    2    0    0  0.00000000000E+00  0.00000000000E+00  0.32629531913E+01  0.20266326673E+02  0.20001928239E+02 0.  0.
        -13    1    3    3    0    0 -0.20183121192E+01 -0.97945762131E+01  0.16027500698E+01  0.10128538260E+02  0.10570000000E+00 0.  1.
         13    1    3    3    0    0  0.20183121192E+01  0.97945762131E+01  0.16602031215E+01  0.10137788413E+02  0.10570000000E+00 0. -1.
<mgrwt>
<rscale>  0 0.20001928E+02</rscale>
<asrwt>0</asrwt>
<pdfrwt beam="1">  1        4 0.18099446E-02 0.20001928E+02</pdfrwt>
<pdfrwt beam="2">  1       -4 0.13079518E-02 0.20001928E+02</pdfrwt>
<totfact> 0.12995634E+06</totfact>
</mgrwt>
</event>
<event>
 5    1  0.4873495E-007  0.2001177E+02  0.7818608E-02  0.1745094E+00
          4   -1    0    0  501    0  0.00000000000E+00  0.00000000000E+00  0.20172577225E+01  0.24669269789E+01  0.14200000000E+01 0.  1.
         -4   -1    0    0    0  501 -0.00000000000E+00 -0.00000000000E+00 -0.44191479688E+02  0.44214288155E+02  0.14200000000E+01 0. -1.
       1023    2    1    2    0    0  0.00000000000E+00  0.00000000000E+00 -0.42174221966E+02  0.46681215134E+02  0.20011767737E+02 0.  0.
        -13    1    3    3    0    0 -0.99964845774E+01 -0.34719942914E+00 -0.20533677826E+02  0.22840607455E+02  0.10570000000E+00 0. -1.
         13    1    3    3    0    0  0.99964845774E+01  0.34719942914E+00 -0.21640544140E+02  0.23840607679E+02  0.10570000000E+00 0.  1.
<mgrwt>
<rscale>  0 0.20011768E+02</rscale>
<asrwt>0</asrwt>
<pdfrwt beam="1">  1        4 0.34669182E-03 0.20011768E+02</pdfrwt>
<pdfrwt beam="2">  1       -4 0.68350330E-02 0.20011768E+02</pdfrwt>
<totfact> 0.11648257E+06</totfact>
</mgrwt>
</event>
<event>
 5    1  0.5026066E-007  0.2000314E+02  0.7818608E-02  0.1745266E+00
         -4   -1    0    0    0  501 -0.00000000000E+00  0.00000000000E+00  0.74996675244E+01  0.76329164136E+01  0.14200000000E+01 0.  1.
          4   -1    0    0  501    0  0.00000000000E+00 -0.00000000000E+00 -0.13048552920E+02  0.13125590780E+02  0.14200000000E+01 0. -1.
       1023    2    1    2    0    0  0.00000000000E+00  0.00000000000E+00 -0.55488853958E+01  0.20758507193E+02  0.20003137048E+02 0.  0.
        -13    1    3    3    0    0 -0.91801399289E+01  0.39664370603E+01 -0.28909699899E+01  0.10410402108E+02  0.10570000000E+00 0.  1.
         13    1    3    3    0    0  0.91801399289E+01 -0.39664370603E+01 -0.26579154059E+01  0.10348105086E+02  0.10570000000E+00 0. -1.
<mgrwt>
<rscale>  0 0.20003137E+02</rscale>
<asrwt>0</asrwt>
<pdfrwt beam="2">  1        4 0.20236456E-02 0.20003137E+02</pdfrwt>
<pdfrwt beam="1">  1       -4 0.11699709E-02 0.20003137E+02</pdfrwt>
<totfact> 0.12964886E+06</totfact>
</mgrwt>
</event>
<event>
 5    1  0.4710515E-007  0.2001210E+02  0.7818608E-02  0.1745088E+00
          4   -1    0    0  501    0  0.00000000000E+00  0.00000000000E+00  0.66965114209E+01  0.68454119825E+01  0.14200000000E+01 0. -1.
         -4   -1    0    0    0  501 -0.00000000000E+00 -0.00000000000E+00 -0.14603106186E+02  0.14671983856E+02  0.14200000000E+01 0.  1.
       1023    2    1    2    0    0  0.00000000000E+00  0.00000000000E+00 -0.79065947650E+01  0.21517395839E+02  0.20012098413E+02 0.  0.
        -13    1    3    3    0    0 -0.86918193956E+01  0.49535198909E+01 -0.37840928322E+01  0.10696523490E+02  0.10570000000E+00 0. -1.
         13    1    3    3    0    0  0.86918193956E+01 -0.49535198909E+01 -0.41225019328E+01  0.10820872349E+02  0.10570000000E+00 0.  1.
<mgrwt>
<rscale>  0 0.20012098E+02</rscale>
<asrwt>0</asrwt>
<pdfrwt beam="1">  1        4 0.10469847E-02 0.20012098E+02</pdfrwt>
<pdfrwt beam="2">  1       -4 0.22633839E-02 0.20012098E+02</pdfrwt>
<totfact> 0.12908413E+06</totfact>
</mgrwt>
</event>
<event>
 4    1  0.4710515E-007  0.2002003E+02  0.7818608E-02  0.1744930E+00
          4   -1    0    0  501    0  0.00000000000E+00  0.00000000000E+00  0.95652294574E+02  0.95662834253E+02  0.14200000000E+01 0. -1.
         -4   -1    0    0    0  501 -0.00000000000E+00 -0.00000000000E+00 -0.55077455926E+00  0.15230734109E+01  0.14200000000E+01 0.  1.
        -13    1    1    2    0    0 -0.21292919670E+01 -0.97803540571E+01  0.47542973222E+02  0.48585334053E+02  0.10570000000E+00 0. -1.
         13    1    1    2    0    0  0.21292919670E+01  0.97803540571E+01  0.47558546793E+02  0.48600573611E+02  0.10570000000E+00 0.  1.
<mgrwt>
<rscale>  0 0.20020028E+02</rscale>
<asrwt>0</asrwt>
<pdfrwt beam="1">  1        4 0.14791341E-01 0.20020028E+02</pdfrwt>
<pdfrwt beam="2">  1       -4 0.16033750E-03 0.20020028E+02</pdfrwt>
<totfact> 0.98624002E+05</totfact>
</mgrwt>
</event>
<event>
 5    1  0.4710515E-007  0.2000859E+02  0.7818608E-02  0.1745157E+00
          4   -1    0    0  501    0  0.00000000000E+00  0.00000000000E+00  0.18650149935E+01  0.23440735752E+01  0.14200000000E+01 0.  1.
         -4   -1    0    0    0  501 -0.00000000000E+00 -0.00000000000E+00 -0.47066072591E+02  0.47087488669E+02  0.14200000000E+01 0.  1.
       1023    2    1    2    0    0  0.00000000000E+00  0.00000000000E+00 -0.45201057598E+02  0.49431562245E+02  0.20008591604E+02 0.  0.
        -13    1    3    3    0    0 -0.80081852300E+01 -0.59944152431E+01 -0.22344771043E+02  0.24481911899E+02  0.10570000000E+00 0. -1.
         13    1    3    3    0    0  0.80081852300E+01  0.59944152431E+01 -0.22856286555E+02  0.24949650346E+02  0.10570000000E+00 0.  1.
<mgrwt>
<rscale>  0 0.20008592E+02</rscale>
<asrwt>0</asrwt>
<pdfrwt beam="1">  1        4 0.32542347E-03 0.20008592E+02</pdfrwt>
<pdfrwt beam="2">  1       -4 0.72794315E-02 0.20008592E+02</pdfrwt>
<totfact> 0.11534189E+06</totfact>
</mgrwt>
</event>
<event>
 4    1  0.4710515E-007  0.2003672E+02  0.7818608E-02  0.1744599E+00
         -4   -1    0    0    0  501 -0.00000000000E+00  0.00000000000E+00  0.67167704413E+02  0.67182712927E+02  0.14200000000E+01 0.  1.
          4   -1    0    0  501    0  0.00000000000E+00 -0.00000000000E+00 -0.11382465914E+01  0.18198915635E+01  0.14200000000E+01 0. -1.
        -13    1    1    2    0    0  0.84532489766E+01 -0.53608263643E+01  0.34394322991E+02  0.35821453126E+02  0.10570000000E+00 0.  1.
         13    1    1    2    0    0 -0.84532489766E+01  0.53608263643E+01  0.31635134831E+02  0.33181151364E+02  0.10570000000E+00 0. -1.
<mgrwt>
<rscale>  0 0.20036719E+02</rscale>
<asrwt>0</asrwt>
<pdfrwt beam="2">  1        4 0.22870359E-03 0.20036719E+02</pdfrwt>
<pdfrwt beam="1">  1       -4 0.10387082E-01 0.20036719E+02</pdfrwt>
<totfact> 0.10746503E+06</totfact>
</mgrwt>
</event>
<event>
 4    1  0.4710515E-007  0.2001762E+02  0.7818608E-02  0.1744978E+00
         -4   -1    0    0    0  501 -0.00000000000E+00  0.00000000000E+00  0.40046463383E+01  0.42489519054E+01  0.14200000000E+01 0. -1.
          4   -1    0    0  501    0  0.00000000000E+00 -0.00000000000E+00 -0.24008671783E+02  0.24050628282E+02  0.14200000000E+01 0.  1.
        -13    1    1    2    0    0 -0.78540795091E+01 -0.61912362686E+01 -0.10544336100E+02  0.14533140327E+02  0.10570000000E+00 0.  1.
         13    1    1    2    0    0  0.78540795091E+01  0.61912362686E+01 -0.94596893444E+01  0.13766439861E+02  0.10570000000E+00 0. -1.
<mgrwt>
<rscale>  0 0.20017622E+02</rscale>
<asrwt>0</asrwt>
<pdfrwt beam="2">  1        4 0.37156619E-02 0.20017622E+02</pdfrwt>
<pdfrwt beam="1">  1       -4 0.63811961E-03 0.20017622E+02</pdfrwt>
<totfact> 0.12523076E+06</totfact>
</mgrwt>
</event>
<event>
 5    1  0.4710515E-007  0.2000144E+02  0.7818608E-02  0.1745299E+00
          4   -1    0    0  501    0  0.00000000000E+00  0.00000000000E+00  0.34404038527E+02  0.34433330756E+02  0.14200000000E+01 0. -1.
         -4   -1    0    0    0  501 -0.00000000000E+00 -0.00000000000E+00 -0.27011992906E+01  0.30517007729E+01  0.14200000000E+01 0.  1.
       1023    2    1    2    0    0  0.00000000000E+00  0.00000000000E+00  0.31702839236E+02  0.37485031529E+02  0.20001439275E+02 0.  0.
        -13    1    3    3    0    0  0.89613746656E+01  0.44379456636E+01  0.15926925186E+02  0.18806374345E+02  0.10570000000E+00 0.  1.
         13    1    3    3    0    0 -0.89613746656E+01 -0.44379456636E+01  0.15775914050E+02  0.18678657184E+02  0.10570000000E+00 0. -1.
<mgrwt>
<rscale>  0 0.20001439E+02</rscale>
<asrwt>0</asrwt>
<pdfrwt beam="1">  1        4 0.53221437E-02 0.20001439E+02</pdfrwt>
<pdfrwt beam="2">  1       -4 0.44478404E-03 0.20001439E+02</pdfrwt>
<totfact> 0.12079553E+06</totfact>
</mgrwt>
</event>
<event>
 5    1  0.4710515E-007  0.2000299E+02  0.7818608E-02  0.1745269E+00
          4   -1    0    0  501    0  0.00000000000E+00  0.00000000000E+00  0.13808425696E+02  0.13881247069E+02  0.14200000000E+01 0. -1.
         -4   -1    0    0    0  501 -0.00000000000E+00 -0.00000000000E+00 -0.70815812394E+01  0.72225475319E+01  0.14200000000E+01 0.  1.
       1023    2    1    2    0    0  0.00000000000E+00  0.00000000000E+00  0.67268444561E+01  0.21103794601E+02  0.20002992532E+02 0.  0.
        -13    1    3    3    0    0  0.84602097633E+01  0.53315294544E+01  0.35065317747E+01  0.10597513536E+02  0.10570000000E+00 0. -1.
         13    1    3    3    0    0 -0.84602097633E+01 -0.53315294544E+01  0.32203126814E+01  0.10506281065E+02  0.10570000000E+00 0.  1.
<mgrwt>
<rscale>  0 0.20002993E+02</rscale>
<asrwt>0</asrwt>
<pdfrwt beam="1">  1        4 0.21408184E-02 0.20002993E+02</pdfrwt>
<pdfrwt beam="2">  1       -4 0.11059192E-02 0.20002993E+02</pdfrwt>
<totfact> 0.12944677E+06</totfact>
</mgrwt>
</event>
<event>
 5    1  0.4710515E-007  0.2000263E+02  0.7818608E-02  0.1745276E+00
          4   -1    0    0  501    0  0.00000000000E+00  0.00000000000E+00  0.82353412422E+01  0.83568681559E+01  0.14200000000E+01 0. -1.
         -4   -1    0    0    0  501 -0.00000000000E+00 -0.00000000000E+00 -0.11892945776E+02  0.11977418721E+02  0.14200000000E+01 0.  1.
       1023    2    1    2    0    0  0.00000000000E+00  0.00000000000E+00 -0.36576045337E+01  0.20334286877E+02  0.20002628624E+02 0.  0.
        -13    1    3    3    0    0 -0.43979617501E+01 -0.89814690361E+01 -0.17483581716E+01  0.10152673657E+02  0.10570000000E+00 0. -1.
         13    1    3    3    0    0  0.43979617501E+01  0.89814690361E+01 -0.19092463621E+01  0.10181613220E+02  0.10570000000E+00 0.  1.
<mgrwt>
<rscale>  0 0.20002629E+02</rscale>
<asrwt>0</asrwt>
<pdfrwt beam="1">  1        4 0.12828217E-02 0.20002629E+02</pdfrwt>
<pdfrwt beam="2">  1       -4 0.18455301E-02 0.20002629E+02</pdfrwt>
<totfact> 0.12990665E+06</totfact>
</mgrwt>
</event>
<event>
 5    1  0.4710515E-007  0.2000160E+02  0.7818608E-02  0.1745296E+00
         -4   -1    0    0    0  501 -0.00000000000E+00  0.00000000000E+00  0.50449400238E+01  0.52409750852E+01  0.14200000000E+01 0.  1.
          4   -1    0    0  501    0  0.00000000000E+00 -0.00000000000E+00 -0.19224462446E+02  0.19276834707E+02  0.14200000000E+01 0. -1.
       1023    2    1    2    0    0  0.00000000000E+00  0.00000000000E+00 -0.14179522422E+02  0.24517809792E+02  0.20001603458E+02 0.  0.
        -13    1    3    3    0    0 -0.54976970740E+01  0.83532198944E+01 -0.70131417245E+01  0.12214593119E+02  0.10570000000E+00 0. -1.
         13    1    3    3    0    0  0.54976970740E+01 -0.83532198944E+01 -0.71663806973E+01  0.12303216673E+02  0.10570000000E+00 0.  1.
<mgrwt>
<rscale>  0 0.20001603E+02</rscale>
<asrwt>0</asrwt>
<pdfrwt beam="2">  1        4 0.29767178E-02 0.20001603E+02</pdfrwt>
<pdfrwt beam="1">  1       -4 0.79525288E-03 0.20001603E+02</pdfrwt>
<totfact> 0.12750517E+06</totfact>
</mgrwt>
</event>
<event>
 4    1  0.4710515E-007  0.2001412E+02  0.7818608E-02  0.1745047E+00
          4   -1    0    0  501    0  0.00000000000E+00  0.00000000000E+00  0.78752546689E+01  0.80022519393E+01  0.14200000000E+01 0. -1.
         -4   -1    0    0    0  501 -0.00000000000E+00 -0.00000000000E+00 -0.12446535116E+02  0.12527275697E+02  0.14200000000E+01 0.  1.
        -13    1    1    2    0    0 -0.17377121234E+01 -0.98519067531E+01 -0.25157894879E+01  0.10316010825E+02  0.10570000000E+00 0.  1.
         13    1    1    2    0    0  0.17377121234E+01  0.98519067531E+01 -0.20554909592E+01  0.10213516812E+02  0.10570000000E+00 0. -1.
<mgrwt>
<rscale>  0 0.20014118E+02</rscale>
<asrwt>0</asrwt>
<pdfrwt beam="1">  1        4 0.12275575E-02 0.20014118E+02</pdfrwt>
<pdfrwt beam="2">  1       -4 0.19308314E-02 0.20014118E+02</pdfrwt>
<totfact> 0.12963889E+06</totfact>
</mgrwt>
</event>
<event>
 4    1  0.4710515E-007  0.2001621E+02  0.7818608E-02  0.1745006E+00
          4   -1    0    0  501    0  0.00000000000E+00  0.00000000000E+00  0.49700505003E+01  0.51689265786E+01  0.14200000000E+01 0.  1.
         -4   -1    0    0    0  501 -0.00000000000E+00 -0.00000000000E+00 -0.19532679203E+02  0.19584227247E+02  0.14200000000E+01 0. -1.
        -13    1    1    2    0    0  0.44574379987E+01  0.89540984900E+01 -0.68780970454E+01  0.12139358498E+02  0.10570000000E+00 0. -1.
         13    1    1    2    0    0 -0.44574379987E+01 -0.89540984900E+01 -0.76845316573E+01  0.12613795328E+02  0.10570000000E+00 0.  1.
<mgrwt>
<rscale>  0 0.20016205E+02</rscale>
<asrwt>0</asrwt>
<pdfrwt beam="1">  1        4 0.78388656E-03 0.20016205E+02</pdfrwt>
<pdfrwt beam="2">  1       -4 0.30242909E-02 0.20016205E+02</pdfrwt>
<totfact> 0.12718399E+06</totfact>
</mgrwt>
</event>
<event>
 5    1  0.5117076E-007  0.2000154E+02  0.7818608E-02  0.1745297E+00
          4   -1    0    0  501    0  0.00000000000E+00  0.00000000000E+00  0.33808000241E+02  0.33837808444E+02  0.14200000000E+01 0.  1.
         -4   -1    0    0    0  501 -0.00000000000E+00 -0.00000000000E+00 -0.27549330247E+01  0.30993638009E+01  0.14200000000E+01 0. -1.
       1023    2    1    2    0    0  0.00000000000E+00  0.00000000000E+00  0.31053067216E+02  0.36937172245E+02  0.20001542688E+02 0.  0.
        -13    1    3    3    0    0 -0.77739058948E+01 -0.62903492107E+01  0.15612141081E+02  0.18540556294E+02  0.10570000000E+00 0.  1.
         13    1    3    3    0    0  0.77739058948E+01  0.62903492107E+01  0.15440926135E+02  0.18396615951E+02  0.10570000000E+00 0. -1.
<mgrwt>
<rscale>  0 0.20001543E+02</rscale>
<asrwt>0</asrwt>
<pdfrwt beam="1">  1        4 0.52300188E-02 0.20001543E+02</pdfrwt>
<pdfrwt beam="2">  1       -4 0.45262343E-03 0.20001543E+02</pdfrwt>
<totfact> 0.12105730E+06</totfact>
</mgrwt>
</event>
<event>
 5    1  0.4986489E-007  0.2000180E+02  0.7818608E-02  0.1745292E+00
         -4   -1    0    0    0  501 -0.00000000000E+00  0.00000000000E+00  0.98364707621E+00  0.17274147072E+01  0.14200000000E+01 0.  1.
          4   -1    0    0  501    0  0.00000000000E+00 -0.00000000000E+00 -0.73032547840E+02  0.73046351340E+02  0.14200000000E+01 0. -1.
       1023    2    1    2    0    0  0.00000000000E+00  0.00000000000E+00 -0.72048900764E+02  0.74773766047E+02  0.20001799607E+02 0.  0.
        -13    1    3    3    0    0  0.28177759874E+01 -0.95950602773E+01 -0.36182222587E+02  0.37538905779E+02  0.10570000000E+00 0.  1.
         13    1    3    3    0    0 -0.28177759874E+01  0.95950602773E+01 -0.35866678177E+02  0.37234860268E+02  0.10570000000E+00 0. -1.
<mgrwt>
<rscale>  0 0.20001800E+02</rscale>
<asrwt>0</asrwt>
<pdfrwt beam="2">  1        4 0.11294048E-01 0.20001800E+02</pdfrwt>
<pdfrwt beam="1">  1       -4 0.20960508E-03 0.20001800E+02</pdfrwt>
<totfact> 0.10583492E+06</totfact>
</mgrwt>
</event>
<event>
 5    1  0.4710515E-007  0.2000960E+02  0.7818608E-02  0.1745137E+00
          4   -1    0    0  501    0  0.00000000000E+00  0.00000000000E+00  0.12412810453E+01  0.18860484176E+01  0.14200000000E+01 0.  1.
         -4   -1    0    0    0  501 -0.00000000000E+00 -0.00000000000E+00 -0.63359344960E+02  0.63375255374E+02  0.14200000000E+01 0. -1.
       1023    2    1    2    0    0  0.00000000000E+00  0.00000000000E+00 -0.62118063914E+02  0.65261303792E+02  0.20009595401E+02 0.  0.
        -13    1    3    3    0    0  0.97252031565E+01  0.23453135380E+01 -0.31283401088E+02  0.32844214531E+02  0.10570000000E+00 0. -1.
         13    1    3    3    0    0 -0.97252031565E+01 -0.23453135380E+01 -0.30834662826E+02  0.32417089260E+02  0.10570000000E+00 0.  1.
<mgrwt>
<rscale>  0 0.20009595E+02</rscale>
<asrwt>0</asrwt>
<pdfrwt beam="1">  1        4 0.24178773E-03 0.20009595E+02</pdfrwt>
<pdfrwt beam="2">  1       -4 0.97984109E-02 0.20009595E+02</pdfrwt>
<totfact> 0.10910845E+06</totfact>
</mgrwt>
</event>
<event>
 5    1  0.4710515E-007  0.2000251E+02  0.7818608E-02  0.1745278E+00
         -4   -1    0    0    0  501 -0.00000000000E+00  0.00000000000E+00  0.28678287321E+02  0.28713421316E+02  0.14200000000E+01 0.  1.
          4   -1    0    0  501    0  0.00000000000E+00 -0.00000000000E+00 -0.33043791341E+01  0.35965707920E+01  0.14200000000E+01 0. -1.
       1023    2    1    2    0    0  0.00000000000E+00  0.00000000000E+00  0.25373908187E+02  0.32309992108E+02  0.20002509176E+02 0.  0.
        -13    1    3    3    0    0 -0.11529215329E+00  0.99997976749E+01  0.12576509555E+02  0.16068260980E+02  0.10570000000E+00 0.  1.
         13    1    3    3    0    0  0.11529215329E+00 -0.99997976749E+01  0.12797398631E+02  0.16241731128E+02  0.10570000000E+00 0. -1.
<mgrwt>
<rscale>  0 0.20002509E+02</rscale>
<asrwt>0</asrwt>
<pdfrwt beam="2">  1        4 0.53354492E-03 0.20002509E+02</pdfrwt>
<pdfrwt beam="1">  1       -4 0.44372231E-02 0.20002509E+02</pdfrwt>
<totfact> 0.12333520E+06</totfact>
</mgrwt>
</event>
<event>
 5    1  0.4710515E-007  0.2000536E+02  0.7818608E-02  0.1745222E+00
          4   -1    0    0  501    0  0.00000000000E+00  0.00000000000E+00  0.17580827779E+02  0.17638081115E+02  0.14200000000E+01 0. -1.
         -4   -1    0    0    0  501 -0.00000000000E+00 -0.00000000000E+00 -0.55347847977E+01  0.57140390930E+01  0.14200000000E+01 0.  1.
       1023    2    1    2    0    0  0.00000000000E+00  0.00000000000E+00  0.12046042982E+02  0.23352120208E+02  0.20005358449E+02 0.  0.
        -13    1    3    3    0    0  0.62920707209E+01  0.77729959191E+01  0.58116167657E+01  0.11567008318E+02  0.10570000000E+00 0. -1.
         13    1    3    3    0    0 -0.62920707209E+01 -0.77729959191E+01  0.62344262161E+01  0.11785111890E+02  0.10570000000E+00 0.  1.
<mgrwt>
<rscale>  0 0.20005358E+02</rscale>
<asrwt>0</asrwt>
<pdfrwt beam="1">  1        4 0.27229356E-02 0.20005358E+02</pdfrwt>
<pdfrwt beam="2">  1       -4 0.86969826E-03 0.20005358E+02</pdfrwt>
<totfact> 0.12811480E+06</totfact>
</mgrwt>
</event>
<event>
 5    1  0.4710515E-007  0.2000245E+02  0.7818608E-02  0.1745279E+00
         -4   -1    0    0    0  501 -0.00000000000E+00  0.00000000000E+00  0.37222453152E+02  0.37249529106E+02  0.14200000000E+01 0. -1.
          4   -1    0    0  501    0  0.00000000000E+00 -0.00000000000E+00 -0.24695097320E+01  0.28486625487E+01  0.14200000000E+01 0.  1.
       1023    2    1    2    0    0  0.00000000000E+00  0.00000000000E+00  0.34752943420E+02  0.40098191655E+02  0.20002447292E+02 0.  0.
        -13    1    3    3    0    0  0.53961343823E+01 -0.84195213143E+01  0.17540517597E+02  0.20191273746E+02  0.10570000000E+00 0. -1.
         13    1    3    3    0    0 -0.53961343823E+01  0.84195213143E+01  0.17212425823E+02  0.19906917909E+02  0.10570000000E+00 0.  1.
<mgrwt>
<rscale>  0 0.20002447E+02</rscale>
<asrwt>0</asrwt>
<pdfrwt beam="2">  1        4 0.41117297E-03 0.20002447E+02</pdfrwt>
<pdfrwt beam="1">  1       -4 0.57577793E-02 0.20002447E+02</pdfrwt>
<totfact> 0.11955080E+06</totfact>
</mgrwt>
</event>
<event>
 5    1  0.4710515E-007  0.2000427E+02  0.7818608E-02  0.1745243E+00
          4   -1    0    0  501    0  0.00000000000E+00  0.00000000000E+00  0.88750888939E+01  0.89879698972E+01  0.14200000000E+01 0.  1.
         -4   -1    0    0    0  501 -0.00000000000E+00 -0.00000000000E+00 -0.11042445096E+02  0.11133372970E+02  0.14200000000E+01 0. -1.
       1023    2    1    2    0    0  0.00000000000E+00  0.00000000000E+00 -0.21673562017E+01  0.20121342867E+02  0.20004274690E+02 0.  0.
        -13    1    3    3    0    0 -0.39057684644E+00 -0.99938419443E+01 -0.10370180727E+01  0.10055645482E+02  0.10570000000E+00 0. -1.
         13    1    3    3    0    0  0.39057684644E+00  0.99938419443E+01 -0.11303381290E+01  0.10065697386E+02  0.10570000000E+00 0.  1.
<mgrwt>
<rscale>  0 0.20004275E+02</rscale>
<asrwt>0</asrwt>
<pdfrwt beam="1">  1        4 0.13810759E-02 0.20004275E+02</pdfrwt>
<pdfrwt beam="2">  1       -4 0.17145153E-02 0.20004275E+02</pdfrwt>
<totfact> 0.13001169E+06</totfact>
</mgrwt>
</event>
<event>
 5    1  0.4964009E-007  0.2000128E+02  0.7818608E-02  0.1745303E+00
         -4   -1    0    0    0  501 -0.00000000000E+00  0.00000000000E+00  0.51264729665E+01  0.53195042134E+01  0.14200000000E+01 0.  1.
          4   -1    0    0  501    0  0.00000000000E+00 -0.00000000000E+00 -0.18928453839E+02  0.18981642836E+02  0.14200000000E+01 0. -1.
       1023    2    1    2    0    0  0.00000000000E+00  0.00000000000E+00 -0.13801980873E+02  0.24301147049E+02  0.20001276757E+02 0.  0.
        -13    1    3    3    0    0 -0.45639831166E+01 -0.88978405164E+01 -0.68896098180E+01  0.12144109835E+02  0.10570000000E+00 0. -1.
         13    1    3    3    0    0  0.45639831166E+01  0.88978405164E+01 -0.69123710547E+01  0.12157037214E+02  0.10570000000E+00 0.  1.
<mgrwt>
<rscale>  0 0.20001277E+02</rscale>
<asrwt>0</asrwt>
<pdfrwt beam="2">  1        4 0.29310098E-02 0.20001277E+02</pdfrwt>
<pdfrwt beam="1">  1       -4 0.80762818E-03 0.20001277E+02</pdfrwt>
<totfact> 0.12763133E+06</totfact>
</mgrwt>
</event>
<event>
 4    1  0.4710515E-007  0.2003542E+02  0.7818608E-02  0.1744625E+00
         -4   -1    0    0    0  501 -0.00000000000E+00  0.00000000000E+00  0.24231264789E+02  0.24272836531E+02  0.14200000000E+01 0.  1.
          4   -1    0    0  501    0  0.00000000000E+00 -0.00000000000E+00 -0.39732405572E+01  0.42193649434E+01  0.14200000000E+01 0. -1.
        -13    1    1    2    0    0  0.10004009956E+02 -0.43952480882E+00  0.10505074114E+02  0.14513481728E+02  0.10570000000E+00 0. -1.
         13    1    1    2    0    0 -0.10004009956E+02  0.43952480882E+00  0.97529501181E+01  0.13978719746E+02  0.10570000000E+00 0.  1.
<mgrwt>
<rscale>  0 0.20035419E+02</rscale>
<asrwt>0</asrwt>
<pdfrwt beam="2">  1        4 0.63339825E-03 0.20035419E+02</pdfrwt>
<pdfrwt beam="1">  1       -4 0.37500174E-02 0.20035419E+02</pdfrwt>
<totfact> 0.12490230E+06</totfact>
</mgrwt>
</event>
<event>
 5    1  0.4710515E-007  0.2000430E+02  0.7818608E-02  0.1745242E+00
         -4   -1    0    0    0  501 -0.00000000000E+00  0.00000000000E+00  0.69425482664E+02  0.69440003190E+02  0.14200000000E+01 0. -1.
          4   -1    0    0  501    0  0.00000000000E+00 -0.00000000000E+00 -0.10728746060E+01  0.17797359130E+01  0.14200000000E+01 0.  1.
       1023    2    1    2    0    0  0.00000000000E+00  0.00000000000E+00  0.68352608058E+02  0.71219739103E+02  0.20004304778E+02 0.  0.
        -13    1    3    3    0    0 -0.83836305681E+01  0.54534549850E+01  0.33890439119E+02  0.35335512858E+02  0.10570000000E+00 0.  1.
         13    1    3    3    0    0  0.83836305681E+01 -0.54534549850E+01  0.34462168939E+02  0.35884226245E+02  0.10570000000E+00 0. -1.
<mgrwt>
<rscale>  0 0.20004305E+02</rscale>
<asrwt>0</asrwt>
<pdfrwt beam="2">  1        4 0.22054859E-03 0.20004305E+02</pdfrwt>
<pdfrwt beam="1">  1       -4 0.10736332E-01 0.20004305E+02</pdfrwt>
<totfact> 0.10703327E+06</totfact>
</mgrwt>
</event>
<event>
 5    1  0.4710515E-007  0.2000147E+02  0.7818608E-02  0.1745299E+00
          4   -1    0    0  501    0  0.00000000000E+00  0.00000000000E+00  0.41293376987E+02  0.41317785311E+02  0.14200000000E+01 0. -1.
         -4   -1    0    0    0  501 -0.00000000000E+00 -0.00000000000E+00 -0.21865505937E+01  0.26071830581E+01  0.14200000000E+01 0.  1.
       1023    2    1    2    0    0  0.00000000000E+00  0.00000000000E+00  0.39106826393E+02  0.43924968369E+02  0.20001474337E+02 0.  0.
        -13    1    3    3    0    0  0.83516648089E+01  0.55001414131E+01  0.19462579579E+02  0.21881614131E+02  0.10570000000E+00 0.  1.
         13    1    3    3    0    0 -0.83516648089E+01 -0.55001414131E+01  0.19644246815E+02  0.22043354238E+02  0.10570000000E+00 0. -1.
<mgrwt>
<rscale>  0 0.20001474E+02</rscale>
<asrwt>0</asrwt>
<pdfrwt beam="1">  1        4 0.63870606E-02 0.20001474E+02</pdfrwt>
<pdfrwt beam="2">  1       -4 0.37062634E-03 0.20001474E+02</pdfrwt>
<totfact> 0.11781853E+06</totfact>
</mgrwt>
</event>
<event>
 5    1  0.4710515E-007  0.2000127E+02  0.7818608E-02  0.1745303E+00
          4   -1    0    0  501    0  0.00000000000E+00  0.00000000000E+00  0.23669733569E+01  0.27602468861E+01  0.14200000000E+01 0.  1.
         -4   -1    0    0    0  501 -0.00000000000E+00 -0.00000000000E+00 -0.38605118984E+02  0.38631225864E+02  0.14200000000E+01 0. -1.
       1023    2    1    2    0    0  0.00000000000E+00  0.00000000000E+00 -0.36238145627E+02  0.41391472750E+02  0.20001270408E+02 0.  0.
        -13    1    3    3    0    0 -0.30639978745E+01 -0.95190877915E+01 -0.18161313759E+02  0.20732718233E+02  0.10570000000E+00 0. -1.
         13    1    3    3    0    0  0.30639978745E+01  0.95190877915E+01 -0.18076831867E+02  0.20658754517E+02  0.10570000000E+00 0.  1.
<mgrwt>
<rscale>  0 0.20001270E+02</rscale>
<asrwt>0</asrwt>
<pdfrwt beam="1">  1        4 0.39640981E-03 0.20001270E+02</pdfrwt>
<pdfrwt beam="2">  1       -4 0.59715087E-02 0.20001270E+02</pdfrwt>
<totfact> 0.11896804E+06</totfact>
</mgrwt>
</event>
<event>
 5    1  0.4710515E-007  0.2000118E+02  0.7818608E-02  0.1745305E+00
          4   -1    0    0  501    0  0.00000000000E+00  0.00000000000E+00  0.11385999991E+01  0.18201126223E+01  0.14200000000E+01 0. -1.
         -4   -1    0    0    0  501 -0.00000000000E+00 -0.00000000000E+00 -0.66914151733E+02  0.66929217104E+02  0.14200000000E+01 0.  1.
       1023    2    1    2    0    0  0.00000000000E+00  0.00000000000E+00 -0.65775551734E+02  0.68749329726E+02  0.20001178263E+02 0.  0.
        -13    1    3    3    0    0 -0.38324009751E+01  0.92365166148E+01 -0.32858191369E+02  0.34346360054E+02  0.10570000000E+00 0. -1.
         13    1    3    3    0    0  0.38324009751E+01 -0.92365166148E+01 -0.32917360365E+02  0.34402969672E+02  0.10570000000E+00 0.  1.
<mgrwt>
<rscale>  0 0.20001178E+02</rscale>
<asrwt>0</asrwt>
<pdfrwt beam="1">  1        4 0.22875221E-03 0.20001178E+02</pdfrwt>
<pdfrwt beam="2">  1       -4 0.10348065E-01 0.20001178E+02</pdfrwt>
<totfact> 0.10793900E+06</totfact>
</mgrwt>
</event>
<event>
 5    1  0.4710515E-007  0.2000652E+02  0.7818608E-02  0.1745198E+00
          4   -1    0    0  501    0  0.00000000000E+00  0.00000000000E+00  0.87448618883E+00  0.16676708592E+01  0.14200000000E+01 0. -1.
         -4   -1    0    0    0  501 -0.00000000000E+00 -0.00000000000E+00 -0.77922970007E+02  0.77935907352E+02  0.14200000000E+01 0.  1.
       1023    2    1    2    0    0  0.00000000000E+00  0.00000000000E+00 -0.77048483818E+02  0.79603578211E+02  0.20006519069E+02 0.  0.
        -13    1    3    3    0    0 -0.32114220504E+01 -0.94717502190E+01 -0.37873539200E+02  0.39171972478E+02  0.10570000000E+00 0. -1.
         13    1    3    3    0    0  0.32114220504E+01  0.94717502190E+01 -0.39174944618E+02  0.40431605733E+02  0.10570000000E+00 0.  1.
<mgrwt>
<rscale>  0 0.20006519E+02</rscale>
<asrwt>0</asrwt>
<pdfrwt beam="1">  1        4 0.19654578E-03 0.20006519E+02</pdfrwt>
<pdfrwt beam="2">  1       -4 0.12050155E-01 0.20006519E+02</pdfrwt>
<totfact> 0.10417337E+06</totfact>
</mgrwt>
</event>
<event>
 5    1  0.4710515E-007  0.2000168E+02  0.7818608E-02  0.1745295E+00
         -4   -1    0    0    0  501 -0.00000000000E+00  0.00000000000E+00  0.99182119836E+02  0.99192284454E+02  0.14200000000E+01 0. -1.
          4   -1    0    0  501    0  0.00000000000E+00 -0.00000000000E+00 -0.49315047881E+00  0.15031957274E+01  0.14200000000E+01 0.  1.
       1023    2    1    2    0    0  0.00000000000E+00  0.00000000000E+00  0.98688969358E+02  0.10069548018E+03  0.20001676333E+02 0.  0.
        -13    1    3    3    0    0  0.93642306204E+01 -0.35090902487E+01  0.49623064834E+02  0.50620769112E+02  0.10570000000E+00 0.  1.
         13    1    3    3    0    0 -0.93642306204E+01  0.35090902487E+01  0.49065904523E+02  0.50074711069E+02  0.10570000000E+00 0. -1.
<mgrwt>
<rscale>  0 0.20001676E+02</rscale>
<asrwt>0</asrwt>
<pdfrwt beam="2">  1        4 0.15434684E-03 0.20001676E+02</pdfrwt>
<pdfrwt beam="1">  1       -4 0.15337280E-01 0.20001676E+02</pdfrwt>
<totfact> 0.97798517E+05</totfact>
</mgrwt>
</event>
<event>
 5    1  0.4710515E-007  0.2000998E+02  0.7818608E-02  0.1745130E+00
         -4   -1    0    0    0  501 -0.00000000000E+00  0.00000000000E+00  0.16434344852E+01  0.21719293053E+01  0.14200000000E+01 0.  1.
          4   -1    0    0  501    0  0.00000000000E+00 -0.00000000000E+00 -0.51932442617E+02  0.51951852673E+02  0.14200000000E+01 0. -1.
       1023    2    1    2    0    0  0.00000000000E+00  0.00000000000E+00 -0.50289008132E+02  0.54123781979E+02  0.20009983427E+02 0.  0.
        -13    1    3    3    0    0  0.81528542533E+01 -0.57943481892E+01 -0.24569553739E+02  0.26527676996E+02  0.10570000000E+00 0. -1.
         13    1    3    3    0    0 -0.81528542533E+01  0.57943481892E+01 -0.25719454394E+02  0.27596104983E+02  0.10570000000E+00 0.  1.
<mgrwt>
<rscale>  0 0.20009983E+02</rscale>
<asrwt>0</asrwt>
<pdfrwt beam="2">  1        4 0.80317520E-02 0.20009983E+02</pdfrwt>
<pdfrwt beam="1">  1       -4 0.29498264E-03 0.20009983E+02</pdfrwt>
<totfact> 0.11338783E+06</totfact>
</mgrwt>
</event>
<event>
 5    1  0.4710515E-007  0.2000487E+02  0.7818608E-02  0.1745231E+00
         -4   -1    0    0    0  501 -0.00000000000E+00  0.00000000000E+00  0.18921526625E+02  0.18974735040E+02  0.14200000000E+01 0. -1.
          4   -1    0    0  501    0  0.00000000000E+00 -0.00000000000E+00 -0.51303462289E+01  0.53232370253E+01  0.14200000000E+01 0.  1.
       1023    2    1    2    0    0  0.00000000000E+00  0.00000000000E+00  0.13791180396E+02  0.24297972065E+02  0.20004869151E+02 0.  0.
        -13    1    3    3    0    0  0.93107160237E+01  0.36534676570E+01  0.69154054263E+01  0.12160232872E+02  0.10570000000E+00 0. -1.
         13    1    3    3    0    0 -0.93107160237E+01 -0.36534676570E+01  0.68757749700E+01  0.12137739193E+02  0.10570000000E+00 0.  1.
<mgrwt>
<rscale>  0 0.20004869E+02</rscale>
<asrwt>0</asrwt>
<pdfrwt beam="2">  1        4 0.80821474E-03 0.20004869E+02</pdfrwt>
<pdfrwt beam="1">  1       -4 0.29299348E-02 0.20004869E+02</pdfrwt>
<totfact> 0.12758643E+06</totfact>
</mgrwt>
</event>
<event>
 5    1  0.4797845E-007  0.2000325E+02  0.7818608E-02  0.1745264E+00
         -4   -1    0    0    0  501 -0.00000000000E+00  0.00000000000E+00  0.26997340771E+02  0.27034659397E+02  0.14200000000E+01 0. -1.
          4   -1    0    0  501    0  0.00000000000E+00 -0.00000000000E+00 -0.35277654361E+01  0.38028317044E+01  0.14200000000E+01 0.  1.
       1023    2    1    2    0    0  0.00000000000E+00  0.00000000000E+00  0.23469575335E+02  0.30837491101E+02  0.20003247012E+02 0.  0.
        -13    1    3    3    0    0 -0.87056135410E+01  0.49217777862E+01  0.11582982199E+02  0.15303210539E+02  0.10570000000E+00 0. -1.
         13    1    3    3    0    0  0.87056135410E+01 -0.49217777862E+01  0.11886593136E+02  0.15534280562E+02  0.10570000000E+00 0.  1.
<mgrwt>
<rscale>  0 0.20003247E+02</rscale>
<asrwt>0</asrwt>
<pdfrwt beam="2">  1        4 0.56676274E-03 0.20003247E+02</pdfrwt>
<pdfrwt beam="1">  1       -4 0.41774667E-02 0.20003247E+02</pdfrwt>
<totfact> 0.12408134E+06</totfact>
</mgrwt>
</event>
<event>
 5    1  0.4710515E-007  0.2001025E+02  0.7818608E-02  0.1745124E+00
          4   -1    0    0  501    0  0.00000000000E+00  0.00000000000E+00  0.62833451131E+00  0.15528052866E+01  0.14200000000E+01 0. -1.
         -4   -1    0    0    0  501 -0.00000000000E+00 -0.00000000000E+00 -0.90856804444E+02  0.90867900348E+02  0.14200000000E+01 0.  1.
       1023    2    1    2    0    0  0.00000000000E+00  0.00000000000E+00 -0.90228469932E+02  0.92420705635E+02  0.20010248467E+02 0.  0.
        -13    1    3    3    0    0  0.48122884355E+01 -0.87705272275E+01 -0.45600197192E+02  0.46684787932E+02  0.10570000000E+00 0. -1.
         13    1    3    3    0    0 -0.48122884355E+01  0.87705272275E+01 -0.44628272740E+02  0.45735917703E+02  0.10570000000E+00 0.  1.
<mgrwt>
<rscale>  0 0.20010248E+02</rscale>
<asrwt>0</asrwt>
<pdfrwt beam="1">  1        4 0.16863359E-03 0.20010248E+02</pdfrwt>
<pdfrwt beam="2">  1       -4 0.14049931E-01 0.20010248E+02</pdfrwt>
<totfact> 0.10012336E+06</totfact>
</mgrwt>
</event>
<event>
 5    1  0.4710515E-007  0.2000421E+02  0.7818608E-02  0.1745244E+00
         -4   -1    0    0    0  501 -0.00000000000E+00  0.00000000000E+00  0.11951665964E+01  0.18560234894E+01  0.14200000000E+01 0.  1.
          4   -1    0    0  501    0  0.00000000000E+00 -0.00000000000E+00 -0.64905512501E+02  0.64921043992E+02  0.14200000000E+01 0. -1.
       1023    2    1    2    0    0  0.00000000000E+00  0.00000000000E+00 -0.63710345904E+02  0.66777067481E+02  0.20004213709E+02 0.  0.
        -13    1    3    3    0    0  0.24634351359E+01 -0.96928726596E+01 -0.31510259846E+02  0.33059460690E+02  0.10570000000E+00 0. -1.
         13    1    3    3    0    0 -0.24634351359E+01  0.96928726596E+01 -0.32200086059E+02  0.33717606792E+02  0.10570000000E+00 0.  1.
<mgrwt>
<rscale>  0 0.20004214E+02</rscale>
<asrwt>0</asrwt>
<pdfrwt beam="2">  1        4 0.10037491E-01 0.20004214E+02</pdfrwt>
<pdfrwt beam="1">  1       -4 0.23590171E-03 0.20004214E+02</pdfrwt>
<totfact> 0.10861485E+06</totfact>
</mgrwt>
</event>
<event>
 5    1  0.4710515E-007  0.2000488E+02  0.7818608E-02  0.1745231E+00
         -4   -1    0    0    0  501 -0.00000000000E+00  0.00000000000E+00  0.47603660721E+02  0.47624835055E+02  0.14200000000E+01 0.  1.
          4   -1    0    0  501    0  0.00000000000E+00 -0.00000000000E+00 -0.18376526179E+01  0.23223624059E+01  0.14200000000E+01 0. -1.
       1023    2    1    2    0    0  0.00000000000E+00  0.00000000000E+00  0.45766008103E+02  0.49947197461E+02  0.20004875319E+02 0.  0.
        -13    1    3    3    0    0  0.99082621981E+01 -0.13605668234E+01  0.22600696935E+02  0.24714924162E+02  0.10570000000E+00 0. -1.
         13    1    3    3    0    0 -0.99082621981E+01  0.13605668234E+01  0.23165311168E+02  0.25232273300E+02  0.10570000000E+00 0.  1.
<mgrwt>
<rscale>  0 0.20004875E+02</rscale>
<asrwt>0</asrwt>
<pdfrwt beam="2">  1        4 0.32162999E-03 0.20004875E+02</pdfrwt>
<pdfrwt beam="1">  1       -4 0.73625534E-02 0.20004875E+02</pdfrwt>
<totfact> 0.11516773E+06</totfact>
</mgrwt>
</event>
<event>
 5    1  0.4771375E-007  0.2000159E+02  0.7818608E-02  0.1745297E+00
         -4   -1    0    0    0  501 -0.00000000000E+00  0.00000000000E+00  0.19640271729E+02  0.19691538122E+02  0.14200000000E+01 0.  1.
          4   -1    0    0  501    0  0.00000000000E+00 -0.00000000000E+00 -0.49342206023E+01  0.51344846822E+01  0.14200000000E+01 0. -1.
       1023    2    1    2    0    0  0.00000000000E+00  0.00000000000E+00  0.14706051127E+02  0.24826022804E+02  0.20001586650E+02 0.  0.
        -13    1    3    3    0    0  0.11588539207E+01  0.99328350622E+01  0.73818646315E+01  0.12430094638E+02  0.10570000000E+00 0. -1.
         13    1    3    3    0    0 -0.11588539207E+01 -0.99328350622E+01  0.73241864956E+01  0.12395928166E+02  0.10570000000E+00 0.  1.
<mgrwt>
<rscale>  0 0.20001587E+02</rscale>
<asrwt>0</asrwt>
<pdfrwt beam="2">  1        4 0.77845936E-03 0.20001587E+02</pdfrwt>
<pdfrwt beam="1">  1       -4 0.30409288E-02 0.20001587E+02</pdfrwt>
<totfact> 0.12733261E+06</totfact>
</mgrwt>
</event>
<event>
 5    1  0.4710515E-007  0.2000953E+02  0.7818608E-02  0.1745139E+00
          4   -1    0    0  501    0  0.00000000000E+00  0.00000000000E+00  0.86282742673E+01  0.87443419896E+01  0.14200000000E+01 0. -1.
         -4   -1    0    0    0  501 -0.00000000000E+00 -0.00000000000E+00 -0.11362790500E+02  0.11451174960E+02  0.14200000000E+01 0.  1.
       1023    2    1    2    0    0  0.00000000000E+00  0.00000000000E+00 -0.27345162332E+01  0.20195516949E+02  0.20009530875E+02 0.  0.
        -13    1    3    3    0    0 -0.52199920826E+01 -0.85309036973E+01 -0.11210155458E+01  0.10064416703E+02  0.10570000000E+00 0. -1.
         13    1    3    3    0    0  0.52199920826E+01  0.85309036973E+01 -0.16135006873E+01  0.10131100246E+02  0.10570000000E+00 0.  1.
<mgrwt>
<rscale>  0 0.20009531E+02</rscale>
<asrwt>0</asrwt>
<pdfrwt beam="1">  1        4 0.13431539E-02 0.20009531E+02</pdfrwt>
<pdfrwt beam="2">  1       -4 0.17638487E-02 0.20009531E+02</pdfrwt>
<totfact> 0.12989772E+06</totfact>
</mgrwt>
</event>
<event>
 5    1  0.4710515E-007  0.2000514E+02  0.7818608E-02  0.1745226E+00
         -4   -1    0    0    0  501 -0.00000000000E+00  0.00000000000E+00  0.76999230272E+01  0.78297646596E+01  0.14200000000E+01 0.  1.
          4   -1    0    0  501    0  0.00000000000E+00 -0.00000000000E+00 -0.12715491695E+02  0.12794535124E+02  0.14200000000E+01 0.  1.
       1023    2    1    2    0    0  0.00000000000E+00  0.00000000000E+00 -0.50155686674E+01  0.20624299783E+02  0.20005144651E+02 0.  0.
        -13    1    3    3    0    0  0.22344784240E+01  0.97484301898E+01 -0.23794501641E+01  0.10280940646E+02  0.10570000000E+00 0. -1.
         13    1    3    3    0    0 -0.22344784240E+01 -0.97484301898E+01 -0.26361185033E+01  0.10343359137E+02  0.10570000000E+00 0.  1.
<mgrwt>
<rscale>  0 0.20005145E+02</rscale>
<asrwt>0</asrwt>
<pdfrwt beam="2">  1        4 0.19722976E-02 0.20005145E+02</pdfrwt>
<pdfrwt beam="1">  1       -4 0.12006716E-02 0.20005145E+02</pdfrwt>
<totfact> 0.12970160E+06</totfact>
</mgrwt>
</event>
<event>
 5    1  0.4710515E-007  0.2000182E+02  0.7818608E-02  0.1745292E+00
         -4   -1    0    0    0  501 -0.00000000000E+00  0.00000000000E+00  0.30123720034E+02  0.30157170104E+02  0.14200000000E+01 0.  1.
          4   -1    0    0  501    0  0.00000000000E+00 -0.00000000000E+00 -0.31314098030E+01  0.34383320599E+01  0.14200000000E+01 0. -1.
       1023    2    1    2    0    0  0.00000000000E+00  0.00000000000E+00  0.26992310231E+02  0.33595502164E+02  0.20001823768E+02 0.  0.
        -13    1    3    3    0    0  0.77777994599E+01 -0.62853694090E+01  0.13355297246E+02  0.16684578810E+02  0.10570000000E+00 0. -1.
         13    1    3    3    0    0 -0.77777994599E+01  0.62853694090E+01  0.13637012984E+02  0.16910923354E+02  0.10570000000E+00 0.  1.
<mgrwt>
<rscale>  0 0.20001824E+02</rscale>
<asrwt>0</asrwt>
<pdfrwt beam="2">  1        4 0.50793783E-03 0.20001824E+02</pdfrwt>
<pdfrwt beam="1">  1       -4 0.46606011E-02 0.20001824E+02</pdfrwt>
<totfact> 0.12269492E+06</totfact>
</mgrwt>
</event>
<event>
 4    1  0.4710515E-007  0.2006985E+02  0.7818608E-02  0.1743943E+00
          4   -1    0    0  501    0  0.00000000000E+00  0.00000000000E+00  0.20002417053E+02  0.20052757615E+02  0.14200000000E+01 0.  1.
         -4   -1    0    0    0  501 -0.00000000000E+00 -0.00000000000E+00 -0.48763093858E+01  0.50788574725E+01  0.14200000000E+01 0. -1.
        -13    1    1    2    0    0  0.58866543115E+01 -0.81217043268E+01  0.72229157641E+01  0.12361086715E+02  0.10570000000E+00 0. -1.
         13    1    1    2    0    0 -0.58866543115E+01  0.81217043268E+01  0.79031919028E+01  0.12770528372E+02  0.10570000000E+00 0.  1.
<mgrwt>
<rscale>  0 0.20069852E+02</rscale>
<asrwt>0</asrwt>
<pdfrwt beam="1">  1        4 0.30967479E-02 0.20069852E+02</pdfrwt>
<pdfrwt beam="2">  1       -4 0.76965442E-03 0.20069852E+02</pdfrwt>
<totfact> 0.12628243E+06</totfact>
</mgrwt>
</event>
<event>
 5    1  0.4710515E-007  0.2001062E+02  0.7818608E-02  0.1745117E+00
         -4   -1    0    0    0  501 -0.00000000000E+00  0.00000000000E+00  0.15995556609E+02  0.16058462916E+02  0.14200000000E+01 0.  1.
          4   -1    0    0  501    0  0.00000000000E+00 -0.00000000000E+00 -0.61015011567E+01  0.62645603489E+01  0.14200000000E+01 0. -1.
       1023    2    1    2    0    0  0.00000000000E+00  0.00000000000E+00  0.98940554524E+01  0.22323023265E+02  0.20010623039E+02 0.  0.
        -13    1    3    3    0    0 -0.57880375207E+01  0.81579974159E+01  0.51723206748E+01  0.11261366428E+02  0.10570000000E+00 0. -1.
         13    1    3    3    0    0  0.57880375207E+01 -0.81579974159E+01  0.47217347775E+01  0.11061656837E+02  0.10570000000E+00 0.  1.
<mgrwt>
<rscale>  0 0.20010623E+02</rscale>
<asrwt>0</asrwt>
<pdfrwt beam="2">  1        4 0.95607447E-03 0.20010623E+02</pdfrwt>
<pdfrwt beam="1">  1       -4 0.24782368E-02 0.20010623E+02</pdfrwt>
<totfact> 0.12863582E+06</totfact>
</mgrwt>
</event>
<event>
 4    1  0.4710515E-007  0.2003830E+02  0.7818608E-02  0.1744568E+00
         -4   -1    0    0    0  501 -0.00000000000E+00  0.00000000000E+00  0.34116741055E+01  0.36953917521E+01  0.14200000000E+01 0.  1.
          4   -1    0    0  501    0  0.00000000000E+00 -0.00000000000E+00 -0.27946414890E+02  0.27982467819E+02  0.14200000000E+01 0. -1.
        -13    1    1    2    0    0  0.69011594447E+01 -0.72617074100E+01 -0.12081985818E+02  0.15695348037E+02  0.10570000000E+00 0. -1.
         13    1    1    2    0    0 -0.69011594447E+01  0.72617074100E+01 -0.12452754967E+02  0.15982511534E+02  0.10570000000E+00 0.  1.
<mgrwt>
<rscale>  0 0.20038295E+02</rscale>
<asrwt>0</asrwt>
<pdfrwt beam="2">  1        4 0.43240460E-02 0.20038295E+02</pdfrwt>
<pdfrwt beam="1">  1       -4 0.54947069E-03 0.20038295E+02</pdfrwt>
<totfact> 0.12320987E+06</totfact>
</mgrwt>
</event>
<event>
 4    1  0.4710515E-007  0.2055088E+02  0.7818608E-02  0.1734590E+00
          4   -1    0    0  501    0  0.00000000000E+00  0.00000000000E+00  0.85118004823E+01  0.86294349439E+01  0.14200000000E+01 0. -1.
         -4   -1    0    0    0  501 -0.00000000000E+00 -0.00000000000E+00 -0.12160143846E+02  0.12242773312E+02  0.14200000000E+01 0.  1.
        -13    1    1    2    0    0  0.10098764304E+02  0.18941989051E+01 -0.18022804720E+01  0.10432277669E+02  0.10570000000E+00 0.  1.
         13    1    1    2    0    0 -0.10098764304E+02 -0.18941989051E+01 -0.18460628921E+01  0.10439930587E+02  0.10570000000E+00 0. -1.
<mgrwt>
<rscale>  0 0.20550880E+02</rscale>
<asrwt>0</asrwt>
<pdfrwt beam="1">  1        4 0.13249127E-02 0.20550880E+02</pdfrwt>
<pdfrwt beam="2">  1       -4 0.18861963E-02 0.20550880E+02</pdfrwt>
<totfact> 0.12258629E+06</totfact>
</mgrwt>
</event>
<event>
 5    1  0.4710515E-007  0.2001029E+02  0.7818608E-02  0.1745124E+00
         -4   -1    0    0    0  501 -0.00000000000E+00  0.00000000000E+00  0.96671702852E+02  0.96682131402E+02  0.14200000000E+01 0. -1.
          4   -1    0    0  501    0  0.00000000000E+00 -0.00000000000E+00 -0.53316878997E+00  0.15167956219E+01  0.14200000000E+01 0. -1.
       1023    2    1    2    0    0  0.00000000000E+00  0.00000000000E+00  0.96138534062E+02  0.98198927024E+02  0.20010285778E+02 0.  0.
        -13    1    3    3    0    0 -0.98404696465E+01  0.18027510683E+01  0.48478601997E+02  0.49500209882E+02  0.10570000000E+00 0. -1.
         13    1    3    3    0    0  0.98404696465E+01 -0.18027510683E+01  0.47659932065E+02  0.48698717141E+02  0.10570000000E+00 0.  1.
<mgrwt>
<rscale>  0 0.20010286E+02</rscale>
<asrwt>0</asrwt>
<pdfrwt beam="2">  1        4 0.15849183E-03 0.20010286E+02</pdfrwt>
<pdfrwt beam="1">  1       -4 0.14949029E-01 0.20010286E+02</pdfrwt>
<totfact> 0.98427345E+05</totfact>
</mgrwt>
</event>
<event>
 5    1  0.4710515E-007  0.2000198E+02  0.7818608E-02  0.1745289E+00
         -4   -1    0    0    0  501 -0.00000000000E+00  0.00000000000E+00  0.23369036960E+01  0.27345052357E+01  0.14200000000E+01 0. -1.
          4   -1    0    0  501    0  0.00000000000E+00 -0.00000000000E+00 -0.39033059118E+02  0.39058879965E+02  0.14200000000E+01 0.  1.
       1023    2    1    2    0    0  0.00000000000E+00  0.00000000000E+00 -0.36696155422E+02  0.41793385200E+02  0.20001980496E+02 0.  0.
        -13    1    3    3    0    0 -0.31366799134E+01  0.94955858462E+01 -0.18220603222E+02  0.20784765231E+02  0.10570000000E+00 0.  1.
         13    1    3    3    0    0  0.31366799134E+01 -0.94955858462E+01 -0.18475552200E+02  0.21008619970E+02  0.10570000000E+00 0. -1.
<mgrwt>
<rscale>  0 0.20001980E+02</rscale>
<asrwt>0</asrwt>
<pdfrwt beam="2">  1        4 0.60376565E-02 0.20001980E+02</pdfrwt>
<pdfrwt beam="1">  1       -4 0.39209463E-03 0.20001980E+02</pdfrwt>
<totfact> 0.11877566E+06</totfact>
</mgrwt>
</event>
<event>
 4    1  0.4710515E-007  0.2001628E+02  0.7818608E-02  0.1745005E+00
          4   -1    0    0  501    0  0.00000000000E+00  0.00000000000E+00  0.47272114809E+02  0.47293437584E+02  0.14200000000E+01 0.  1.
         -4   -1    0    0    0  501 -0.00000000000E+00 -0.00000000000E+00 -0.18566110908E+01  0.23373927232E+01  0.14200000000E+01 0. -1.
        -13    1    1    2    0    0  0.95735117449E+01 -0.29046695413E+01  0.23327285454E+02  0.25382329511E+02  0.10570000000E+00 0.  1.
         13    1    1    2    0    0 -0.95735117449E+01  0.29046695413E+01  0.22088218264E+02  0.24248500796E+02  0.10570000000E+00 0. -1.
<mgrwt>
<rscale>  0 0.20016277E+02</rscale>
<asrwt>0</asrwt>
<pdfrwt beam="1">  1        4 0.73112564E-02 0.20016277E+02</pdfrwt>
<pdfrwt beam="2">  1       -4 0.32425589E-03 0.20016277E+02</pdfrwt>
<totfact> 0.11516849E+06</totfact>
</mgrwt>
</event>
<event>
 4    1  0.4710515E-007  0.2010655E+02  0.7818608E-02  0.1743217E+00
          4   -1    0    0  501    0  0.00000000000E+00  0.00000000000E+00  0.17766000538E+02  0.17822659036E+02  0.14200000000E+01 0. -1.
         -4   -1    0    0    0  501 -0.00000000000E+00 -0.00000000000E+00 -0.55333561467E+01  0.57126552711E+01  0.14200000000E+01 0.  1.
        -13    1    1    2    0    0 -0.50678299462E+01  0.86816693214E+01  0.60532587236E+01  0.11734879473E+02  0.10570000000E+00 0. -1.
         13    1    1    2    0    0  0.50678299462E+01 -0.86816693214E+01  0.61793856680E+01  0.11800434835E+02  0.10570000000E+00 0.  1.
<mgrwt>
<rscale>  0 0.20106552E+02</rscale>
<asrwt>0</asrwt>
<pdfrwt beam="1">  1        4 0.27513814E-02 0.20106552E+02</pdfrwt>
<pdfrwt beam="2">  1       -4 0.86943615E-03 0.20106552E+02</pdfrwt>
<totfact> 0.12670023E+06</totfact>
</mgrwt>
</event>
<event>
 5    1  0.4710515E-007  0.2000746E+02  0.7818608E-02  0.1745180E+00
         -4   -1    0    0    0  501 -0.00000000000E+00  0.00000000000E+00  0.22410113579E+02  0.22455057128E+02  0.14200000000E+01 0.  1.
          4   -1    0    0  501    0  0.00000000000E+00 -0.00000000000E+00 -0.43019179411E+01  0.45302205213E+01  0.14200000000E+01 0. -1.
       1023    2    1    2    0    0  0.00000000000E+00  0.00000000000E+00  0.18108195638E+02  0.26985277649E+02  0.20007460122E+02 0.  0.
        -13    1    3    3    0    0  0.56179480984E+01 -0.82736130642E+01  0.93539618777E+01  0.13693859546E+02  0.10570000000E+00 0.  1.
         13    1    3    3    0    0 -0.56179480984E+01  0.82736130642E+01  0.87542337600E+01  0.13291418103E+02  0.10570000000E+00 0. -1.
<mgrwt>
<rscale>  0 0.20007460E+02</rscale>
<asrwt>0</asrwt>
<pdfrwt beam="2">  1        4 0.68285245E-03 0.20007460E+02</pdfrwt>
<pdfrwt beam="1">  1       -4 0.34687288E-02 0.20007460E+02</pdfrwt>
<totfact> 0.12606726E+06</totfact>
</mgrwt>
</event>
<event>
 4    1  0.4710515E-007  0.2003517E+02  0.7818608E-02  0.1744630E+00
         -4   -1    0    0    0  501 -0.00000000000E+00  0.00000000000E+00  0.15140202598E+02  0.15206647715E+02  0.14200000000E+01 0.  1.
          4   -1    0    0  501    0  0.00000000000E+00 -0.00000000000E+00 -0.64700583794E+01  0.66240512855E+01  0.14200000000E+01 0. -1.
        -13    1    1    2    0    0  0.85061295498E+01  0.52735624241E+01  0.38777806438E+01  0.10733734475E+02  0.10570000000E+00 0. -1.
         13    1    1    2    0    0 -0.85061295498E+01 -0.52735624241E+01  0.47923635750E+01  0.11096964526E+02  0.10570000000E+00 0.  1.
<mgrwt>
<rscale>  0 0.20035170E+02</rscale>
<asrwt>0</asrwt>
<pdfrwt beam="2">  1        4 0.10123504E-02 0.20035170E+02</pdfrwt>
<pdfrwt beam="1">  1       -4 0.23462187E-02 0.20035170E+02</pdfrwt>
<totfact> 0.12859890E+06</totfact>
</mgrwt>
</event>
<event>
 5    1  0.4710515E-007  0.2000325E+02  0.7818608E-02  0.1745264E+00
          4   -1    0    0  501    0  0.00000000000E+00  0.00000000000E+00  0.94930085338E+01  0.95986254757E+01  0.14200000000E+01 0. -1.
         -4   -1    0    0    0  501 -0.00000000000E+00 -0.00000000000E+00 -0.10324712927E+02  0.10421904673E+02  0.14200000000E+01 0.  1.
       1023    2    1    2    0    0  0.00000000000E+00  0.00000000000E+00 -0.83170439278E+00  0.20020530149E+02  0.20003247118E+02 0.  0.
        -13    1    3    3    0    0  0.49296658318E+01 -0.87016951639E+01 -0.42991362156E+00  0.10010849222E+02  0.10570000000E+00 0.  1.
         13    1    3    3    0    0 -0.49296658318E+01  0.87016951639E+01 -0.40179077122E+00  0.10009680927E+02  0.10570000000E+00 0. -1.
<mgrwt>
<rscale>  0 0.20003247E+02</rscale>
<asrwt>0</asrwt>
<pdfrwt beam="1">  1        4 0.14760635E-02 0.20003247E+02</pdfrwt>
<pdfrwt beam="2">  1       -4 0.16040180E-02 0.20003247E+02</pdfrwt>
<totfact> 0.13008513E+06</totfact>
</mgrwt>
</event>
<event>
 5    1  0.4710515E-007  0.2000170E+02  0.7818608E-02  0.1745294E+00
          4   -1    0    0  501    0  0.00000000000E+00  0.00000000000E+00  0.67497999764E+02  0.67512934850E+02  0.14200000000E+01 0.  1.
         -4   -1    0    0    0  501 -0.00000000000E+00 -0.00000000000E+00 -0.11229290503E+01  0.18103506986E+01  0.14200000000E+01 0. -1.
       1023    2    1    2    0    0  0.00000000000E+00  0.00000000000E+00  0.66375070714E+02  0.69323285549E+02  0.20001697605E+02 0.  0.
        -13    1    3    3    0    0 -0.99297686259E+01 -0.11846927325E+01  0.33032442179E+02  0.34513145476E+02  0.10570000000E+00 0.  1.
         13    1    3    3    0    0  0.99297686259E+01  0.11846927325E+01  0.33342628535E+02  0.34810140073E+02  0.10570000000E+00 0. -1.
<mgrwt>
<rscale>  0 0.20001698E+02</rscale>
<asrwt>0</asrwt>
<pdfrwt beam="1">  1        4 0.10438333E-01 0.20001698E+02</pdfrwt>
<pdfrwt beam="2">  1       -4 0.22678579E-03 0.20001698E+02</pdfrwt>
<totfact> 0.10772920E+06</totfact>
</mgrwt>
</event>
<event>
 5    1  0.4710515E-007  0.2000322E+02  0.7818608E-02  0.1745264E+00
          4   -1    0    0  501    0  0.00000000000E+00  0.00000000000E+00  0.34736234769E+02  0.34765247100E+02  0.14200000000E+01 0. -1.
         -4   -1    0    0    0  501 -0.00000000000E+00 -0.00000000000E+00 -0.26725687024E+01  0.30263878583E+01  0.14200000000E+01 0.  1.
       1023    2    1    2    0    0  0.00000000000E+00  0.00000000000E+00  0.32063666067E+02  0.37791634958E+02  0.20003224520E+02 0.  0.
        -13    1    3    3    0    0  0.51202695923E+01 -0.85903976596E+01  0.16210892880E+02  0.19047737742E+02  0.10570000000E+00 0.  1.
         13    1    3    3    0    0 -0.51202695923E+01  0.85903976596E+01  0.15852773187E+02  0.18743897216E+02  0.10570000000E+00 0. -1.
<mgrwt>
<rscale>  0 0.20003225E+02</rscale>
<asrwt>0</asrwt>
<pdfrwt beam="1">  1        4 0.53734843E-02 0.20003225E+02</pdfrwt>
<pdfrwt beam="2">  1       -4 0.44061302E-03 0.20003225E+02</pdfrwt>
<totfact> 0.12062723E+06</totfact>
</mgrwt>
</event>
<event>
 5    1  0.4710515E-007  0.2000366E+02  0.7818608E-02  0.1745255E+00
         -4   -1    0    0    0  501 -0.00000000000E+00  0.00000000000E+00  0.33325271643E+02  0.33355511240E+02  0.14200000000E+01 0.  1.
          4   -1    0    0  501    0  0.00000000000E+00 -0.00000000000E+00 -0.28004243095E+01  0.31398688369E+01  0.14200000000E+01 0. -1.
       1023    2    1    2    0    0  0.00000000000E+00  0.00000000000E+00  0.30524847333E+02  0.36495380077E+02  0.20003661220E+02 0.  0.
        -13    1    3    3    0    0  0.20552467793E+01 -0.97874799729E+01  0.15113762753E+02  0.18123349597E+02  0.10570000000E+00 0. -1.
         13    1    3    3    0    0 -0.20552467793E+01  0.97874799729E+01  0.15411084580E+02  0.18372030480E+02  0.10570000000E+00 0.  1.
<mgrwt>
<rscale>  0 0.20003661E+02</rscale>
<asrwt>0</asrwt>
<pdfrwt beam="2">  1        4 0.45927176E-03 0.20003661E+02</pdfrwt>
<pdfrwt beam="1">  1       -4 0.51554020E-02 0.20003661E+02</pdfrwt>
<totfact> 0.12124459E+06</totfact>
</mgrwt>
</event>
<event>
 5    1  0.4710515E-007  0.2000375E+02  0.7818608E-02  0.1745254E+00
          4   -1    0    0  501    0  0.00000000000E+00  0.00000000000E+00  0.40172751005E+02  0.40197839785E+02  0.14200000000E+01 0.  1.
         -4   -1    0    0    0  501 -0.00000000000E+00 -0.00000000000E+00 -0.22596871355E+01  0.26688173318E+01  0.14200000000E+01 0. -1.
       1023    2    1    2    0    0  0.00000000000E+00  0.00000000000E+00  0.37913063870E+02  0.42866657116E+02  0.20003746657E+02 0.  0.
        -13    1    3    3    0    0 -0.54819659564E+01  0.83639493280E+01  0.19249561505E+02  0.21692496162E+02  0.10570000000E+00 0.  1.
         13    1    3    3    0    0  0.54819659564E+01 -0.83639493280E+01  0.18663502365E+02  0.21174160955E+02  0.10570000000E+00 0. -1.
<mgrwt>
<rscale>  0 0.20003747E+02</rscale>
<asrwt>0</asrwt>
<pdfrwt beam="1">  1        4 0.62138244E-02 0.20003747E+02</pdfrwt>
<pdfrwt beam="2">  1       -4 0.38104565E-03 0.20003747E+02</pdfrwt>
<totfact> 0.11826711E+06</totfact>
</mgrwt>
</event>
<event>
 5    1  0.4710515E-007  0.2001043E+02  0.7818608E-02  0.1745121E+00
          4   -1    0    0  501    0  0.00000000000E+00  0.00000000000E+00  0.28437430748E+02  0.28472861949E+02  0.14200000000E+01 0.  1.
         -4   -1    0    0    0  501 -0.00000000000E+00 -0.00000000000E+00 -0.33376931185E+01  0.36272021384E+01  0.14200000000E+01 0. -1.
       1023    2    1    2    0    0  0.00000000000E+00  0.00000000000E+00  0.25099737630E+02  0.32100064087E+02  0.20010429414E+02 0.  0.
        -13    1    3    3    0    0 -0.93872437491E+01 -0.34520008789E+01  0.12168584453E+02  0.15751897516E+02  0.10570000000E+00 0. -1.
         13    1    3    3    0    0  0.93872437491E+01  0.34520008789E+01  0.12931153176E+02  0.16348166571E+02  0.10570000000E+00 0.  1.
<mgrwt>
<rscale>  0 0.20010429E+02</rscale>
<asrwt>0</asrwt>
<pdfrwt beam="1">  1        4 0.43999847E-02 0.20010429E+02</pdfrwt>
<pdfrwt beam="2">  1       -4 0.53848666E-03 0.20010429E+02</pdfrwt>
<totfact> 0.12334294E+06</totfact>
</mgrwt>
</event>
<event>
 5    1  0.4710515E-007  0.2000770E+02  0.7818608E-02  0.1745175E+00
         -4   -1    0    0    0  501 -0.00000000000E+00  0.00000000000E+00  0.50511214243E+01  0.52469255419E+01  0.14200000000E+01 0. -1.
          4   -1    0    0  501    0  0.00000000000E+00 -0.00000000000E+00 -0.19213606245E+02  0.19266008017E+02  0.14200000000E+01 0.  1.
       1023    2    1    2    0    0  0.00000000000E+00  0.00000000000E+00 -0.14162484820E+02  0.24512933559E+02  0.20007696904E+02 0.  0.
        -13    1    3    3    0    0 -0.43974494207E+01  0.89845149665E+01 -0.71818319664E+01  0.12314582960E+02  0.10570000000E+00 0.  1.
         13    1    3    3    0    0  0.43974494207E+01 -0.89845149665E+01 -0.69806528539E+01  0.12198350599E+02  0.10570000000E+00 0. -1.
<mgrwt>
<rscale>  0 0.20007697E+02</rscale>
<asrwt>0</asrwt>
<pdfrwt beam="2">  1        4 0.29750322E-02 0.20007697E+02</pdfrwt>
<pdfrwt beam="1">  1       -4 0.79618837E-03 0.20007697E+02</pdfrwt>
<totfact> 0.12742883E+06</totfact>
</mgrwt>
</event>
<event>
 4    1  0.4710515E-007  0.2014230E+02  0.7818608E-02  0.1742513E+00
         -4   -1    0    0    0  501 -0.00000000000E+00  0.00000000000E+00  0.63378168784E+02  0.63394074474E+02  0.14200000000E+01 0. -1.
          4   -1    0    0  501    0  0.00000000000E+00 -0.00000000000E+00 -0.12660156447E+01  0.19024183590E+01  0.14200000000E+01 0. -1.
        -13    1    1    2    0    0 -0.52395668663E+01  0.85776869134E+01  0.29038993992E+02  0.30729531696E+02  0.10570000000E+00 0.  1.
         13    1    1    2    0    0  0.52395668663E+01 -0.85776869134E+01  0.33073159147E+02  0.34566961136E+02  0.10570000000E+00 0. -1.
<mgrwt>
<rscale>  0 0.20142304E+02</rscale>
<asrwt>0</asrwt>
<pdfrwt beam="2">  1        4 0.24494921E-03 0.20142304E+02</pdfrwt>
<pdfrwt beam="1">  1       -4 0.98006649E-02 0.20142304E+02</pdfrwt>
<totfact> 0.10765476E+06</totfact>
</mgrwt>
</event>
<event>
 5    1  0.4947694E-007  0.2000408E+02  0.7818608E-02  0.1745247E+00
          4   -1    0    0  501    0  0.00000000000E+00  0.00000000000E+00  0.74746353398E+01  0.76083226445E+01  0.14200000000E+01 0.  1.
         -4   -1    0    0    0  501 -0.00000000000E+00 -0.00000000000E+00 -0.13092992236E+02  0.13169770146E+02  0.14200000000E+01 0. -1.
       1023    2    1    2    0    0  0.00000000000E+00  0.00000000000E+00 -0.56183568963E+01  0.20778092790E+02  0.20004079729E+02 0.  0.
        -13    1    3    3    0    0 -0.81025716393E+01 -0.58608953337E+01 -0.26357830865E+01  0.10342160618E+02  0.10570000000E+00 0. -1.
         13    1    3    3    0    0  0.81025716393E+01  0.58608953337E+01 -0.29825738099E+01  0.10435932172E+02  0.10570000000E+00 0.  1.
<mgrwt>
<rscale>  0 0.20004080E+02</rscale>
<asrwt>0</asrwt>
<pdfrwt beam="1">  1        4 0.11661335E-02 0.20004080E+02</pdfrwt>
<pdfrwt beam="2">  1       -4 0.20304961E-02 0.20004080E+02</pdfrwt>
<totfact> 0.12962479E+06</totfact>
</mgrwt>
</event>
<event>
 4    1  0.4710515E-007  0.2002327E+02  0.7818608E-02  0.1744866E+00
          4   -1    0    0  501    0  0.00000000000E+00  0.00000000000E+00  0.10787577488E+02  0.10880635462E+02  0.14200000000E+01 0. -1.
         -4   -1    0    0    0  501 -0.00000000000E+00 -0.00000000000E+00 -0.91032637302E+01  0.92133495832E+01  0.14200000000E+01 0.  1.
        -13    1    1    2    0    0 -0.78751540114E+01  0.61798319349E+01  0.95782278802E+00  0.10056687846E+02  0.10570000000E+00 0.  1.
         13    1    1    2    0    0  0.78751540114E+01 -0.61798319349E+01  0.72649096952E+00  0.10037297199E+02  0.10570000000E+00 0. -1.
<mgrwt>
<rscale>  0 0.20023270E+02</rscale>
<asrwt>0</asrwt>
<pdfrwt beam="1">  1        4 0.16752538E-02 0.20023270E+02</pdfrwt>
<pdfrwt beam="2">  1       -4 0.14161286E-02 0.20023270E+02</pdfrwt>
<totfact> 0.12977614E+06</totfact>
</mgrwt>
</event>
<event>
 5    1  0.4710515E-007  0.2000253E+02  0.7818608E-02  0.1745278E+00
         -4   -1    0    0    0  501 -0.00000000000E+00  0.00000000000E+00  0.63613417206E+01  0.65179036881E+01  0.14200000000E+01 0.  1.
          4   -1    0    0  501    0  0.00000000000E+00 -0.00000000000E+00 -0.15343042691E+02  0.15408613144E+02  0.14200000000E+01 0. -1.
       1023    2    1    2    0    0  0.00000000000E+00  0.00000000000E+00 -0.89817009704E+01  0.21926516832E+02  0.20002529542E+02 0.  0.
        -13    1    3    3    0    0 -0.93727846786E+00 -0.99566851836E+01 -0.44988873790E+01  0.10966550548E+02  0.10570000000E+00 0. -1.
         13    1    3    3    0    0  0.93727846786E+00  0.99566851836E+01 -0.44828135914E+01  0.10959966284E+02  0.10570000000E+00 0.  1.
<mgrwt>
<rscale>  0 0.20002530E+02</rscale>
<asrwt>0</asrwt>
<pdfrwt beam="2">  1        4 0.23775552E-02 0.20002530E+02</pdfrwt>
<pdfrwt beam="1">  1       -4 0.99575507E-03 0.20002530E+02</pdfrwt>
<totfact> 0.12897165E+06</totfact>
</mgrwt>
</event>
<event>
 4    1  0.4710515E-007  0.2006622E+02  0.7818608E-02  0.1744014E+00
         -4   -1    0    0    0  501 -0.00000000000E+00  0.00000000000E+00  0.98540496602E+02  0.98550727397E+02  0.14200000000E+01 0.  1.
          4   -1    0    0  501    0  0.00000000000E+00 -0.00000000000E+00 -0.51273177542E+00  0.15097330471E+01  0.14200000000E+01 0. -1.
        -13    1    1    2    0    0  0.99231964043E+01  0.13096914952E+01  0.52421447243E+02  0.53368571484E+02  0.10570000000E+00 0. -1.
         13    1    1    2    0    0 -0.99231964043E+01 -0.13096914952E+01  0.45606317583E+02  0.46691888960E+02  0.10570000000E+00 0.  1.
<mgrwt>
<rscale>  0 0.20066217E+02</rscale>
<asrwt>0</asrwt>
<pdfrwt beam="2">  1        4 0.15636121E-03 0.20066217E+02</pdfrwt>
<pdfrwt beam="1">  1       -4 0.15237555E-01 0.20066217E+02</pdfrwt>
<totfact> 0.97350906E+05</totfact>
</mgrwt>
</event>
<event>
 4    1  0.4710515E-007  0.2003352E+02  0.7818608E-02  0.1744662E+00
          4   -1    0    0  501    0  0.00000000000E+00  0.00000000000E+00  0.10388130873E+03  0.10389101358E+03  0.14200000000E+01 0.  1.
         -4   -1    0    0    0  501 -0.00000000000E+00 -0.00000000000E+00 -0.42884137497E+00  0.14833424840E+01  0.14200000000E+01 0. -1.
        -13    1    1    2    0    0 -0.67226416709E+00 -0.99920435273E+01  0.50793683125E+02  0.51771635968E+02  0.10570000000E+00 0. -1.
         13    1    1    2    0    0  0.67226416709E+00  0.99920435273E+01  0.52658784229E+02  0.53602720098E+02  0.10570000000E+00 0.  1.
<mgrwt>
<rscale>  0 0.20033520E+02</rscale>
<asrwt>0</asrwt>
<pdfrwt beam="1">  1        4 0.16063595E-01 0.20033520E+02</pdfrwt>
<pdfrwt beam="2">  1       -4 0.14783765E-03 0.20033520E+02</pdfrwt>
<totfact> 0.96186623E+05</totfact>
</mgrwt>
</event>
<event>
 5    1  0.4710515E-007  0.2000647E+02  0.7818608E-02  0.1745199E+00
         -4   -1    0    0    0  501 -0.00000000000E+00  0.00000000000E+00  0.10976623320E+02  0.11068091954E+02  0.14200000000E+01 0. -1.
          4   -1    0    0  501    0  0.00000000000E+00 -0.00000000000E+00 -0.89305422170E+01  0.90427310194E+01  0.14200000000E+01 0.  1.
       1023    2    1    2    0    0  0.00000000000E+00  0.00000000000E+00  0.20460811030E+01  0.20110822974E+02  0.20006467774E+02 0.  0.
        -13    1    3    3    0    0 -0.95091242009E+01  0.31018699613E+01  0.93049849666E+00  0.10045996231E+02  0.10570000000E+00 0. -1.
         13    1    3    3    0    0  0.95091242009E+01 -0.31018699613E+01  0.11155826064E+01  0.10064826743E+02  0.10570000000E+00 0.  1.
<mgrwt>
<rscale>  0 0.20006468E+02</rscale>
<asrwt>0</asrwt>
<pdfrwt beam="2">  1        4 0.13895955E-02 0.20006468E+02</pdfrwt>
<pdfrwt beam="1">  1       -4 0.17043772E-02 0.20006468E+02</pdfrwt>
<totfact> 0.12998885E+06</totfact>
</mgrwt>
</event>
<event>
 4    1  0.4710515E-007  0.2001770E+02  0.7818608E-02  0.1744976E+00
         -4   -1    0    0    0  501 -0.00000000000E+00  0.00000000000E+00  0.58665989605E+02  0.58683172514E+02  0.14200000000E+01 0. -1.
          4   -1    0    0  501    0  0.00000000000E+00 -0.00000000000E+00 -0.13918415467E+01  0.19883719197E+01  0.14200000000E+01 0.  1.
        -13    1    1    2    0    0  0.80418264990E+01 -0.59577523749E+01  0.28668536936E+02  0.30365473310E+02  0.10570000000E+00 0.  1.
         13    1    1    2    0    0 -0.80418264990E+01  0.59577523749E+01  0.28605611122E+02  0.30306071123E+02  0.10570000000E+00 0. -1.
<mgrwt>
<rscale>  0 0.20017699E+02</rscale>
<asrwt>0</asrwt>
<pdfrwt beam="2">  1        4 0.26133817E-03 0.20017699E+02</pdfrwt>
<pdfrwt beam="1">  1       -4 0.90727459E-02 0.20017699E+02</pdfrwt>
<totfact> 0.11073425E+06</totfact>
</mgrwt>
</event>
<event>
 5    1  0.4710515E-007  0.2000882E+02  0.7818608E-02  0.1745153E+00
          4   -1    0    0  501    0  0.00000000000E+00  0.00000000000E+00  0.15605943432E+02  0.15670413855E+02  0.14200000000E+01 0. -1.
         -4   -1    0    0    0  501 -0.00000000000E+00 -0.00000000000E+00 -0.62560459144E+01  0.64151781334E+01  0.14200000000E+01 0.  1.
       1023    2    1    2    0    0  0.00000000000E+00  0.00000000000E+00  0.93498975174E+01  0.22085591989E+02  0.20008817804E+02 0.  0.
        -13    1    3    3    0    0  0.96829614461E+01  0.25133283222E+01  0.46511886169E+01  0.11032737179E+02  0.10570000000E+00 0. -1.
         13    1    3    3    0    0 -0.96829614461E+01 -0.25133283222E+01  0.46987089005E+01  0.11052854810E+02  0.10570000000E+00 0.  1.
<mgrwt>
<rscale>  0 0.20008818E+02</rscale>
<asrwt>0</asrwt>
<pdfrwt beam="1">  1        4 0.24181146E-02 0.20008818E+02</pdfrwt>
<pdfrwt beam="2">  1       -4 0.97966882E-03 0.20008818E+02</pdfrwt>
<totfact> 0.12879675E+06</totfact>
</mgrwt>
</event>
<event>
 4    1  0.4710515E-007  0.2035958E+02  0.7818608E-02  0.1738271E+00
          4   -1    0    0  501    0  0.00000000000E+00  0.00000000000E+00  0.10260852073E+01  0.17519277532E+01  0.14200000000E+01 0. -1.
         -4   -1    0    0    0  501 -0.00000000000E+00 -0.00000000000E+00 -0.73871455125E+02  0.73885101897E+02  0.14200000000E+01 0.  1.
        -13    1    1    2    0    0  0.83022775948E+01 -0.57750603161E+01 -0.32125762422E+02  0.33680185846E+02  0.10570000000E+00 0. -1.
         13    1    1    2    0    0 -0.83022775948E+01  0.57750603161E+01 -0.40719607496E+02  0.41956843804E+02  0.10570000000E+00 0.  1.
<mgrwt>
<rscale>  0 0.20359576E+02</rscale>
<asrwt>0</asrwt>
<pdfrwt beam="1">  1        4 0.21474311E-03 0.20359576E+02</pdfrwt>
<pdfrwt beam="2">  1       -4 0.11421720E-01 0.20359576E+02</pdfrwt>
<totfact> 0.10184375E+06</totfact>
</mgrwt>
</event>
<event>
 5    1  0.4710515E-007  0.2000131E+02  0.7818608E-02  0.1745302E+00
         -4   -1    0    0    0  501 -0.00000000000E+00  0.00000000000E+00  0.92529743031E+02  0.92540638346E+02  0.14200000000E+01 0. -1.
          4   -1    0    0  501    0  0.00000000000E+00 -0.00000000000E+00 -0.59871860583E+00  0.15410593658E+01  0.14200000000E+01 0.  1.
       1023    2    1    2    0    0  0.00000000000E+00  0.00000000000E+00  0.91931024426E+02  0.94081697712E+02  0.20001314766E+02 0.  0.
        -13    1    3    3    0    0 -0.90386180465E+01 -0.42784716725E+01  0.45995097698E+02  0.47069758028E+02  0.10570000000E+00 0.  1.
         13    1    3    3    0    0  0.90386180465E+01  0.42784716725E+01  0.45935926727E+02  0.47011939684E+02  0.10570000000E+00 0. -1.
<mgrwt>
<rscale>  0 0.20001315E+02</rscale>
<asrwt>0</asrwt>
<pdfrwt beam="2">  1        4 0.16543640E-03 0.20001315E+02</pdfrwt>
<pdfrwt beam="1">  1       -4 0.14308672E-01 0.20001315E+02</pdfrwt>
<totfact> 0.99718034E+05</totfact>
</mgrwt>
</event>
<event>
 4    1  0.4960465E-007  0.2936380E+02  0.7818608E-02  0.1605229E+00
         -4   -1    0    0    0  501 -0.00000000000E+00  0.00000000000E+00  0.15027331483E+01  0.20675122527E+01  0.14200000000E+01 0. -1.
          4   -1    0    0  501    0  0.00000000000E+00 -0.00000000000E+00 -0.12018292128E+03  0.12019130986E+03  0.14200000000E+01 0.  1.
        -13    1    1    2    0    0 -0.53631786876E+01  0.13356240644E+02 -0.47277093580E+02  0.49419506267E+02  0.10570000000E+00 0. -1.
         13    1    1    2    0    0  0.53631786876E+01 -0.13356240644E+02 -0.71403094548E+02  0.72839315848E+02  0.10570000000E+00 0.  1.
<mgrwt>
<rscale>  0 0.29363796E+02</rscale>
<asrwt>0</asrwt>
<pdfrwt beam="2">  1        4 0.18533764E-01 0.29363796E+02</pdfrwt>
<pdfrwt beam="1">  1       -4 0.27527963E-03 0.29363796E+02</pdfrwt>
<totfact> 0.41063538E+05</totfact>
</mgrwt>
</event>
<event>
 4    1  0.4710515E-007  0.2020465E+02  0.7818608E-02  0.1741289E+00
          4   -1    0    0  501    0  0.00000000000E+00  0.00000000000E+00  0.73100195768E+00  0.15971110989E+01  0.14200000000E+01 0.  1.
         -4   -1    0    0    0  501 -0.00000000000E+00 -0.00000000000E+00 -0.86799489524E+02  0.86811104022E+02  0.14200000000E+01 0. -1.
        -13    1    1    2    0    0 -0.10036315203E+02 -0.68155868124E+00 -0.47077080314E+02  0.48139950233E+02  0.10570000000E+00 0. -1.
         13    1    1    2    0    0  0.10036315203E+02  0.68155868124E+00 -0.38991407253E+02  0.40268264888E+02  0.10570000000E+00 0.  1.
<mgrwt>
<rscale>  0 0.20204652E+02</rscale>
<asrwt>0</asrwt>
<pdfrwt beam="1">  1        4 0.17997911E-03 0.20204652E+02</pdfrwt>
<pdfrwt beam="2">  1       -4 0.13421280E-01 0.20204652E+02</pdfrwt>
<totfact> 0.99398118E+05</totfact>
</mgrwt>
</event>
<event>
 5    1  0.4710515E-007  0.2000131E+02  0.7818608E-02  0.1745302E+00
          4   -1    0    0  501    0  0.00000000000E+00  0.00000000000E+00  0.61624627052E+00  0.15479533152E+01  0.14200000000E+01 0.  1.
         -4   -1    0    0    0  501 -0.00000000000E+00 -0.00000000000E+00 -0.91485416423E+02  0.91496436095E+02  0.14200000000E+01 0. -1.
       1023    2    1    2    0    0  0.00000000000E+00  0.00000000000E+00 -0.90869170152E+02  0.93044389410E+02  0.20001307870E+02 0.  0.
        -13    1    3    3    0    0 -0.98638897174E+01 -0.16446976625E+01 -0.45544263792E+02  0.46629309320E+02  0.10570000000E+00 0. -1.
         13    1    3    3    0    0  0.98638897174E+01  0.16446976625E+01 -0.45324906360E+02  0.46415080090E+02  0.10570000000E+00 0.  1.
<mgrwt>
<rscale>  0 0.20001308E+02</rscale>
<asrwt>0</asrwt>
<pdfrwt beam="1">  1        4 0.16732463E-03 0.20001308E+02</pdfrwt>
<pdfrwt beam="2">  1       -4 0.14147191E-01 0.20001308E+02</pdfrwt>
<totfact> 0.10002639E+06</totfact>
</mgrwt>
</event>
<event>
 5    1  0.4710515E-007  0.2000907E+02  0.7818608E-02  0.1745148E+00
         -4   -1    0    0    0  501 -0.00000000000E+00  0.00000000000E+00  0.78919826297E+01  0.80187149736E+01  0.14200000000E+01 0.  1.
          4   -1    0    0  501    0  0.00000000000E+00 -0.00000000000E+00 -0.12414038795E+02  0.12494989364E+02  0.14200000000E+01 0. -1.
       1023    2    1    2    0    0  0.00000000000E+00  0.00000000000E+00 -0.45220561655E+01  0.20513704338E+02  0.20009074783E+02 0.  0.
        -13    1    3    3    0    0 -0.82941110490E+01  0.55925204708E+01 -0.21533427653E+01  0.10233113938E+02  0.10570000000E+00 0.  1.
         13    1    3    3    0    0  0.82941110490E+01 -0.55925204708E+01 -0.23687134003E+01  0.10280590400E+02  0.10570000000E+00 0. -1.
<mgrwt>
<rscale>  0 0.20009075E+02</rscale>
<asrwt>0</asrwt>
<pdfrwt beam="2">  1        4 0.19258277E-02 0.20009075E+02</pdfrwt>
<pdfrwt beam="1">  1       -4 0.12301268E-02 0.20009075E+02</pdfrwt>
<totfact> 0.12971494E+06</totfact>
</mgrwt>
</event>
<event>
 4    1  0.4710515E-007  0.2001630E+02  0.7818608E-02  0.1745004E+00
          4   -1    0    0  501    0  0.00000000000E+00  0.00000000000E+00  0.22924525425E+02  0.22968462420E+02  0.14200000000E+01 0. -1.
         -4   -1    0    0    0  501 -0.00000000000E+00 -0.00000000000E+00 -0.42043618109E+01  0.44376861355E+01  0.14200000000E+01 0.  1.
        -13    1    1    2    0    0  0.38014056709E+01 -0.92572160108E+01  0.92612778249E+01  0.13635584798E+02  0.10570000000E+00 0.  1.
         13    1    1    2    0    0 -0.38014056709E+01  0.92572160108E+01  0.94588857888E+01  0.13770563758E+02  0.10570000000E+00 0. -1.
<mgrwt>
<rscale>  0 0.20016305E+02</rscale>
<asrwt>0</asrwt>
<pdfrwt beam="1">  1        4 0.35481777E-02 0.20016305E+02</pdfrwt>
<pdfrwt beam="2">  1       -4 0.66815271E-03 0.20016305E+02</pdfrwt>
<totfact> 0.12572640E+06</totfact>
</mgrwt>
</event>
<event>
 5    1  0.4710515E-007  0.2000409E+02  0.7818608E-02  0.1745247E+00
         -4   -1    0    0    0  501 -0.00000000000E+00  0.00000000000E+00  0.86050990951E+02  0.86062706463E+02  0.14200000000E+01 0. -1.
          4   -1    0    0  501    0  0.00000000000E+00 -0.00000000000E+00 -0.71269198673E+00  0.15888139815E+01  0.14200000000E+01 0.  1.
       1023    2    1    2    0    0  0.00000000000E+00  0.00000000000E+00  0.85338298965E+02  0.87651520444E+02  0.20004093732E+02 0.  0.
        -13    1    3    3    0    0 -0.94872204287E+01 -0.31652138568E+01  0.42940629671E+02  0.44090075746E+02  0.10570000000E+00 0.  1.
         13    1    3    3    0    0  0.94872204287E+01  0.31652138568E+01  0.42397669294E+02  0.43561444699E+02  0.10570000000E+00 0. -1.
<mgrwt>
<rscale>  0 0.20004094E+02</rscale>
<asrwt>0</asrwt>
<pdfrwt beam="2">  1        4 0.17794003E-03 0.20004094E+02</pdfrwt>
<pdfrwt beam="1">  1       -4 0.13306915E-01 0.20004094E+02</pdfrwt>
<totfact> 0.10163667E+06</totfact>
</mgrwt>
</event>
<event>
 5    1  0.4710515E-007  0.2000224E+02  0.7818608E-02  0.1745284E+00
          4   -1    0    0  501    0  0.00000000000E+00  0.00000000000E+00  0.42301090157E+01  0.44620872117E+01  0.14200000000E+01 0.  1.
         -4   -1    0    0    0  501 -0.00000000000E+00 -0.00000000000E+00 -0.22759605780E+02  0.22803860534E+02  0.14200000000E+01 0. -1.
       1023    2    1    2    0    0  0.00000000000E+00  0.00000000000E+00 -0.18529496764E+02  0.27265947746E+02  0.20002241278E+02 0.  0.
        -13    1    3    3    0    0 -0.38416920729E+01 -0.92331814657E+01 -0.92215647693E+01  0.13603626989E+02  0.10570000000E+00 0. -1.
         13    1    3    3    0    0  0.38416920729E+01  0.92331814657E+01 -0.93079319951E+01  0.13662320757E+02  0.10570000000E+00 0.  1.
<mgrwt>
<rscale>  0 0.20002241E+02</rscale>
<asrwt>0</asrwt>
<pdfrwt beam="1">  1        4 0.67203470E-03 0.20002241E+02</pdfrwt>
<pdfrwt beam="2">  1       -4 0.35227264E-02 0.20002241E+02</pdfrwt>
<totfact> 0.12598207E+06</totfact>
</mgrwt>
</event>
<event>
 5    1  0.4710515E-007  0.2001076E+02  0.7818608E-02  0.1745114E+00
         -4   -1    0    0    0  501 -0.00000000000E+00  0.00000000000E+00  0.14561080596E+01  0.20338757782E+01  0.14200000000E+01 0.  1.
          4   -1    0    0  501    0  0.00000000000E+00 -0.00000000000E+00 -0.56780431376E+02  0.56798184718E+02  0.14200000000E+01 0. -1.
       1023    2    1    2    0    0  0.00000000000E+00  0.00000000000E+00 -0.55324323317E+02  0.58832060496E+02  0.20010761900E+02 0.  0.
        -13    1    3    3    0    0 -0.70360515176E+01 -0.71070905005E+01 -0.26832059233E+02  0.28635420924E+02  0.10570000000E+00 0. -1.
         13    1    3    3    0    0  0.70360515176E+01  0.71070905005E+01 -0.28492264084E+02  0.30196639573E+02  0.10570000000E+00 0.  1.
<mgrwt>
<rscale>  0 0.20010762E+02</rscale>
<asrwt>0</asrwt>
<pdfrwt beam="2">  1        4 0.87812589E-02 0.20010762E+02</pdfrwt>
<pdfrwt beam="1">  1       -4 0.26982598E-03 0.20010762E+02</pdfrwt>
<totfact> 0.11151806E+06</totfact>
</mgrwt>
</event>
<event>
 4    1  0.4710515E-007  0.2004537E+02  0.7818608E-02  0.1744427E+00
         -4   -1    0    0    0  501 -0.00000000000E+00  0.00000000000E+00  0.32438983201E+02  0.32470048216E+02  0.14200000000E+01 0. -1.
          4   -1    0    0  501    0  0.00000000000E+00 -0.00000000000E+00 -0.28995669896E+01  0.32286047647E+01  0.14200000000E+01 0.  1.
        -13    1    1    2    0    0  0.97274395986E+01  0.24124056422E+01  0.14796362437E+02  0.17871382039E+02  0.10570000000E+00 0. -1.
         13    1    1    2    0    0 -0.97274395986E+01 -0.24124056422E+01  0.14743053775E+02  0.17827270942E+02  0.10570000000E+00 0.  1.
<mgrwt>
<rscale>  0 0.20045366E+02</rscale>
<asrwt>0</asrwt>
<pdfrwt beam="2">  1        4 0.47378744E-03 0.20045366E+02</pdfrwt>
<pdfrwt beam="1">  1       -4 0.50183130E-02 0.20045366E+02</pdfrwt>
<totfact> 0.12111930E+06</totfact>
</mgrwt>
</event>
<event>
 4    1  0.4710515E-007  0.2006324E+02  0.7818608E-02  0.1744073E+00
          4   -1    0    0  501    0  0.00000000000E+00  0.00000000000E+00  0.22832544542E+02  0.22876658197E+02  0.14200000000E+01 0. -1.
         -4   -1    0    0    0  501 -0.00000000000E+00 -0.00000000000E+00 -0.42433294728E+01  0.44746223321E+01  0.14200000000E+01 0.  1.
        -13    1    1    2    0    0 -0.32875502384E+01  0.94466222602E+01  0.82603516361E+01  0.12972711372E+02  0.10570000000E+00 0. -1.
         13    1    1    2    0    0  0.32875502384E+01 -0.94466222602E+01  0.10328863433E+02  0.14378569157E+02  0.10570000000E+00 0.  1.
<mgrwt>
<rscale>  0 0.20063241E+02</rscale>
<asrwt>0</asrwt>
<pdfrwt beam="1">  1        4 0.35338843E-02 0.20063241E+02</pdfrwt>
<pdfrwt beam="2">  1       -4 0.67400502E-03 0.20063241E+02</pdfrwt>
<totfact> 0.12515792E+06</totfact>
</mgrwt>
</event>
<event>
 5    1  0.5435108E-007  0.2000174E+02  0.7818608E-02  0.1745294E+00
         -4   -1    0    0    0  501 -0.00000000000E+00  0.00000000000E+00  0.10288754688E+02  0.10386282927E+02  0.14200000000E+01 0. -1.
          4   -1    0    0  501    0  0.00000000000E+00 -0.00000000000E+00 -0.95247723360E+01  0.96300409164E+01  0.14200000000E+01 0.  1.
       1023    2    1    2    0    0  0.00000000000E+00  0.00000000000E+00  0.76398235231E+00  0.20016323843E+02  0.20001738703E+02 0.  0.
        -13    1    3    3    0    0 -0.99256880210E+01 -0.12191884329E+01  0.40463897859E+00  0.10009026342E+02  0.10570000000E+00 0.  1.
         13    1    3    3    0    0  0.99256880210E+01  0.12191884329E+01  0.35934337372E+00  0.10007297501E+02  0.10570000000E+00 0. -1.
<mgrwt>
<rscale>  0 0.20001739E+02</rscale>
<asrwt>0</asrwt>
<pdfrwt beam="2">  1        4 0.14809493E-02 0.20001739E+02</pdfrwt>
<pdfrwt beam="1">  1       -4 0.15984851E-02 0.20001739E+02</pdfrwt>
<totfact> 0.13010766E+06</totfact>
</mgrwt>
</event>
<event>
 4    1  0.4710515E-007  0.2016945E+02  0.7818608E-02  0.1741979E+00
          4   -1    0    0  501    0  0.00000000000E+00  0.00000000000E+00  0.38534361238E+01  0.41067468829E+01  0.14200000000E+01 0.  1.
         -4   -1    0    0    0  501 -0.00000000000E+00 -0.00000000000E+00 -0.25278716562E+02  0.25318568502E+02  0.14200000000E+01 0. -1.
        -13    1    1    2    0    0  0.81203872799E+01  0.59005223708E+01 -0.93029950176E+01  0.13686261090E+02  0.10570000000E+00 0.  1.
         13    1    1    2    0    0 -0.81203872799E+01 -0.59005223708E+01 -0.12122285420E+02  0.15739054296E+02  0.10570000000E+00 0. -1.
<mgrwt>
<rscale>  0 0.20169446E+02</rscale>
<asrwt>0</asrwt>
<pdfrwt beam="1">  1        4 0.61538732E-03 0.20169446E+02</pdfrwt>
<pdfrwt beam="2">  1       -4 0.39115842E-02 0.20169446E+02</pdfrwt>
<totfact> 0.12273359E+06</totfact>
</mgrwt>
</event>
<event>
 5    1  0.4710515E-007  0.2000178E+02  0.7818608E-02  0.1745293E+00
         -4   -1    0    0    0  501 -0.00000000000E+00  0.00000000000E+00  0.17698536581E+01  0.22690927639E+01  0.14200000000E+01 0. -1.
          4   -1    0    0  501    0  0.00000000000E+00 -0.00000000000E+00 -0.49015891793E+02  0.49036456318E+02  0.14200000000E+01 0.  1.
       1023    2    1    2    0    0  0.00000000000E+00  0.00000000000E+00 -0.47246038135E+02  0.51305549082E+02  0.20001781100E+02 0.  0.
        -13    1    3    3    0    0  0.96954029440E+01 -0.24499711058E+01 -0.23773520797E+02  0.25791367940E+02  0.10570000000E+00 0.  1.
         13    1    3    3    0    0 -0.96954029440E+01  0.24499711058E+01 -0.23472517338E+02  0.25514181142E+02  0.10570000000E+00 0. -1.
<mgrwt>
<rscale>  0 0.20001781E+02</rscale>
<asrwt>0</asrwt>
<pdfrwt beam="2">  1        4 0.75808904E-02 0.20001781E+02</pdfrwt>
<pdfrwt beam="1">  1       -4 0.31227011E-03 0.20001781E+02</pdfrwt>
<totfact> 0.11463599E+06</totfact>
</mgrwt>
</event>
<event>
 5    1  0.4710515E-007  0.2000528E+02  0.7818608E-02  0.1745223E+00
          4   -1    0    0  501    0  0.00000000000E+00  0.00000000000E+00  0.49182771800E+02  0.49203266578E+02  0.14200000000E+01 0. -1.
         -4   -1    0    0    0  501 -0.00000000000E+00 -0.00000000000E+00 -0.17629544640E+01  0.22637156275E+01  0.14200000000E+01 0.  1.
       1023    2    1    2    0    0  0.00000000000E+00  0.00000000000E+00  0.47419817336E+02  0.51466982205E+02  0.20005278832E+02 0.  0.
        -13    1    3    3    0    0  0.42526693384E+01 -0.90523800951E+01  0.23977774260E+02  0.25980292778E+02  0.10570000000E+00 0. -1.
         13    1    3    3    0    0 -0.42526693384E+01  0.90523800951E+01  0.23442043076E+02  0.25486689427E+02  0.10570000000E+00 0.  1.
<mgrwt>
<rscale>  0 0.20005279E+02</rscale>
<asrwt>0</asrwt>
<pdfrwt beam="1">  1        4 0.76066764E-02 0.20005279E+02</pdfrwt>
<pdfrwt beam="2">  1       -4 0.31132039E-03 0.20005279E+02</pdfrwt>
<totfact> 0.11452863E+06</totfact>
</mgrwt>
</event>
<event>
 5    1  0.4858243E-007  0.2000125E+02  0.7818608E-02  0.1745303E+00
         -4   -1    0    0    0  501 -0.00000000000E+00  0.00000000000E+00  0.25893170744E+02  0.25932078420E+02  0.14200000000E+01 0. -1.
          4   -1    0    0  501    0  0.00000000000E+00 -0.00000000000E+00 -0.36886554405E+01  0.39525408231E+01  0.14200000000E+01 0.  1.
       1023    2    1    2    0    0  0.00000000000E+00  0.00000000000E+00  0.22204515304E+02  0.29884619243E+02  0.20001249147E+02 0.  0.
        -13    1    3    3    0    0 -0.42859565733E+01 -0.90350312098E+01  0.11117688551E+02  0.14953774905E+02  0.10570000000E+00 0. -1.
         13    1    3    3    0    0  0.42859565733E+01  0.90350312098E+01  0.11086826752E+02  0.14930844338E+02  0.10570000000E+00 0.  1.
<mgrwt>
<rscale>  0 0.20001249E+02</rscale>
<asrwt>0</asrwt>
<pdfrwt beam="2">  1        4 0.59077723E-03 0.20001249E+02</pdfrwt>
<pdfrwt beam="1">  1       -4 0.40068565E-02 0.20001249E+02</pdfrwt>
<totfact> 0.12460190E+06</totfact>
</mgrwt>
</event>
<event>
 5    1  0.4710515E-007  0.2000573E+02  0.7818608E-02  0.1745214E+00
          4   -1    0    0  501    0  0.00000000000E+00  0.00000000000E+00  0.53612948546E+01  0.55461592583E+01  0.14200000000E+01 0. -1.
         -4   -1    0    0    0  501 -0.00000000000E+00 -0.00000000000E+00 -0.18133501531E+02  0.18189015305E+02  0.14200000000E+01 0.  1.
       1023    2    1    2    0    0  0.00000000000E+00  0.00000000000E+00 -0.12772206676E+02  0.23735174564E+02  0.20005730383E+02 0.  0.
        -13    1    3    3    0    0 -0.74712582610E+01  0.66489650332E+01 -0.62282448066E+01  0.11782641549E+02  0.10570000000E+00 0. -1.
         13    1    3    3    0    0  0.74712582610E+01 -0.66489650332E+01 -0.65439618697E+01  0.11952533014E+02  0.10570000000E+00 0.  1.
<mgrwt>
<rscale>  0 0.20005730E+02</rscale>
<asrwt>0</asrwt>
<pdfrwt beam="1">  1        4 0.84330523E-03 0.20005730E+02</pdfrwt>
<pdfrwt beam="2">  1       -4 0.28082601E-02 0.20005730E+02</pdfrwt>
<totfact> 0.12789259E+06</totfact>
</mgrwt>
</event>
<event>
 5    1  0.4710515E-007  0.2000240E+02  0.7818608E-02  0.1745280E+00
         -4   -1    0    0    0  501 -0.00000000000E+00  0.00000000000E+00  0.48071820298E+02  0.48092788511E+02  0.14200000000E+01 0.  1.
          4   -1    0    0  501    0  0.00000000000E+00 -0.00000000000E+00 -0.18144455493E+01  0.23040426757E+01  0.14200000000E+01 0. -1.
       1023    2    1    2    0    0  0.00000000000E+00  0.00000000000E+00  0.46257374748E+02  0.50396831186E+02  0.20002396732E+02 0.  0.
        -13    1    3    3    0    0 -0.80871685516E+01  0.58830282162E+01  0.23183892709E+02  0.25249086514E+02  0.10570000000E+00 0. -1.
         13    1    3    3    0    0  0.80871685516E+01 -0.58830282162E+01  0.23073482039E+02  0.25147744672E+02  0.10570000000E+00 0.  1.
<mgrwt>
<rscale>  0 0.20002397E+02</rscale>
<asrwt>0</asrwt>
<pdfrwt beam="2">  1        4 0.31841969E-03 0.20002397E+02</pdfrwt>
<pdfrwt beam="1">  1       -4 0.74349398E-02 0.20002397E+02</pdfrwt>
<totfact> 0.11500779E+06</totfact>
</mgrwt>
</event>
<event>
 5    1  0.4710515E-007  0.2000975E+02  0.7818608E-02  0.1745134E+00
         -4   -1    0    0    0  501 -0.00000000000E+00  0.00000000000E+00  0.10529723199E+03  0.10530680635E+03  0.14200000000E+01 0. -1.
          4   -1    0    0  501    0  0.00000000000E+00 -0.00000000000E+00 -0.40525678236E+00  0.14766966715E+01  0.14200000000E+01 0.  1.
       1023    2    1    2    0    0  0.00000000000E+00  0.00000000000E+00  0.10489197520E+03  0.10678350302E+03  0.20009749017E+02 0.  0.
        -13    1    3    3    0    0 -0.15222795471E+01 -0.98875587670E+01  0.52830370827E+02  0.53769325898E+02  0.10570000000E+00 0.  1.
         13    1    3    3    0    0  0.15222795471E+01  0.98875587670E+01  0.52061604378E+02  0.53014177125E+02  0.10570000000E+00 0. -1.
<mgrwt>
<rscale>  0 0.20009749E+02</rscale>
<asrwt>0</asrwt>
<pdfrwt beam="2">  1        4 0.14550218E-03 0.20009749E+02</pdfrwt>
<pdfrwt beam="1">  1       -4 0.16282724E-01 0.20009749E+02</pdfrwt>
<totfact> 0.96028672E+05</totfact>
</mgrwt>
</event>
<event>
 4    1  0.4710515E-007  0.2001405E+02  0.7818608E-02  0.1745049E+00
          4   -1    0    0  501    0  0.00000000000E+00  0.00000000000E+00  0.27236046895E+02  0.27273038893E+02  0.14200000000E+01 0. -1.
         -4   -1    0    0    0  501 -0.00000000000E+00 -0.00000000000E+00 -0.34985895278E+01  0.37757818639E+01  0.14200000000E+01 0.  1.
        -13    1    1    2    0    0 -0.90900027743E+01 -0.41819697297E+01  0.12041502722E+02  0.15656499659E+02  0.10570000000E+00 0.  1.
         13    1    1    2    0    0  0.90900027743E+01  0.41819697297E+01  0.11695954645E+02  0.15392321099E+02  0.10570000000E+00 0. -1.
<mgrwt>
<rscale>  0 0.20014055E+02</rscale>
<asrwt>0</asrwt>
<pdfrwt beam="1">  1        4 0.42143292E-02 0.20014055E+02</pdfrwt>
<pdfrwt beam="2">  1       -4 0.56241256E-03 0.20014055E+02</pdfrwt>
<totfact> 0.12383635E+06</totfact>
</mgrwt>
</event>
<event>
 5    1  0.4710515E-007  0.2000173E+02  0.7818608E-02  0.1745294E+00
          4   -1    0    0  501    0  0.00000000000E+00  0.00000000000E+00  0.28482536556E+00  0.14482836355E+01  0.14200000000E+01 0.  1.
         -4   -1    0    0    0  501 -0.00000000000E+00 -0.00000000000E+00 -0.11424865584E+03  0.11425748011E+03  0.14200000000E+01 0.  1.
       1023    2    1    2    0    0  0.00000000000E+00  0.00000000000E+00 -0.11396383047E+03  0.11570576375E+03  0.20001727617E+02 0.  0.
        -13    1    3    3    0    0  0.99111120028E+01 -0.13319170484E+01 -0.57238036653E+02  0.58105147419E+02  0.10570000000E+00 0.  1.
         13    1    3    3    0    0 -0.99111120028E+01  0.13319170484E+01 -0.56725793821E+02  0.57600616327E+02  0.10570000000E+00 0. -1.
<mgrwt>
<rscale>  0 0.20001728E+02</rscale>
<asrwt>0</asrwt>
<pdfrwt beam="1">  1        4 0.13399496E-03 0.20001728E+02</pdfrwt>
<pdfrwt beam="2">  1       -4 0.17666880E-01 0.20001728E+02</pdfrwt>
<totfact> 0.93737204E+05</totfact>
</mgrwt>
</event>
<event>
 4    1  0.4710515E-007  0.2003363E+02  0.7818608E-02  0.1744660E+00
          4   -1    0    0  501    0  0.00000000000E+00  0.00000000000E+00  0.31800245177E+01  0.34826650618E+01  0.14200000000E+01 0. -1.
         -4   -1    0    0    0  501 -0.00000000000E+00 -0.00000000000E+00 -0.29798621440E+02  0.29832436034E+02  0.14200000000E+01 0.  1.
        -13    1    1    2    0    0 -0.93750519585E+00  0.99683137234E+01 -0.12841306958E+02  0.16283627708E+02  0.10570000000E+00 0.  1.
         13    1    1    2    0    0  0.93750519585E+00 -0.99683137234E+01 -0.13777289965E+02  0.17031473387E+02  0.10570000000E+00 0. -1.
<mgrwt>
<rscale>  0 0.20033628E+02</rscale>
<asrwt>0</asrwt>
<pdfrwt beam="1">  1        4 0.51511573E-03 0.20033628E+02</pdfrwt>
<pdfrwt beam="2">  1       -4 0.46102843E-02 0.20033628E+02</pdfrwt>
<totfact> 0.12244012E+06</totfact>
</mgrwt>
</event>
<event>
 5    1  0.4710515E-007  0.2000646E+02  0.7818608E-02  0.1745200E+00
         -4   -1    0    0    0  501 -0.00000000000E+00  0.00000000000E+00  0.35077926536E+02  0.35106656492E+02  0.14200000000E+01 0. -1.
          4   -1    0    0  501    0  0.00000000000E+00 -0.00000000000E+00 -0.26440768912E+01  0.30012568379E+01  0.14200000000E+01 0.  1.
       1023    2    1    2    0    0  0.00000000000E+00  0.00000000000E+00  0.32433849644E+02  0.38107913330E+02  0.20006460346E+02 0.  0.
        -13    1    3    3    0    0 -0.31446206267E+01  0.94947856694E+01  0.16441071537E+02  0.19244729138E+02  0.10570000000E+00 0.  1.
         13    1    3    3    0    0  0.31446206267E+01 -0.94947856694E+01  0.15992778107E+02  0.18863184192E+02  0.10570000000E+00 0. -1.
<mgrwt>
<rscale>  0 0.20006460E+02</rscale>
<asrwt>0</asrwt>
<pdfrwt beam="2">  1        4 0.43646642E-03 0.20006460E+02</pdfrwt>
<pdfrwt beam="1">  1       -4 0.54262897E-02 0.20006460E+02</pdfrwt>
<totfact> 0.12043721E+06</totfact>
</mgrwt>
</event>
<event>
 5    1  0.4710515E-007  0.2000393E+02  0.7818608E-02  0.1745250E+00
          4   -1    0    0  501    0  0.00000000000E+00  0.00000000000E+00  0.54862376504E+01  0.56670277533E+01  0.14200000000E+01 0.  1.
         -4   -1    0    0    0  501 -0.00000000000E+00 -0.00000000000E+00 -0.17729370863E+02  0.17786146047E+02  0.14200000000E+01 0. -1.
       1023    2    1    2    0    0  0.00000000000E+00  0.00000000000E+00 -0.12243133213E+02  0.23453173800E+02  0.20003925876E+02 0.  0.
        -13    1    3    3    0    0 -0.97430650489E+01 -0.22572396170E+01 -0.62096384380E+01  0.11772562561E+02  0.10570000000E+00 0. -1.
         13    1    3    3    0    0  0.97430650489E+01  0.22572396170E+01 -0.60334947749E+01  0.11680611239E+02  0.10570000000E+00 0.  1.
<mgrwt>
<rscale>  0 0.20003926E+02</rscale>
<asrwt>0</asrwt>
<pdfrwt beam="1">  1        4 0.86231082E-03 0.20003926E+02</pdfrwt>
<pdfrwt beam="2">  1       -4 0.27458697E-02 0.20003926E+02</pdfrwt>
<totfact> 0.12807603E+06</totfact>
</mgrwt>
</event>
<event>
 5    1  0.5302481E-007  0.2000160E+02  0.7818608E-02  0.1745296E+00
          4   -1    0    0  501    0  0.00000000000E+00  0.00000000000E+00  0.12763533539E+02  0.12842281277E+02  0.14200000000E+01 0. -1.
         -4   -1    0    0    0  501 -0.00000000000E+00 -0.00000000000E+00 -0.76678400691E+01  0.77982159065E+01  0.14200000000E+01 0.  1.
       1023    2    1    2    0    0  0.00000000000E+00  0.00000000000E+00  0.50956934701E+01  0.20640497184E+02  0.20001600737E+02 0.  0.
        -13    1    3    3    0    0  0.38635440386E+01  0.92236973723E+01  0.25110746921E+01  0.10311170368E+02  0.10570000000E+00 0. -1.
         13    1    3    3    0    0 -0.38635440386E+01 -0.92236973723E+01  0.25846187780E+01  0.10329326816E+02  0.10570000000E+00 0.  1.
<mgrwt>
<rscale>  0 0.20001601E+02</rscale>
<asrwt>0</asrwt>
<pdfrwt beam="1">  1        4 0.19797070E-02 0.20001601E+02</pdfrwt>
<pdfrwt beam="2">  1       -4 0.11957541E-02 0.20001601E+02</pdfrwt>
<totfact> 0.12973894E+06</totfact>
</mgrwt>
</event>
<event>
 4    1  0.4710515E-007  0.2006402E+02  0.7818608E-02  0.1744058E+00
         -4   -1    0    0    0  501 -0.00000000000E+00  0.00000000000E+00  0.21355435763E+02  0.21402594157E+02  0.14200000000E+01 0.  1.
          4   -1    0    0  501    0  0.00000000000E+00 -0.00000000000E+00 -0.45520294122E+01  0.47683720251E+01  0.14200000000E+01 0. -1.
        -13    1    1    2    0    0 -0.81393935573E+01  0.58614469139E+01  0.86028964106E+01  0.13214661802E+02  0.10570000000E+00 0.  1.
         13    1    1    2    0    0  0.81393935573E+01 -0.58614469139E+01  0.82005099404E+01  0.12956304380E+02  0.10570000000E+00 0. -1.
<mgrwt>
<rscale>  0 0.20064023E+02</rscale>
<asrwt>0</asrwt>
<pdfrwt beam="2">  1        4 0.72058154E-03 0.20064023E+02</pdfrwt>
<pdfrwt beam="1">  1       -4 0.33057209E-02 0.20064023E+02</pdfrwt>
<totfact> 0.12578643E+06</totfact>
</mgrwt>
</event>
<event>
 4    1  0.4710515E-007  0.2010925E+02  0.7818608E-02  0.1743164E+00
         -4   -1    0    0    0  501 -0.00000000000E+00  0.00000000000E+00  0.80200016758E+01  0.81447422845E+01  0.14200000000E+01 0. -1.
          4   -1    0    0  501    0  0.00000000000E+00 -0.00000000000E+00 -0.12342381112E+02  0.12423798595E+02  0.14200000000E+01 0.  1.
        -13    1    1    2    0    0  0.98693181528E+01  0.17045131820E+01 -0.30619272199E+01  0.10473556071E+02  0.10570000000E+00 0. -1.
         13    1    1    2    0    0 -0.98693181528E+01 -0.17045131820E+01 -0.12604522164E+01  0.10094984808E+02  0.10570000000E+00 0.  1.
<mgrwt>
<rscale>  0 0.20109249E+02</rscale>
<asrwt>0</asrwt>
<pdfrwt beam="2">  1        4 0.19146862E-02 0.20109249E+02</pdfrwt>
<pdfrwt beam="1">  1       -4 0.12497047E-02 0.20109249E+02</pdfrwt>
<totfact> 0.12836645E+06</totfact>
</mgrwt>
</event>
<event>
 5    1  0.4710515E-007  0.2000337E+02  0.7818608E-02  0.1745261E+00
         -4   -1    0    0    0  501 -0.00000000000E+00  0.00000000000E+00  0.16885184271E+02  0.16944788221E+02  0.14200000000E+01 0.  1.
          4   -1    0    0  501    0  0.00000000000E+00 -0.00000000000E+00 -0.57680428750E+01  0.59402625033E+01  0.14200000000E+01 0. -1.
       1023    2    1    2    0    0  0.00000000000E+00  0.00000000000E+00  0.11117141396E+02  0.22885050725E+02  0.20003367563E+02 0.  0.
        -13    1    3    3    0    0 -0.94806639977E+01  0.31818579119E+01  0.54170751211E+01  0.11373789385E+02  0.10570000000E+00 0. -1.
         13    1    3    3    0    0  0.94806639977E+01 -0.31818579119E+01  0.57000662748E+01  0.11511261340E+02  0.10570000000E+00 0.  1.
<mgrwt>
<rscale>  0 0.20003368E+02</rscale>
<asrwt>0</asrwt>
<pdfrwt beam="2">  1        4 0.90522379E-03 0.20003368E+02</pdfrwt>
<pdfrwt beam="1">  1       -4 0.26155532E-02 0.20003368E+02</pdfrwt>
<totfact> 0.12840753E+06</totfact>
</mgrwt>
</event>
<event>
 5    1  0.4710515E-007  0.2000270E+02  0.7818608E-02  0.1745274E+00
          4   -1    0    0  501    0  0.00000000000E+00  0.00000000000E+00  0.15503698719E+02  0.15568592549E+02  0.14200000000E+01 0.  1.
         -4   -1    0    0    0  501 -0.00000000000E+00 -0.00000000000E+00 -0.62941862676E+01  0.64523779160E+01  0.14200000000E+01 0. -1.
       1023    2    1    2    0    0  0.00000000000E+00  0.00000000000E+00  0.92095124514E+01  0.22020970465E+02  0.20002700334E+02 0.  0.
        -13    1    3    3    0    0 -0.86763121201E+01  0.49736522954E+01  0.46212150247E+01  0.11017368559E+02  0.10570000000E+00 0. -1.
         13    1    3    3    0    0  0.86763121201E+01 -0.49736522954E+01  0.45882974267E+01  0.11003601907E+02  0.10570000000E+00 0.  1.
<mgrwt>
<rscale>  0 0.20002700E+02</rscale>
<asrwt>0</asrwt>
<pdfrwt beam="1">  1        4 0.24023449E-02 0.20002700E+02</pdfrwt>
<pdfrwt beam="2">  1       -4 0.98549676E-03 0.20002700E+02</pdfrwt>
<totfact> 0.12891457E+06</totfact>
</mgrwt>
</event>
<event>
 5    1  0.4773256E-007  0.2000233E+02  0.7818608E-02  0.1745282E+00
          4   -1    0    0  501    0  0.00000000000E+00  0.00000000000E+00  0.97812877552E+01  0.98838246722E+01  0.14200000000E+01 0. -1.
         -4   -1    0    0    0  501 -0.00000000000E+00 -0.00000000000E+00 -0.10019803791E+02  0.10119924309E+02  0.14200000000E+01 0.  1.
       1023    2    1    2    0    0  0.00000000000E+00  0.00000000000E+00 -0.23851603603E+00  0.20003748981E+02  0.20002326949E+02 0.  0.
        -13    1    3    3    0    0  0.95611076166E+01 -0.29318407922E+01 -0.15962265510E+00  0.10002355781E+02  0.10570000000E+00 0. -1.
         13    1    3    3    0    0 -0.95611076166E+01  0.29318407922E+01 -0.78893380926E-01  0.10001393200E+02  0.10570000000E+00 0.  1.
<mgrwt>
<rscale>  0 0.20002327E+02</rscale>
<asrwt>0</asrwt>
<pdfrwt beam="1">  1        4 0.15204025E-02 0.20002327E+02</pdfrwt>
<pdfrwt beam="2">  1       -4 0.15570973E-02 0.20002327E+02</pdfrwt>
<totfact> 0.13010731E+06</totfact>
</mgrwt>
</event>
<event>
 5    1  0.4710515E-007  0.2000461E+02  0.7818608E-02  0.1745236E+00
          4   -1    0    0  501    0  0.00000000000E+00  0.00000000000E+00  0.20549210123E+02  0.20598214405E+02  0.14200000000E+01 0.  1.
         -4   -1    0    0    0  501 -0.00000000000E+00 -0.00000000000E+00 -0.47089621787E+01  0.49184067339E+01  0.14200000000E+01 0. -1.
       1023    2    1    2    0    0  0.00000000000E+00  0.00000000000E+00  0.15840247944E+02  0.25516621139E+02  0.20004611953E+02 0.  0.
        -13    1    3    3    0    0  0.82871376109E+01  0.55990782434E+01  0.78016609639E+01  0.12684770918E+02  0.10570000000E+00 0.  1.
         13    1    3    3    0    0 -0.82871376109E+01 -0.55990782434E+01  0.80385869800E+01  0.12831850221E+02  0.10570000000E+00 0. -1.
<mgrwt>
<rscale>  0 0.20004612E+02</rscale>
<asrwt>0</asrwt>
<pdfrwt beam="1">  1        4 0.31812976E-02 0.20004612E+02</pdfrwt>
<pdfrwt beam="2">  1       -4 0.74433641E-03 0.20004612E+02</pdfrwt>
<totfact> 0.12690906E+06</totfact>
</mgrwt>
</event>
<event>
 4    1  0.4710515E-007  0.2006229E+02  0.7818608E-02  0.1744092E+00
         -4   -1    0    0    0  501 -0.00000000000E+00  0.00000000000E+00  0.78528359871E+00  0.16226738213E+01  0.14200000000E+01 0.  1.
          4   -1    0    0  501    0  0.00000000000E+00 -0.00000000000E+00 -0.82730499789E+02  0.82742685449E+02  0.14200000000E+01 0. -1.
        -13    1    1    2    0    0  0.11346846497E+00 -0.10015924391E+02 -0.43201976074E+02  0.44348094950E+02  0.10570000000E+00 0. -1.
         13    1    1    2    0    0 -0.11346846497E+00  0.10015924391E+02 -0.38743240116E+02  0.40017264321E+02  0.10570000000E+00 0.  1.
<mgrwt>
<rscale>  0 0.20062288E+02</rscale>
<asrwt>0</asrwt>
<pdfrwt beam="2">  1        4 0.12793117E-01 0.20062288E+02</pdfrwt>
<pdfrwt beam="1">  1       -4 0.18616492E-03 0.20062288E+02</pdfrwt>
<totfact> 0.10207026E+06</totfact>
</mgrwt>
</event>
<event>
 4    1  0.4710515E-007  0.2002067E+02  0.7818608E-02  0.1744917E+00
         -4   -1    0    0    0  501 -0.00000000000E+00  0.00000000000E+00  0.29078782870E+01  0.32360710950E+01  0.14200000000E+01 0. -1.
          4   -1    0    0  501    0  0.00000000000E+00 -0.00000000000E+00 -0.32275030074E+02  0.32306252743E+02  0.14200000000E+01 0.  1.
        -13    1    1    2    0    0  0.24212144664E+01  0.97088006351E+01 -0.14205457364E+02  0.17376112358E+02  0.10570000000E+00 0.  1.
         13    1    1    2    0    0 -0.24212144664E+01 -0.97088006351E+01 -0.15161694423E+02  0.18166211480E+02  0.10570000000E+00 0. -1.
<mgrwt>
<rscale>  0 0.20020669E+02</rscale>
<asrwt>0</asrwt>
<pdfrwt beam="2">  1        4 0.49930363E-02 0.20020669E+02</pdfrwt>
<pdfrwt beam="1">  1       -4 0.47501326E-03 0.20020669E+02</pdfrwt>
<totfact> 0.12149882E+06</totfact>
</mgrwt>
</event>
<event>
 5    1  0.4710515E-007  0.2000523E+02  0.7818608E-02  0.1745224E+00
          4   -1    0    0  501    0  0.00000000000E+00  0.00000000000E+00  0.64153643473E+00  0.15581941461E+01  0.14200000000E+01 0. -1.
         -4   -1    0    0    0  501 -0.00000000000E+00 -0.00000000000E+00 -0.90043158882E+02  0.90054355038E+02  0.14200000000E+01 0.  1.
       1023    2    1    2    0    0  0.00000000000E+00  0.00000000000E+00 -0.89401622447E+02  0.91612549185E+02  0.20005226116E+02 0.  0.
        -13    1    3    3    0    0  0.88039265152E+01  0.47453376768E+01 -0.45237674966E+02  0.46330181961E+02  0.10570000000E+00 0. -1.
         13    1    3    3    0    0 -0.88039265152E+01 -0.47453376768E+01 -0.44163947481E+02  0.45282367224E+02  0.10570000000E+00 0.  1.
<mgrwt>
<rscale>  0 0.20005226E+02</rscale>
<asrwt>0</asrwt>
<pdfrwt beam="1">  1        4 0.17007136E-03 0.20005226E+02</pdfrwt>
<pdfrwt beam="2">  1       -4 0.13924161E-01 0.20005226E+02</pdfrwt>
<totfact> 0.10041621E+06</totfact>
</mgrwt>
</event>
<event>
 4    1  0.4710515E-007  0.2001298E+02  0.7818608E-02  0.1745070E+00
          4   -1    0    0  501    0  0.00000000000E+00  0.00000000000E+00  0.20596394942E+02  0.20645287225E+02  0.14200000000E+01 0.  1.
         -4   -1    0    0    0  501 -0.00000000000E+00 -0.00000000000E+00 -0.47018679887E+01  0.49116150687E+01  0.14200000000E+01 0. -1.
        -13    1    1    2    0    0 -0.34326712026E+01 -0.93951832863E+01  0.82751954650E+01  0.12982400897E+02  0.10570000000E+00 0.  1.
         13    1    1    2    0    0  0.34326712026E+01  0.93951832863E+01  0.76193314882E+01  0.12574501397E+02  0.10570000000E+00 0. -1.
<mgrwt>
<rscale>  0 0.20012977E+02</rscale>
<asrwt>0</asrwt>
<pdfrwt beam="1">  1        4 0.31885714E-02 0.20012977E+02</pdfrwt>
<pdfrwt beam="2">  1       -4 0.74325965E-03 0.20012977E+02</pdfrwt>
<totfact> 0.12677879E+06</totfact>
</mgrwt>
</event>
<event>
 5    1  0.5169271E-007  0.2000168E+02  0.7818608E-02  0.1745295E+00
         -4   -1    0    0    0  501 -0.00000000000E+00  0.00000000000E+00  0.41852076460E+01  0.44195433067E+01  0.14200000000E+01 0. -1.
          4   -1    0    0  501    0  0.00000000000E+00 -0.00000000000E+00 -0.22990044580E+02  0.23033856598E+02  0.14200000000E+01 0.  1.
       1023    2    1    2    0    0  0.00000000000E+00  0.00000000000E+00 -0.18804836934E+02  0.27453399905E+02  0.20001681785E+02 0.  0.
        -13    1    3    3    0    0 -0.89130982216E+01  0.45340977956E+01 -0.93125885708E+01  0.13665168901E+02  0.10570000000E+00 0. -1.
         13    1    3    3    0    0  0.89130982216E+01 -0.45340977956E+01 -0.94922483635E+01  0.13788231004E+02  0.10570000000E+00 0.  1.
<mgrwt>
<rscale>  0 0.20001682E+02</rscale>
<asrwt>0</asrwt>
<pdfrwt beam="2">  1        4 0.35583258E-02 0.20001682E+02</pdfrwt>
<pdfrwt beam="1">  1       -4 0.66527409E-03 0.20001682E+02</pdfrwt>
<totfact> 0.12588796E+06</totfact>
</mgrwt>
</event>
<event>
 5    1  0.4710515E-007  0.2001020E+02  0.7818608E-02  0.1745125E+00
          4   -1    0    0  501    0  0.00000000000E+00  0.00000000000E+00  0.11386031029E+01  0.18201145640E+01  0.14200000000E+01 0. -1.
         -4   -1    0    0    0  501 -0.00000000000E+00 -0.00000000000E+00 -0.66975062166E+02  0.66990113839E+02  0.14200000000E+01 0.  1.
       1023    2    1    2    0    0  0.00000000000E+00  0.00000000000E+00 -0.65836459063E+02  0.68810228403E+02  0.20010202170E+02 0.  0.
        -13    1    3    3    0    0 -0.92760540547E+01  0.37476745376E+01 -0.32831782787E+02  0.34322403423E+02  0.10570000000E+00 0.  1.
         13    1    3    3    0    0  0.92760540547E+01 -0.37476745376E+01 -0.33004676276E+02  0.34487824980E+02  0.10570000000E+00 0. -1.
<mgrwt>
<rscale>  0 0.20010202E+02</rscale>
<asrwt>0</asrwt>
<pdfrwt beam="1">  1        4 0.22875154E-03 0.20010202E+02</pdfrwt>
<pdfrwt beam="2">  1       -4 0.10357435E-01 0.20010202E+02</pdfrwt>
<totfact> 0.10781962E+06</totfact>
</mgrwt>
</event>
<event>
 5    1  0.4710515E-007  0.2000569E+02  0.7818608E-02  0.1745215E+00
          4   -1    0    0  501    0  0.00000000000E+00  0.00000000000E+00  0.88924217304E+01  0.90050854649E+01  0.14200000000E+01 0. -1.
         -4   -1    0    0    0  501 -0.00000000000E+00 -0.00000000000E+00 -0.11022607989E+02  0.11113698164E+02  0.14200000000E+01 0.  1.
       1023    2    1    2    0    0  0.00000000000E+00  0.00000000000E+00 -0.21301862590E+01  0.20118783629E+02  0.20005693220E+02 0.  0.
        -13    1    3    3    0    0  0.99638467855E+01  0.87437008563E+00 -0.11201934083E+01  0.10065225858E+02  0.10570000000E+00 0.  1.
         13    1    3    3    0    0 -0.99638467855E+01 -0.87437008563E+00 -0.10099928507E+01  0.10053557771E+02  0.10570000000E+00 0. -1.
<mgrwt>
<rscale>  0 0.20005693E+02</rscale>
<asrwt>0</asrwt>
<pdfrwt beam="1">  1        4 0.13837383E-02 0.20005693E+02</pdfrwt>
<pdfrwt beam="2">  1       -4 0.17114592E-02 0.20005693E+02</pdfrwt>
<totfact> 0.12999440E+06</totfact>
</mgrwt>
</event>
<event>
 5    1  0.4710515E-007  0.2000282E+02  0.7818608E-02  0.1745272E+00
         -4   -1    0    0    0  501 -0.00000000000E+00  0.00000000000E+00  0.10179824462E+02  0.10278386356E+02  0.14200000000E+01 0. -1.
          4   -1    0    0  501    0  0.00000000000E+00 -0.00000000000E+00 -0.96278897477E+01  0.97320430020E+01  0.14200000000E+01 0.  1.
       1023    2    1    2    0    0  0.00000000000E+00  0.00000000000E+00  0.55193471449E+00  0.20010429358E+02  0.20002816081E+02 0.  0.
        -13    1    3    3    0    0 -0.18237356748E+01  0.98331467829E+01  0.29021474551E+00  0.10005607655E+02  0.10570000000E+00 0.  1.
         13    1    3    3    0    0  0.18237356748E+01 -0.98331467829E+01  0.26171996898E+00  0.10004821702E+02  0.10570000000E+00 0. -1.
<mgrwt>
<rscale>  0 0.20002816E+02</rscale>
<asrwt>0</asrwt>
<pdfrwt beam="2">  1        4 0.14968073E-02 0.20002816E+02</pdfrwt>
<pdfrwt beam="1">  1       -4 0.15817203E-02 0.20002816E+02</pdfrwt>
<totfact> 0.13009685E+06</totfact>
</mgrwt>
</event>
<event>
 5    1  0.4710515E-007  0.2000136E+02  0.7818608E-02  0.1745301E+00
          4   -1    0    0  501    0  0.00000000000E+00  0.00000000000E+00  0.19220885111E+01  0.23897330906E+01  0.14200000000E+01 0. -1.
         -4   -1    0    0    0  501 -0.00000000000E+00 -0.00000000000E+00 -0.45910601194E+02  0.45932556014E+02  0.14200000000E+01 0.  1.
       1023    2    1    2    0    0  0.00000000000E+00  0.00000000000E+00 -0.43988512683E+02  0.48322289105E+02  0.20001359361E+02 0.  0.
        -13    1    3    3    0    0  0.98365133996E+01  0.18009446763E+01 -0.21885565689E+02  0.24062201803E+02  0.10570000000E+00 0. -1.
         13    1    3    3    0    0 -0.98365133996E+01 -0.18009446763E+01 -0.22102946994E+02  0.24260087302E+02  0.10570000000E+00 0.  1.
<mgrwt>
<rscale>  0 0.20001359E+02</rscale>
<asrwt>0</asrwt>
<pdfrwt beam="1">  1        4 0.33336745E-03 0.20001359E+02</pdfrwt>
<pdfrwt beam="2">  1       -4 0.71008302E-02 0.20001359E+02</pdfrwt>
<totfact> 0.11589768E+06</totfact>
</mgrwt>
</event>
<event>
 5    1  0.4710515E-007  0.2000182E+02  0.7818608E-02  0.1745292E+00
         -4   -1    0    0    0  501 -0.00000000000E+00  0.00000000000E+00  0.96245939636E+01  0.97287825016E+01  0.14200000000E+01 0. -1.
          4   -1    0    0  501    0  0.00000000000E+00 -0.00000000000E+00 -0.10182276555E+02  0.10280814940E+02  0.14200000000E+01 0.  1.
       1023    2    1    2    0    0  0.00000000000E+00  0.00000000000E+00 -0.55768259118E+00  0.20009597442E+02  0.20001824415E+02 0.  0.
        -13    1    3    3    0    0  0.94339015390E+01 -0.33179039239E+01 -0.26946790152E+00  0.10004537477E+02  0.10570000000E+00 0. -1.
         13    1    3    3    0    0 -0.94339015390E+01  0.33179039239E+01 -0.28821468965E+00  0.10005059965E+02  0.10570000000E+00 0.  1.
<mgrwt>
<rscale>  0 0.20001824E+02</rscale>
<asrwt>0</asrwt>
<pdfrwt beam="2">  1        4 0.15820985E-02 0.20001824E+02</pdfrwt>
<pdfrwt beam="1">  1       -4 0.14963011E-02 0.20001824E+02</pdfrwt>
<totfact> 0.13011051E+06</totfact>
</mgrwt>
</event>
<event>
 5    1  0.4710515E-007  0.2000189E+02  0.7818608E-02  0.1745290E+00
         -4   -1    0    0    0  501 -0.00000000000E+00  0.00000000000E+00  0.46273289551E+02  0.46295072372E+02  0.14200000000E+01 0.  1.
          4   -1    0    0  501    0  0.00000000000E+00 -0.00000000000E+00 -0.19034798219E+01  0.23747916609E+01  0.14200000000E+01 0. -1.
       1023    2    1    2    0    0  0.00000000000E+00  0.00000000000E+00  0.44369809729E+02  0.48669864032E+02  0.20001891149E+02 0.  0.
        -13    1    3    3    0    0  0.77291743038E+01  0.63454380398E+01  0.22318635974E+02  0.24456847784E+02  0.10570000000E+00 0. -1.
         13    1    3    3    0    0 -0.77291743038E+01 -0.63454380398E+01  0.22051173756E+02  0.24213016248E+02  0.10570000000E+00 0.  1.
<mgrwt>
<rscale>  0 0.20001891E+02</rscale>
<asrwt>0</asrwt>
<pdfrwt beam="2">  1        4 0.33077342E-03 0.20001891E+02</pdfrwt>
<pdfrwt beam="1">  1       -4 0.71568977E-02 0.20001891E+02</pdfrwt>
<totfact> 0.11574314E+06</totfact>
</mgrwt>
</event>
<event>
 5    1  0.4710515E-007  0.2000369E+02  0.7818608E-02  0.1745255E+00
         -4   -1    0    0    0  501 -0.00000000000E+00  0.00000000000E+00  0.20256507439E+02  0.20306218102E+02  0.14200000000E+01 0. -1.
          4   -1    0    0  501    0  0.00000000000E+00 -0.00000000000E+00 -0.47793761937E+01  0.49858636966E+01  0.14200000000E+01 0.  1.
       1023    2    1    2    0    0  0.00000000000E+00  0.00000000000E+00  0.15477131245E+02  0.25292081799E+02  0.20003694912E+02 0.  0.
        -13    1    3    3    0    0 -0.46442545511E+01  0.88575628497E+01  0.77181753834E+01  0.12633563381E+02  0.10570000000E+00 0.  1.
         13    1    3    3    0    0  0.46442545511E+01 -0.88575628497E+01  0.77589558616E+01  0.12658518417E+02  0.10570000000E+00 0. -1.
<mgrwt>
<rscale>  0 0.20003695E+02</rscale>
<asrwt>0</asrwt>
<pdfrwt beam="2">  1        4 0.75499621E-03 0.20003695E+02</pdfrwt>
<pdfrwt beam="1">  1       -4 0.31360933E-02 0.20003695E+02</pdfrwt>
<totfact> 0.12704548E+06</totfact>
</mgrwt>
</event>
<event>
 5    1  0.4710515E-007  0.2000601E+02  0.7818608E-02  0.1745209E+00
         -4   -1    0    0    0  501 -0.00000000000E+00  0.00000000000E+00  0.37651271212E+02  0.37678039013E+02  0.14200000000E+01 0.  1.
          4   -1    0    0  501    0  0.00000000000E+00 -0.00000000000E+00 -0.24380781499E+01  0.28214579680E+01  0.14200000000E+01 0. -1.
       1023    2    1    2    0    0  0.00000000000E+00  0.00000000000E+00  0.35213193062E+02  0.40499496981E+02  0.20006006350E+02 0.  0.
        -13    1    3    3    0    0 -0.10918803686E+01 -0.99426702531E+01  0.17601834826E+02  0.20245608320E+02  0.10570000000E+00 0. -1.
         13    1    3    3    0    0  0.10918803686E+01  0.99426702531E+01  0.17611358236E+02  0.20253888661E+02  0.10570000000E+00 0.  1.
<mgrwt>
<rscale>  0 0.20006006E+02</rscale>
<asrwt>0</asrwt>
<pdfrwt beam="2">  1        4 0.40663878E-03 0.20006006E+02</pdfrwt>
<pdfrwt beam="1">  1       -4 0.58240528E-02 0.20006006E+02</pdfrwt>
<totfact> 0.11932171E+06</totfact>
</mgrwt>
</event>
<event>
 5    1  0.4710515E-007  0.2000301E+02  0.7818608E-02  0.1745268E+00
          4   -1    0    0  501    0  0.00000000000E+00  0.00000000000E+00  0.12561109735E+01  0.18958414432E+01  0.14200000000E+01 0. -1.
         -4   -1    0    0    0  501 -0.00000000000E+00 -0.00000000000E+00 -0.62822468258E+02  0.62838514607E+02  0.14200000000E+01 0.  1.
       1023    2    1    2    0    0  0.00000000000E+00  0.00000000000E+00 -0.61566357284E+02  0.64734356050E+02  0.20003012372E+02 0.  0.
        -13    1    3    3    0    0  0.30568811011E+01  0.95216440592E+01 -0.31148254220E+02  0.32714387372E+02  0.10570000000E+00 0. -1.
         13    1    3    3    0    0 -0.30568811011E+01 -0.95216440592E+01 -0.30418103064E+02  0.32019968678E+02  0.10570000000E+00 0.  1.
<mgrwt>
<rscale>  0 0.20003012E+02</rscale>
<asrwt>0</asrwt>
<pdfrwt beam="1">  1        4 0.24369226E-03 0.20003012E+02</pdfrwt>
<pdfrwt beam="2">  1       -4 0.97154375E-02 0.20003012E+02</pdfrwt>
<totfact> 0.10937438E+06</totfact>
</mgrwt>
</event>
<event>
 5    1  0.4710515E-007  0.2000203E+02  0.7818608E-02  0.1745288E+00
          4   -1    0    0  501    0  0.00000000000E+00  0.00000000000E+00  0.18484785425E+01  0.23309382064E+01  0.14200000000E+01 0.  1.
         -4   -1    0    0    0  501 -0.00000000000E+00 -0.00000000000E+00 -0.47368940011E+02  0.47390219220E+02  0.14200000000E+01 0. -1.
       1023    2    1    2    0    0  0.00000000000E+00  0.00000000000E+00 -0.45520461468E+02  0.49721157427E+02  0.20002026986E+02 0.  0.
        -13    1    3    3    0    0  0.14026942654E+01  0.99015470768E+01 -0.22685132835E+02  0.24791825467E+02  0.10570000000E+00 0.  1.
         13    1    3    3    0    0 -0.14026942654E+01 -0.99015470768E+01 -0.22835328633E+02  0.24929331960E+02  0.10570000000E+00 0. -1.
<mgrwt>
<rscale>  0 0.20002027E+02</rscale>
<asrwt>0</asrwt>
<pdfrwt beam="1">  1        4 0.32313049E-03 0.20002027E+02</pdfrwt>
<pdfrwt beam="2">  1       -4 0.73262776E-02 0.20002027E+02</pdfrwt>
<totfact> 0.11529602E+06</totfact>
</mgrwt>
</event>
<event>
 4    1  0.4710515E-007  0.2001552E+02  0.7818608E-02  0.1745020E+00
         -4   -1    0    0    0  501 -0.00000000000E+00  0.00000000000E+00  0.19246935080E+02  0.19299246358E+02  0.14200000000E+01 0.  1.
          4   -1    0    0  501    0  0.00000000000E+00 -0.00000000000E+00 -0.50461995117E+01  0.52421874740E+01  0.14200000000E+01 0. -1.
        -13    1    1    2    0    0 -0.98926485649E+01 -0.14865379240E+01  0.74243231161E+01  0.12458171489E+02  0.10570000000E+00 0. -1.
         13    1    1    2    0    0  0.98926485649E+01  0.14865379240E+01  0.67764124522E+01  0.12083262343E+02  0.10570000000E+00 0.  1.
<mgrwt>
<rscale>  0 0.20015521E+02</rscale>
<asrwt>0</asrwt>
<pdfrwt beam="2">  1        4 0.79543834E-03 0.20015521E+02</pdfrwt>
<pdfrwt beam="1">  1       -4 0.29801668E-02 0.20015521E+02</pdfrwt>
<totfact> 0.12731139E+06</totfact>
</mgrwt>
</event>
<event>
 5    1  0.4710515E-007  0.2000343E+02  0.7818608E-02  0.1745260E+00
         -4   -1    0    0    0  501 -0.00000000000E+00  0.00000000000E+00  0.90798596355E+00  0.16854787183E+01  0.14200000000E+01 0. -1.
          4   -1    0    0  501    0  0.00000000000E+00 -0.00000000000E+00 -0.76357276217E+02  0.76370478794E+02  0.14200000000E+01 0.  1.
       1023    2    1    2    0    0  0.00000000000E+00  0.00000000000E+00 -0.75449290253E+02  0.78055957512E+02  0.20003427293E+02 0.  0.
        -13    1    3    3    0    0 -0.90522642334E+01  0.42516042042E+01 -0.37494541270E+02  0.38805559184E+02  0.10570000000E+00 0. -1.
         13    1    3    3    0    0  0.90522642334E+01 -0.42516042042E+01 -0.37954748984E+02  0.39250398329E+02  0.10570000000E+00 0.  1.
<mgrwt>
<rscale>  0 0.20003427E+02</rscale>
<asrwt>0</asrwt>
<pdfrwt beam="2">  1        4 0.11808092E-01 0.20003427E+02</pdfrwt>
<pdfrwt beam="1">  1       -4 0.20051293E-03 0.20003427E+02</pdfrwt>
<totfact> 0.10471574E+06</totfact>
</mgrwt>
</event>
<event>
 5    1  0.4710515E-007  0.2000265E+02  0.7818608E-02  0.1745275E+00
         -4   -1    0    0    0  501 -0.00000000000E+00  0.00000000000E+00  0.20199666661E+02  0.20249516864E+02  0.14200000000E+01 0. -1.
          4   -1    0    0  501    0  0.00000000000E+00 -0.00000000000E+00 -0.47928449704E+01  0.49987761412E+01  0.14200000000E+01 0.  1.
       1023    2    1    2    0    0  0.00000000000E+00  0.00000000000E+00  0.15406821691E+02  0.25248293005E+02  0.20002653451E+02 0.  0.
        -13    1    3    3    0    0  0.16106690534E+01  0.98696973801E+01  0.78307828015E+01  0.12701870451E+02  0.10570000000E+00 0.  1.
         13    1    3    3    0    0 -0.16106690534E+01 -0.98696973801E+01  0.75760388894E+01  0.12546422555E+02  0.10570000000E+00 0. -1.
<mgrwt>
<rscale>  0 0.20002653E+02</rscale>
<asrwt>0</asrwt>
<pdfrwt beam="2">  1        4 0.75703628E-03 0.20002653E+02</pdfrwt>
<pdfrwt beam="1">  1       -4 0.31273164E-02 0.20002653E+02</pdfrwt>
<totfact> 0.12708329E+06</totfact>
</mgrwt>
</event>
<event>
 4    1  0.4710515E-007  0.2001298E+02  0.7818608E-02  0.1745070E+00
          4   -1    0    0  501    0  0.00000000000E+00  0.00000000000E+00  0.92671910837E+01  0.93753522911E+01  0.14200000000E+01 0.  1.
         -4   -1    0    0    0  501 -0.00000000000E+00 -0.00000000000E+00 -0.10586236990E+02  0.10681049275E+02  0.14200000000E+01 0. -1.
        -13    1    1    2    0    0 -0.70940517501E+01  0.70556533199E+01 -0.76393115856E+00  0.10035067379E+02  0.10570000000E+00 0.  1.
         13    1    1    2    0    0  0.70940517501E+01 -0.70556533199E+01 -0.55511474797E+00  0.10021334187E+02  0.10570000000E+00 0. -1.
<mgrwt>
<rscale>  0 0.20012980E+02</rscale>
<asrwt>0</asrwt>
<pdfrwt beam="1">  1        4 0.14413351E-02 0.20012980E+02</pdfrwt>
<pdfrwt beam="2">  1       -4 0.16442652E-02 0.20012980E+02</pdfrwt>
<totfact> 0.12993471E+06</totfact>
</mgrwt>
</event>
<event>
 5    1  0.4710515E-007  0.2000144E+02  0.7818608E-02  0.1745300E+00
          4   -1    0    0  501    0  0.00000000000E+00  0.00000000000E+00  0.43340572546E+01  0.45607512853E+01  0.14200000000E+01 0.  1.
         -4   -1    0    0    0  501 -0.00000000000E+00 -0.00000000000E+00 -0.22238340185E+02  0.22283630184E+02  0.14200000000E+01 0. -1.
       1023    2    1    2    0    0  0.00000000000E+00  0.00000000000E+00 -0.17904282931E+02  0.26844381470E+02  0.20001436679E+02 0.  0.
        -13    1    3    3    0    0  0.46289766305E+01 -0.88642943082E+01 -0.89622376721E+01  0.13428924559E+02  0.10570000000E+00 0. -1.
         13    1    3    3    0    0 -0.46289766305E+01  0.88642943082E+01 -0.89420452587E+01  0.13415456911E+02  0.10570000000E+00 0.  1.
<mgrwt>
<rscale>  0 0.20001437E+02</rscale>
<asrwt>0</asrwt>
<pdfrwt beam="1">  1        4 0.68769990E-03 0.20001437E+02</pdfrwt>
<pdfrwt beam="2">  1       -4 0.34422049E-02 0.20001437E+02</pdfrwt>
<totfact> 0.12622110E+06</totfact>
</mgrwt>
</event>
<event>
 5    1  0.4710515E-007  0.2000337E+02  0.7818608E-02  0.1745261E+00
          4   -1    0    0  501    0  0.00000000000E+00  0.00000000000E+00  0.21169059638E+02  0.21216632295E+02  0.14200000000E+01 0. -1.
         -4   -1    0    0    0  501 -0.00000000000E+00 -0.00000000000E+00 -0.45645821833E+01  0.47803567344E+01  0.14200000000E+01 0.  1.
       1023    2    1    2    0    0  0.00000000000E+00  0.00000000000E+00  0.16604477455E+02  0.25996989030E+02  0.20003368893E+02 0.  0.
        -13    1    3    3    0    0  0.95727698921E+01  0.28939038438E+01  0.81728199566E+01  0.12915833748E+02  0.10570000000E+00 0.  1.
         13    1    3    3    0    0 -0.95727698921E+01 -0.28939038438E+01  0.84316574981E+01  0.13081155282E+02  0.10570000000E+00 0. -1.
<mgrwt>
<rscale>  0 0.20003369E+02</rscale>
<asrwt>0</asrwt>
<pdfrwt beam="1">  1        4 0.32770358E-02 0.20003369E+02</pdfrwt>
<pdfrwt beam="2">  1       -4 0.72250090E-03 0.20003369E+02</pdfrwt>
<totfact> 0.12665991E+06</totfact>
</mgrwt>
</event>
<event>
 4    1  0.4710515E-007  0.2004214E+02  0.7818608E-02  0.1744491E+00
          4   -1    0    0  501    0  0.00000000000E+00  0.00000000000E+00  0.31016311136E+00  0.14534789836E+01  0.14200000000E+01 0.  1.
         -4   -1    0    0    0  501 -0.00000000000E+00 -0.00000000000E+00 -0.11272936186E+03  0.11273830504E+03  0.14200000000E+01 0. -1.
        -13    1    1    2    0    0  0.58907240248E+01  0.80993601599E+01 -0.58102589660E+02  0.58959497643E+02  0.10570000000E+00 0. -1.
         13    1    1    2    0    0 -0.58907240248E+01 -0.80993601599E+01 -0.54316609084E+02  0.55232286386E+02  0.10570000000E+00 0.  1.
<mgrwt>
<rscale>  0 0.20042138E+02</rscale>
<asrwt>0</asrwt>
<pdfrwt beam="1">  1        4 0.13635280E-03 0.20042138E+02</pdfrwt>
<pdfrwt beam="2">  1       -4 0.17431603E-01 0.20042138E+02</pdfrwt>
<totfact> 0.93752513E+05</totfact>
</mgrwt>
</event>
<event>
 4    1  0.4710515E-007  0.2012705E+02  0.7818608E-02  0.1742813E+00
         -4   -1    0    0    0  501 -0.00000000000E+00  0.00000000000E+00  0.10819431533E+02  0.10912217864E+02  0.14200000000E+01 0. -1.
          4   -1    0    0  501    0  0.00000000000E+00 -0.00000000000E+00 -0.91728191362E+01  0.92820800958E+01  0.14200000000E+01 0.  1.
        -13    1    1    2    0    0 -0.47674643781E+01 -0.88215499087E+01 -0.25067384338E-01  0.10027973886E+02  0.10570000000E+00 0. -1.
         13    1    1    2    0    0  0.47674643781E+01  0.88215499087E+01  0.16716797814E+01  0.10166324074E+02  0.10570000000E+00 0.  1.
<mgrwt>
<rscale>  0 0.20127055E+02</rscale>
<asrwt>0</asrwt>
<pdfrwt beam="2">  1        4 0.14267450E-02 0.20127055E+02</pdfrwt>
<pdfrwt beam="1">  1       -4 0.16800700E-02 0.20127055E+02</pdfrwt>
<totfact> 0.12835342E+06</totfact>
</mgrwt>
</event>
<event>
 4    1  0.5734803E-007  0.2187965E+02  0.7818608E-02  0.1710342E+00
         -4   -1    0    0    0  501 -0.00000000000E+00  0.00000000000E+00  0.91295120446E+02  0.91306163085E+02  0.14200000000E+01 0. -1.
          4   -1    0    0  501    0  0.00000000000E+00 -0.00000000000E+00 -0.91192616833E+00  0.16876046150E+01  0.14200000000E+01 0.  1.
        -13    1    1    2    0    0  0.93249131173E+01 -0.52845878536E+01  0.54491478607E+02  0.55535693808E+02  0.10570000000E+00 0. -1.
         13    1    1    2    0    0 -0.93249131173E+01  0.52845878536E+01  0.35891715670E+02  0.37458073892E+02  0.10570000000E+00 0.  1.
<mgrwt>
<rscale>  0 0.21879649E+02</rscale>
<asrwt>0</asrwt>
<pdfrwt beam="2">  1        4 0.20081329E-03 0.21879649E+02</pdfrwt>
<pdfrwt beam="1">  1       -4 0.14105924E-01 0.21879649E+02</pdfrwt>
<totfact> 0.83377451E+05</totfact>
</mgrwt>
</event>
<event>
 4    1  0.4710515E-007  0.2003959E+02  0.7818608E-02  0.1744542E+00
          4   -1    0    0  501    0  0.00000000000E+00  0.00000000000E+00  0.33359261966E+02  0.33389470779E+02  0.14200000000E+01 0. -1.
         -4   -1    0    0    0  501 -0.00000000000E+00 -0.00000000000E+00 -0.28086212481E+01  0.31471818053E+01  0.14200000000E+01 0.  1.
        -13    1    1    2    0    0 -0.28495635977E+01 -0.96034429113E+01  0.14915112571E+02  0.17967133437E+02  0.10570000000E+00 0. -1.
         13    1    1    2    0    0  0.28495635977E+01  0.96034429113E+01  0.15635528147E+02  0.18569519148E+02  0.10570000000E+00 0.  1.
<mgrwt>
<rscale>  0 0.20039594E+02</rscale>
<asrwt>0</asrwt>
<pdfrwt beam="1">  1        4 0.51605616E-02 0.20039594E+02</pdfrwt>
<pdfrwt beam="2">  1       -4 0.46046240E-03 0.20039594E+02</pdfrwt>
<totfact> 0.12078437E+06</totfact>
</mgrwt>
</event>
<event>
 5    1  0.4710515E-007  0.2000231E+02  0.7818608E-02  0.1745282E+00
          4   -1    0    0  501    0  0.00000000000E+00  0.00000000000E+00  0.38242813444E+02  0.38269167486E+02  0.14200000000E+01 0.  1.
         -4   -1    0    0    0  501 -0.00000000000E+00 -0.00000000000E+00 -0.23933813402E+01  0.27829254822E+01  0.14200000000E+01 0. -1.
       1023    2    1    2    0    0  0.00000000000E+00  0.00000000000E+00  0.35849432103E+02  0.41052092968E+02  0.20002313740E+02 0.  0.
        -13    1    3    3    0    0 -0.22118871900E+01 -0.97528759004E+01  0.17862027174E+02  0.20471302365E+02  0.10570000000E+00 0.  1.
         13    1    3    3    0    0  0.22118871900E+01  0.97528759004E+01  0.17987404930E+02  0.20580790603E+02  0.10570000000E+00 0. -1.
<mgrwt>
<rscale>  0 0.20002314E+02</rscale>
<asrwt>0</asrwt>
<pdfrwt beam="1">  1        4 0.59155022E-02 0.20002314E+02</pdfrwt>
<pdfrwt beam="2">  1       -4 0.40020466E-03 0.20002314E+02</pdfrwt>
<totfact> 0.11911132E+06</totfact>
</mgrwt>
</event>
<event>
 5    1  0.4710515E-007  0.2000192E+02  0.7818608E-02  0.1745290E+00
         -4   -1    0    0    0  501 -0.00000000000E+00  0.00000000000E+00  0.10292430149E+03  0.10293409657E+03  0.14200000000E+01 0.  1.
          4   -1    0    0  501    0  0.00000000000E+00 -0.00000000000E+00 -0.43784491498E+00  0.14859704471E+01  0.14200000000E+01 0. -1.
       1023    2    1    2    0    0  0.00000000000E+00  0.00000000000E+00  0.10248645657E+03  0.10442006702E+03  0.20001915285E+02 0.  0.
        -13    1    3    3    0    0 -0.26700680639E+01  0.96369950694E+01  0.50805083963E+02  0.51780002573E+02  0.10570000000E+00 0.  1.
         13    1    3    3    0    0  0.26700680639E+01 -0.96369950694E+01  0.51681372608E+02  0.52640064443E+02  0.10570000000E+00 0. -1.
<mgrwt>
<rscale>  0 0.20001915E+02</rscale>
<asrwt>0</asrwt>
<pdfrwt beam="2">  1        4 0.14873924E-03 0.20001915E+02</pdfrwt>
<pdfrwt beam="1">  1       -4 0.15915890E-01 0.20001915E+02</pdfrwt>
<totfact> 0.96753232E+05</totfact>
</mgrwt>
</event>
<event>
 4    1  0.5538389E-007  0.2088354E+02  0.7818608E-02  0.1728308E+00
          4   -1    0    0  501    0  0.00000000000E+00  0.00000000000E+00  0.48094671349E+02  0.48115629604E+02  0.14200000000E+01 0.  1.
         -4   -1    0    0    0  501 -0.00000000000E+00 -0.00000000000E+00 -0.20210036229E+01  0.24699910210E+01  0.14200000000E+01 0. -1.
        -13    1    1    2    0    0 -0.88760921969E+01 -0.52020785562E+01  0.27351425941E+02  0.29222565040E+02  0.10570000000E+00 0.  1.
         13    1    1    2    0    0  0.88760921969E+01  0.52020785562E+01  0.18722241785E+02  0.21363055586E+02  0.10570000000E+00 0. -1.
<mgrwt>
<rscale>  0 0.20883538E+02</rscale>
<asrwt>0</asrwt>
<pdfrwt beam="1">  1        4 0.74353296E-02 0.20883538E+02</pdfrwt>
<pdfrwt beam="2">  1       -4 0.34707331E-03 0.20883538E+02</pdfrwt>
<totfact> 0.10527002E+06</totfact>
</mgrwt>
</event>
<event>
 5    1  0.4710515E-007  0.2000351E+02  0.7818608E-02  0.1745258E+00
         -4   -1    0    0    0  501 -0.00000000000E+00  0.00000000000E+00  0.25636443292E+01  0.29306436574E+01  0.14200000000E+01 0.  1.
          4   -1    0    0  501    0  0.00000000000E+00 -0.00000000000E+00 -0.36032317025E+02  0.36060286607E+02  0.14200000000E+01 0. -1.
       1023    2    1    2    0    0  0.00000000000E+00  0.00000000000E+00 -0.33468672695E+02  0.38990930264E+02  0.20003514463E+02 0.  0.
        -13    1    3    3    0    0  0.76276883521E+01  0.64677461993E+01 -0.16935063990E+02  0.19667763862E+02  0.10570000000E+00 0.  1.
         13    1    3    3    0    0 -0.76276883521E+01 -0.64677461993E+01 -0.16533608706E+02  0.19323166402E+02  0.10570000000E+00 0. -1.
<mgrwt>
<rscale>  0 0.20003514E+02</rscale>
<asrwt>0</asrwt>
<pdfrwt beam="2">  1        4 0.55738153E-02 0.20003514E+02</pdfrwt>
<pdfrwt beam="1">  1       -4 0.42478907E-03 0.20003514E+02</pdfrwt>
<totfact> 0.12005565E+06</totfact>
</mgrwt>
</event>
<event>
 5    1  0.4710515E-007  0.2000729E+02  0.7818608E-02  0.1745183E+00
          4   -1    0    0  501    0  0.00000000000E+00  0.00000000000E+00  0.34682759295E+01  0.37477110245E+01  0.14200000000E+01 0.  1.
         -4   -1    0    0    0  501 -0.00000000000E+00 -0.00000000000E+00 -0.27437928896E+02  0.27474649080E+02  0.14200000000E+01 0. -1.
       1023    2    1    2    0    0  0.00000000000E+00  0.00000000000E+00 -0.23969652966E+02  0.31222360105E+02  0.20007286353E+02 0.  0.
        -13    1    3    3    0    0 -0.88192975426E+01  0.47201902161E+01 -0.12045256005E+02  0.15657572274E+02  0.10570000000E+00 0. -1.
         13    1    3    3    0    0  0.88192975426E+01 -0.47201902161E+01 -0.11924396962E+02  0.15564787831E+02  0.10570000000E+00 0.  1.
<mgrwt>
<rscale>  0 0.20007286E+02</rscale>
<asrwt>0</asrwt>
<pdfrwt beam="1">  1        4 0.55790057E-03 0.20007286E+02</pdfrwt>
<pdfrwt beam="2">  1       -4 0.42455393E-02 0.20007286E+02</pdfrwt>
<totfact> 0.12383206E+06</totfact>
</mgrwt>
</event>
<event>
 5    1  0.4710515E-007  0.2000291E+02  0.7818608E-02  0.1745270E+00
         -4   -1    0    0    0  501 -0.00000000000E+00  0.00000000000E+00  0.33096790778E+02  0.33127238940E+02  0.14200000000E+01 0. -1.
          4   -1    0    0  501    0  0.00000000000E+00 -0.00000000000E+00 -0.28218316986E+01  0.31589767544E+01  0.14200000000E+01 0.  1.
       1023    2    1    2    0    0  0.00000000000E+00  0.00000000000E+00  0.30274959079E+02  0.36286215694E+02  0.20002907343E+02 0.  0.
        -13    1    3    3    0    0 -0.88868641566E+01  0.45855153064E+01  0.15356655853E+02  0.18325974916E+02  0.10570000000E+00 0.  1.
         13    1    3    3    0    0  0.88868641566E+01 -0.45855153064E+01  0.14918303226E+02  0.17960240778E+02  0.10570000000E+00 0. -1.
<mgrwt>
<rscale>  0 0.20002907E+02</rscale>
<asrwt>0</asrwt>
<pdfrwt beam="2">  1        4 0.46240437E-03 0.20002907E+02</pdfrwt>
<pdfrwt beam="1">  1       -4 0.51200902E-02 0.20002907E+02</pdfrwt>
<totfact> 0.12135520E+06</totfact>
</mgrwt>
</event>
<event>
 5    1  0.4875394E-007  0.2000308E+02  0.7818608E-02  0.1745267E+00
         -4   -1    0    0    0  501 -0.00000000000E+00  0.00000000000E+00  0.19465067852E+01  0.24094166648E+01  0.14200000000E+01 0.  1.
          4   -1    0    0  501    0  0.00000000000E+00 -0.00000000000E+00 -0.45453459171E+02  0.45475634691E+02  0.14200000000E+01 0. -1.
       1023    2    1    2    0    0  0.00000000000E+00  0.00000000000E+00 -0.43506952385E+02  0.47885051356E+02  0.20003080700E+02 0.  0.
        -13    1    3    3    0    0  0.21835506141E+01 -0.97590326793E+01 -0.22026680815E+02  0.24190751380E+02  0.10570000000E+00 0.  1.
         13    1    3    3    0    0 -0.21835506141E+01  0.97590326793E+01 -0.21480271571E+02  0.23694299976E+02  0.10570000000E+00 0. -1.
<mgrwt>
<rscale>  0 0.20003081E+02</rscale>
<asrwt>0</asrwt>
<pdfrwt beam="2">  1        4 0.70301534E-02 0.20003081E+02</pdfrwt>
<pdfrwt beam="1">  1       -4 0.33677688E-03 0.20003081E+02</pdfrwt>
<totfact> 0.11606484E+06</totfact>
</mgrwt>
</event>
<event>
 5    1  0.4710515E-007  0.2000806E+02  0.7818608E-02  0.1745168E+00
          4   -1    0    0  501    0  0.00000000000E+00  0.00000000000E+00  0.57718525126E+01  0.59439617619E+01  0.14200000000E+01 0. -1.
         -4   -1    0    0    0  501 -0.00000000000E+00 -0.00000000000E+00 -0.16882351153E+02  0.16941965071E+02  0.14200000000E+01 0.  1.
       1023    2    1    2    0    0  0.00000000000E+00  0.00000000000E+00 -0.11110498641E+02  0.22885926833E+02  0.20008060050E+02 0.  0.
        -13    1    3    3    0    0  0.97969946404E+01 -0.20062814268E+01 -0.58427484204E+01  0.11582536455E+02  0.10570000000E+00 0. -1.
         13    1    3    3    0    0 -0.97969946404E+01  0.20062814268E+01 -0.52677502204E+01  0.11303390377E+02  0.10570000000E+00 0.  1.
<mgrwt>
<rscale>  0 0.20008060E+02</rscale>
<asrwt>0</asrwt>
<pdfrwt beam="1">  1        4 0.90580217E-03 0.20008060E+02</pdfrwt>
<pdfrwt beam="2">  1       -4 0.26151096E-02 0.20008060E+02</pdfrwt>
<totfact> 0.12834564E+06</totfact>
</mgrwt>
</event>
<event>
 5    1  0.5046764E-007  0.2000156E+02  0.7818608E-02  0.1745297E+00
          4   -1    0    0  501    0  0.00000000000E+00  0.00000000000E+00  0.42483968514E+01  0.44794280669E+01  0.14200000000E+01 0.  1.
         -4   -1    0    0    0  501 -0.00000000000E+00 -0.00000000000E+00 -0.22664960570E+02  0.22709399763E+02  0.14200000000E+01 0. -1.
       1023    2    1    2    0    0  0.00000000000E+00  0.00000000000E+00 -0.18416563718E+02  0.27188827830E+02  0.20001563429E+02 0.  0.
        -13    1    3    3    0    0 -0.76523441586E+01 -0.64377997457E+01 -0.91692207882E+01  0.13567955595E+02  0.10570000000E+00 0. -1.
         13    1    3    3    0    0  0.76523441586E+01  0.64377997457E+01 -0.92473429299E+01  0.13620872235E+02  0.10570000000E+00 0.  1.
<mgrwt>
<rscale>  0 0.20001563E+02</rscale>
<asrwt>0</asrwt>
<pdfrwt beam="1">  1        4 0.67478956E-03 0.20001563E+02</pdfrwt>
<pdfrwt beam="2">  1       -4 0.35081070E-02 0.20001563E+02</pdfrwt>
<totfact> 0.12603250E+06</totfact>
</mgrwt>
</event>
<event>
 5    1  0.4710515E-007  0.2000148E+02  0.7818608E-02  0.1745299E+00
         -4   -1    0    0    0  501 -0.00000000000E+00  0.00000000000E+00  0.17776626708E+02  0.17833251446E+02  0.14200000000E+01 0.  1.
          4   -1    0    0  501    0  0.00000000000E+00 -0.00000000000E+00 -0.54698236897E+01  0.56511389291E+01  0.14200000000E+01 0. -1.
       1023    2    1    2    0    0  0.00000000000E+00  0.00000000000E+00  0.12306803019E+02  0.23484390375E+02  0.20001479714E+02 0.  0.
        -13    1    3    3    0    0  0.10167792765E+01  0.99483267452E+01  0.61816800269E+01  0.11757014314E+02  0.10570000000E+00 0. -1.
         13    1    3    3    0    0 -0.10167792765E+01 -0.99483267452E+01  0.61251229919E+01  0.11727376061E+02  0.10570000000E+00 0.  1.
<mgrwt>
<rscale>  0 0.20001480E+02</rscale>
<asrwt>0</asrwt>
<pdfrwt beam="2">  1        4 0.85981442E-03 0.20001480E+02</pdfrwt>
<pdfrwt beam="1">  1       -4 0.27531687E-02 0.20001480E+02</pdfrwt>
<totfact> 0.12809021E+06</totfact>
</mgrwt>
</event>
<event>
 4    1  0.4710515E-007  0.2003141E+02  0.7818608E-02  0.1744704E+00
         -4   -1    0    0    0  501 -0.00000000000E+00  0.00000000000E+00  0.33224718796E+01  0.36132007128E+01  0.14200000000E+01 0.  1.
          4   -1    0    0  501    0  0.00000000000E+00 -0.00000000000E+00 -0.28617985934E+02  0.28653193870E+02  0.14200000000E+01 0. -1.
        -13    1    1    2    0    0 -0.88647303376E+01  0.46556279477E+01 -0.12306782795E+02  0.15865887646E+02  0.10570000000E+00 0.  1.
         13    1    1    2    0    0  0.88647303376E+01 -0.46556279477E+01 -0.12988731259E+02  0.16400506936E+02  0.10570000000E+00 0. -1.
<mgrwt>
<rscale>  0 0.20031405E+02</rscale>
<asrwt>0</asrwt>
<pdfrwt beam="2">  1        4 0.44278390E-02 0.20031405E+02</pdfrwt>
<pdfrwt beam="1">  1       -4 0.53622160E-03 0.20031405E+02</pdfrwt>
<totfact> 0.12299634E+06</totfact>
</mgrwt>
</event>
<event>
 5    1  0.4710515E-007  0.2000576E+02  0.7818608E-02  0.1745213E+00
         -4   -1    0    0    0  501 -0.00000000000E+00  0.00000000000E+00  0.38010308240E+02  0.38036823375E+02  0.14200000000E+01 0.  1.
          4   -1    0    0  501    0  0.00000000000E+00 -0.00000000000E+00 -0.24113603075E+01  0.27984028539E+01  0.14200000000E+01 0. -1.
       1023    2    1    2    0    0  0.00000000000E+00  0.00000000000E+00  0.35598947932E+02  0.40835226229E+02  0.20005764352E+02 0.  0.
        -13    1    3    3    0    0  0.26463968146E+01  0.96456345728E+01  0.17658102656E+02  0.20294369769E+02  0.10570000000E+00 0. -1.
         13    1    3    3    0    0 -0.26463968146E+01 -0.96456345728E+01  0.17940845277E+02  0.20540856461E+02  0.10570000000E+00 0.  1.
<mgrwt>
<rscale>  0 0.20005764E+02</rscale>
<asrwt>0</asrwt>
<pdfrwt beam="2">  1        4 0.40279067E-03 0.20005764E+02</pdfrwt>
<pdfrwt beam="1">  1       -4 0.58795514E-02 0.20005764E+02</pdfrwt>
<totfact> 0.11916960E+06</totfact>
</mgrwt>
</event>
<event>
 5    1  0.4710515E-007  0.2000122E+02  0.7818608E-02  0.1745304E+00
         -4   -1    0    0    0  501 -0.00000000000E+00  0.00000000000E+00  0.14055209056E+01  0.19979712250E+01  0.14200000000E+01 0.  1.
          4   -1    0    0  501    0  0.00000000000E+00 -0.00000000000E+00 -0.58167741026E+02  0.58185071076E+02  0.14200000000E+01 0. -1.
       1023    2    1    2    0    0  0.00000000000E+00  0.00000000000E+00 -0.56762220121E+02  0.60183042301E+02  0.20001223651E+02 0.  0.
        -13    1    3    3    0    0  0.29073324539E+01 -0.95680970865E+01 -0.28383327772E+02  0.30093612806E+02  0.10570000000E+00 0. -1.
         13    1    3    3    0    0 -0.29073324539E+01  0.95680970865E+01 -0.28378892349E+02  0.30089429494E+02  0.10570000000E+00 0.  1.
<mgrwt>
<rscale>  0 0.20001224E+02</rscale>
<asrwt>0</asrwt>
<pdfrwt beam="2">  1        4 0.89957879E-02 0.20001224E+02</pdfrwt>
<pdfrwt beam="1">  1       -4 0.26314021E-03 0.20001224E+02</pdfrwt>
<totfact> 0.11110465E+06</totfact>
</mgrwt>
</event>
<event>
 5    1  0.4710515E-007  0.2000760E+02  0.7818608E-02  0.1745177E+00
         -4   -1    0    0    0  501 -0.00000000000E+00  0.00000000000E+00  0.96124440339E+01  0.97167628512E+01  0.14200000000E+01 0. -1.
          4   -1    0    0  501    0  0.00000000000E+00 -0.00000000000E+00 -0.10201139451E+02  0.10299497371E+02  0.14200000000E+01 0.  1.
       1023    2    1    2    0    0  0.00000000000E+00  0.00000000000E+00 -0.58869541737E+00  0.20016260223E+02  0.20007601331E+02 0.  0.
        -13    1    3    3    0    0 -0.85345971897E+01  0.52152361952E+01 -0.45817907543E+00  0.10012948533E+02  0.10570000000E+00 0.  1.
         13    1    3    3    0    0  0.85345971897E+01 -0.52152361952E+01 -0.13051634193E+00  0.10003311690E+02  0.10570000000E+00 0. -1.
<mgrwt>
<rscale>  0 0.20007601E+02</rscale>
<asrwt>0</asrwt>
<pdfrwt beam="2">  1        4 0.15849966E-02 0.20007601E+02</pdfrwt>
<pdfrwt beam="1">  1       -4 0.14944281E-02 0.20007601E+02</pdfrwt>
<totfact> 0.13002986E+06</totfact>
</mgrwt>
</event>
<event>
 5    1  0.4710515E-007  0.2000255E+02  0.7818608E-02  0.1745277E+00
         -4   -1    0    0    0  501 -0.00000000000E+00  0.00000000000E+00  0.92886556867E+01  0.93965698245E+01  0.14200000000E+01 0.  1.
          4   -1    0    0  501    0  0.00000000000E+00 -0.00000000000E+00 -0.10550621413E+02  0.10645750899E+02  0.14200000000E+01 0. -1.
       1023    2    1    2    0    0  0.00000000000E+00  0.00000000000E+00 -0.12619657262E+01  0.20042320723E+02  0.20002551399E+02 0.  0.
        -13    1    3    3    0    0  0.90940873619E+01 -0.41605448188E+01 -0.58864966062E+00  0.10018494849E+02  0.10570000000E+00 0.  1.
         13    1    3    3    0    0 -0.90940873619E+01  0.41605448188E+01 -0.67331606559E+00  0.10023825874E+02  0.10570000000E+00 0. -1.
<mgrwt>
<rscale>  0 0.20002551E+02</rscale>
<asrwt>0</asrwt>
<pdfrwt beam="2">  1        4 0.16387913E-02 0.20002551E+02</pdfrwt>
<pdfrwt beam="1">  1       -4 0.14446427E-02 0.20002551E+02</pdfrwt>
<totfact> 0.13008145E+06</totfact>
</mgrwt>
</event>
<event>
 5    1  0.4710515E-007  0.2000284E+02  0.7818608E-02  0.1745272E+00
          4   -1    0    0  501    0  0.00000000000E+00  0.00000000000E+00  0.92456031163E+02  0.92466935163E+02  0.14200000000E+01 0. -1.
         -4   -1    0    0    0  501 -0.00000000000E+00 -0.00000000000E+00 -0.60018375156E+00  0.15416291823E+01  0.14200000000E+01 0.  1.
       1023    2    1    2    0    0  0.00000000000E+00  0.00000000000E+00  0.91855847412E+02  0.94008564345E+02  0.20002836463E+02 0.  0.
        -13    1    3    3    0    0 -0.72648070477E+01  0.68729287958E+01  0.46168599149E+02  0.47239446351E+02  0.10570000000E+00 0.  1.
         13    1    3    3    0    0  0.72648070477E+01 -0.68729287958E+01  0.45687248263E+02  0.46769117995E+02  0.10570000000E+00 0. -1.
<mgrwt>
<rscale>  0 0.20002836E+02</rscale>
<asrwt>0</asrwt>
<pdfrwt beam="1">  1        4 0.14297269E-01 0.20002836E+02</pdfrwt>
<pdfrwt beam="2">  1       -4 0.16559353E-03 0.20002836E+02</pdfrwt>
<totfact> 0.99724535E+05</totfact>
</mgrwt>
</event>
<event>
 5    1  0.4710515E-007  0.2000714E+02  0.7818608E-02  0.1745186E+00
         -4   -1    0    0    0  501 -0.00000000000E+00  0.00000000000E+00  0.55797416749E+00  0.15256917027E+01  0.14200000000E+01 0.  1.
          4   -1    0    0  501    0  0.00000000000E+00 -0.00000000000E+00 -0.95077783702E+02  0.95088387060E+02  0.14200000000E+01 0. -1.
       1023    2    1    2    0    0  0.00000000000E+00  0.00000000000E+00 -0.94519809535E+02  0.96614078763E+02  0.20007144242E+02 0.  0.
        -13    1    3    3    0    0  0.48458220352E+01  0.87499748532E+01 -0.46644677614E+02  0.47705148289E+02  0.10570000000E+00 0. -1.
         13    1    3    3    0    0 -0.48458220352E+01 -0.87499748532E+01 -0.47875131921E+02  0.48908930474E+02  0.10570000000E+00 0.  1.
<mgrwt>
<rscale>  0 0.20007144E+02</rscale>
<asrwt>0</asrwt>
<pdfrwt beam="2">  1        4 0.14702600E-01 0.20007144E+02</pdfrwt>
<pdfrwt beam="1">  1       -4 0.16109771E-03 0.20007144E+02</pdfrwt>
<totfact> 0.98916910E+05</totfact>
</mgrwt>
</event>
<event>
 5    1  0.4710515E-007  0.2000190E+02  0.7818608E-02  0.1745290E+00
         -4   -1    0    0    0  501 -0.00000000000E+00  0.00000000000E+00  0.31086870489E+02  0.31119285288E+02  0.14200000000E+01 0. -1.
          4   -1    0    0  501    0  0.00000000000E+00 -0.00000000000E+00 -0.30248697279E+01  0.33415919666E+01  0.14200000000E+01 0.  1.
       1023    2    1    2    0    0  0.00000000000E+00  0.00000000000E+00  0.28062000761E+02  0.34460877254E+02  0.20001904269E+02 0.  0.
        -13    1    3    3    0    0  0.85396369790E+01 -0.52040042735E+01  0.13981939136E+02  0.17190487331E+02  0.10570000000E+00 0.  1.
         13    1    3    3    0    0 -0.85396369790E+01  0.52040042735E+01  0.14080061626E+02  0.17270389923E+02  0.10570000000E+00 0. -1.
<mgrwt>
<rscale>  0 0.20001904E+02</rscale>
<asrwt>0</asrwt>
<pdfrwt beam="2">  1        4 0.49222127E-03 0.20001904E+02</pdfrwt>
<pdfrwt beam="1">  1       -4 0.48094522E-02 0.20001904E+02</pdfrwt>
<totfact> 0.12226272E+06</totfact>
</mgrwt>
</event>
<event>
 5    1  0.5334991E-007  0.2000148E+02  0.7818608E-02  0.1745299E+00
         -4   -1    0    0    0  501 -0.00000000000E+00  0.00000000000E+00  0.11236701860E+02  0.11326070311E+02  0.14200000000E+01 0. -1.
          4   -1    0    0  501    0  0.00000000000E+00 -0.00000000000E+00 -0.87184294552E+01  0.88333126383E+01  0.14200000000E+01 0.  1.
       1023    2    1    2    0    0  0.00000000000E+00  0.00000000000E+00  0.25182724047E+01  0.20159382949E+02  0.20001475570E+02 0.  0.
        -13    1    3    3    0    0  0.37764682884E+01 -0.92596572108E+01  0.12340527107E+01  0.10076558092E+02  0.10570000000E+00 0.  1.
         13    1    3    3    0    0 -0.37764682884E+01  0.92596572108E+01  0.12842196940E+01  0.10082824858E+02  0.10570000000E+00 0. -1.
<mgrwt>
<rscale>  0 0.20001476E+02</rscale>
<asrwt>0</asrwt>
<pdfrwt beam="2">  1        4 0.13570085E-02 0.20001476E+02</pdfrwt>
<pdfrwt beam="1">  1       -4 0.17444350E-02 0.20001476E+02</pdfrwt>
<totfact> 0.13002609E+06</totfact>
</mgrwt>
</event>
<event>
 5    1  0.4715494E-007  0.2000186E+02  0.7818608E-02  0.1745291E+00
          4   -1    0    0  501    0  0.00000000000E+00  0.00000000000E+00  0.99680926100E+01  0.10068727342E+02  0.14200000000E+01 0.  1.
         -4   -1    0    0    0  501 -0.00000000000E+00 -0.00000000000E+00 -0.98315802202E+01  0.99335980202E+01  0.14200000000E+01 0. -1.
       1023    2    1    2    0    0  0.00000000000E+00  0.00000000000E+00  0.13651238980E+00  0.20002325362E+02  0.20001859520E+02 0.  0.
        -13    1    3    3    0    0 -0.88637266706E+01  0.46304176717E+01  0.36549510673E-01  0.10000946288E+02  0.10570000000E+00 0.  1.
         13    1    3    3    0    0  0.88637266706E+01 -0.46304176717E+01  0.99962879128E-01  0.10001379074E+02  0.10570000000E+00 0. -1.
<mgrwt>
<rscale>  0 0.20001860E+02</rscale>
<asrwt>0</asrwt>
<pdfrwt beam="1">  1        4 0.15491414E-02 0.20001860E+02</pdfrwt>
<pdfrwt beam="2">  1       -4 0.15281395E-02 0.20001860E+02</pdfrwt>
<totfact> 0.13011436E+06</totfact>
</mgrwt>
</event>
<event>
 5    1  0.4710515E-007  0.2000314E+02  0.7818608E-02  0.1745266E+00
         -4   -1    0    0    0  501 -0.00000000000E+00  0.00000000000E+00  0.10555947117E+01  0.17693728254E+01  0.14200000000E+01 0. -1.
          4   -1    0    0  501    0  0.00000000000E+00 -0.00000000000E+00 -0.70096749304E+02  0.70111130807E+02  0.14200000000E+01 0.  1.
       1023    2    1    2    0    0  0.00000000000E+00  0.00000000000E+00 -0.69041154592E+02  0.71880503632E+02  0.20003144127E+02 0.  0.
        -13    1    3    3    0    0 -0.95621720822E+01  0.29280433771E+01 -0.34909241268E+02  0.36313563188E+02  0.10570000000E+00 0. -1.
         13    1    3    3    0    0  0.95621720822E+01 -0.29280433771E+01 -0.34131913324E+02  0.35566940445E+02  0.10570000000E+00 0.  1.
<mgrwt>
<rscale>  0 0.20003144E+02</rscale>
<asrwt>0</asrwt>
<pdfrwt beam="2">  1        4 0.10840125E-01 0.20003144E+02</pdfrwt>
<pdfrwt beam="1">  1       -4 0.21841152E-03 0.20003144E+02</pdfrwt>
<totfact> 0.10681542E+06</totfact>
</mgrwt>
</event>
<event>
 4    1  0.4710515E-007  0.2002716E+02  0.7818608E-02  0.1744788E+00
         -4   -1    0    0    0  501 -0.00000000000E+00  0.00000000000E+00  0.13197247703E+01  0.19385751132E+01  0.14200000000E+01 0. -1.
          4   -1    0    0  501    0  0.00000000000E+00 -0.00000000000E+00 -0.60919862514E+02  0.60936409877E+02  0.14200000000E+01 0.  1.
        -13    1    1    2    0    0 -0.22118665728E+01 -0.97607548911E+01 -0.30772637320E+02  0.32359404659E+02  0.10570000000E+00 0.  1.
         13    1    1    2    0    0  0.22118665728E+01  0.97607548911E+01 -0.28827500423E+02  0.30515580331E+02  0.10570000000E+00 0. -1.
<mgrwt>
<rscale>  0 0.20027165E+02</rscale>
<asrwt>0</asrwt>
<pdfrwt beam="2">  1        4 0.94211615E-02 0.20027165E+02</pdfrwt>
<pdfrwt beam="1">  1       -4 0.25191137E-03 0.20027165E+02</pdfrwt>
<totfact> 0.10979832E+06</totfact>
</mgrwt>
</event>
<event>
 4    1  0.4710515E-007  0.2001261E+02  0.7818608E-02  0.1745078E+00
         -4   -1    0    0    0  501 -0.00000000000E+00  0.00000000000E+00  0.81338354276E+01  0.82568564698E+01  0.14200000000E+01 0. -1.
          4   -1    0    0  501    0  0.00000000000E+00 -0.00000000000E+00 -0.12052419175E+02  0.12135782133E+02  0.14200000000E+01 0.  1.
        -13    1    1    2    0    0  0.78572894642E+01  0.61864248397E+01 -0.16274074987E+01  0.10132545469E+02  0.10570000000E+00 0. -1.
         13    1    1    2    0    0 -0.78572894642E+01 -0.61864248397E+01 -0.22911762490E+01  0.10260093134E+02  0.10570000000E+00 0.  1.
<mgrwt>
<rscale>  0 0.20012606E+02</rscale>
<asrwt>0</asrwt>
<pdfrwt beam="2">  1        4 0.18700940E-02 0.20012606E+02</pdfrwt>
<pdfrwt beam="1">  1       -4 0.12672350E-02 0.20012606E+02</pdfrwt>
<totfact> 0.12973988E+06</totfact>
</mgrwt>
</event>
<event>
 5    1  0.4710515E-007  0.2000124E+02  0.7818608E-02  0.1745303E+00
         -4   -1    0    0    0  501 -0.00000000000E+00  0.00000000000E+00  0.85791533345E+02  0.85803284283E+02  0.14200000000E+01 0. -1.
          4   -1    0    0  501    0  0.00000000000E+00 -0.00000000000E+00 -0.71703350024E+00  0.15907661803E+01  0.14200000000E+01 0.  1.
       1023    2    1    2    0    0  0.00000000000E+00  0.00000000000E+00  0.85074499845E+02  0.87394050463E+02  0.20001238274E+02 0.  0.
        -13    1    3    3    0    0 -0.96157328646E+01  0.27456661406E+01  0.42473998264E+02  0.43635452353E+02  0.10570000000E+00 0.  1.
         13    1    3    3    0    0  0.96157328646E+01 -0.27456661406E+01  0.42600501581E+02  0.43758598110E+02  0.10570000000E+00 0. -1.
<mgrwt>
<rscale>  0 0.20001238E+02</rscale>
<asrwt>0</asrwt>
<pdfrwt beam="2">  1        4 0.17842697E-03 0.20001238E+02</pdfrwt>
<pdfrwt beam="1">  1       -4 0.13266812E-01 0.20001238E+02</pdfrwt>
<totfact> 0.10174548E+06</totfact>
</mgrwt>
</event>
<event>
 5    1  0.4816465E-007  0.2000123E+02  0.7818608E-02  0.1745304E+00
          4   -1    0    0  501    0  0.00000000000E+00  0.00000000000E+00  0.23545406065E+01  0.27495929640E+01  0.14200000000E+01 0. -1.
         -4   -1    0    0    0  501 -0.00000000000E+00 -0.00000000000E+00 -0.38779676422E+02  0.38805665867E+02  0.14200000000E+01 0.  1.
       1023    2    1    2    0    0  0.00000000000E+00  0.00000000000E+00 -0.36425135815E+02  0.41555258831E+02  0.20001225396E+02 0.  0.
        -13    1    3    3    0    0 -0.78421383770E+00  0.99692554610E+01 -0.18200092455E+02  0.20766694095E+02  0.10570000000E+00 0. -1.
         13    1    3    3    0    0  0.78421383770E+00 -0.99692554610E+01 -0.18225043360E+02  0.20788564735E+02  0.10570000000E+00 0.  1.
<mgrwt>
<rscale>  0 0.20001225E+02</rscale>
<asrwt>0</asrwt>
<pdfrwt beam="1">  1        4 0.39462488E-03 0.20001225E+02</pdfrwt>
<pdfrwt beam="2">  1       -4 0.59984914E-02 0.20001225E+02</pdfrwt>
<totfact> 0.11889356E+06</totfact>
</mgrwt>
</event>
<event>
 5    1  0.4710515E-007  0.2000667E+02  0.7818608E-02  0.1745196E+00
         -4   -1    0    0    0  501 -0.00000000000E+00  0.00000000000E+00  0.52662677205E+00  0.15145084209E+01  0.14200000000E+01 0.  1.
          4   -1    0    0  501    0  0.00000000000E+00 -0.00000000000E+00 -0.97054434441E+02  0.97064821870E+02  0.14200000000E+01 0. -1.
       1023    2    1    2    0    0  0.00000000000E+00  0.00000000000E+00 -0.96527807669E+02  0.98579330291E+02  0.20006666570E+02 0.  0.
        -13    1    3    3    0    0 -0.48080913495E+01  0.87710820211E+01 -0.47886004283E+02  0.48919630017E+02  0.10570000000E+00 0. -1.
         13    1    3    3    0    0  0.48080913495E+01 -0.87710820211E+01 -0.48641803385E+02  0.49659700274E+02  0.10570000000E+00 0.  1.
<mgrwt>
<rscale>  0 0.20006667E+02</rscale>
<asrwt>0</asrwt>
<pdfrwt beam="2">  1        4 0.15008234E-01 0.20006667E+02</pdfrwt>
<pdfrwt beam="1">  1       -4 0.15780951E-03 0.20006667E+02</pdfrwt>
<totfact> 0.98353491E+05</totfact>
</mgrwt>
</event>
<event>
 5    1  0.5099400E-007  0.2000232E+02  0.7818608E-02  0.1745282E+00
          4   -1    0    0  501    0  0.00000000000E+00  0.00000000000E+00  0.24947858388E+02  0.24988237996E+02  0.14200000000E+01 0. -1.
         -4   -1    0    0    0  501 -0.00000000000E+00 -0.00000000000E+00 -0.38384473100E+01  0.40926858848E+01  0.14200000000E+01 0.  1.
       1023    2    1    2    0    0  0.00000000000E+00  0.00000000000E+00  0.21109411078E+02  0.29080923881E+02  0.20002322308E+02 0.  0.
        -13    1    3    3    0    0  0.39421387906E+01  0.91902405042E+01  0.10401715307E+02  0.14429408602E+02  0.10570000000E+00 0.  1.
         13    1    3    3    0    0 -0.39421387906E+01 -0.91902405042E+01  0.10707695771E+02  0.14651515279E+02  0.10570000000E+00 0. -1.
<mgrwt>
<rscale>  0 0.20002322E+02</rscale>
<asrwt>0</asrwt>
<pdfrwt beam="1">  1        4 0.38607949E-02 0.20002322E+02</pdfrwt>
<pdfrwt beam="2">  1       -4 0.61319330E-03 0.20002322E+02</pdfrwt>
<totfact> 0.12501074E+06</totfact>
</mgrwt>
</event>
<event>
 5    1  0.4710515E-007  0.2000295E+02  0.7818608E-02  0.1745270E+00
          4   -1    0    0  501    0  0.00000000000E+00  0.00000000000E+00  0.32020883667E+02  0.32052353905E+02  0.14200000000E+01 0.  1.
         -4   -1    0    0    0  501 -0.00000000000E+00 -0.00000000000E+00 -0.29277000998E+01  0.32538942629E+01  0.14200000000E+01 0. -1.
       1023    2    1    2    0    0  0.00000000000E+00  0.00000000000E+00  0.29093183567E+02  0.35306248168E+02  0.20002945523E+02 0.  0.
        -13    1    3    3    0    0 -0.19702379004E+01  0.98049193968E+01  0.14543462348E+02  0.17650545355E+02  0.10570000000E+00 0. -1.
         13    1    3    3    0    0  0.19702379004E+01 -0.98049193968E+01  0.14549721220E+02  0.17655702813E+02  0.10570000000E+00 0.  1.
<mgrwt>
<rscale>  0 0.20002946E+02</rscale>
<asrwt>0</asrwt>
<pdfrwt beam="1">  1        4 0.49538024E-02 0.20002946E+02</pdfrwt>
<pdfrwt beam="2">  1       -4 0.47792805E-03 0.20002946E+02</pdfrwt>
<totfact> 0.12183289E+06</totfact>
</mgrwt>
</event>
<event>
 5    1  0.5264585E-007  0.2000164E+02  0.7818608E-02  0.1745295E+00
          4   -1    0    0  501    0  0.00000000000E+00  0.00000000000E+00  0.21896357576E+02  0.21942353454E+02  0.14200000000E+01 0. -1.
         -4   -1    0    0    0  501 -0.00000000000E+00 -0.00000000000E+00 -0.44052090387E+01  0.46284194576E+01  0.14200000000E+01 0.  1.
       1023    2    1    2    0    0  0.00000000000E+00  0.00000000000E+00  0.17491148537E+02  0.26570772912E+02  0.20001642332E+02 0.  0.
        -13    1    3    3    0    0  0.32378493749E+01  0.94613317762E+01  0.88374565275E+01  0.13345871194E+02  0.10570000000E+00 0.  1.
         13    1    3    3    0    0 -0.32378493749E+01 -0.94613317762E+01  0.86536920098E+01  0.13224901718E+02  0.10570000000E+00 0. -1.
<mgrwt>
<rscale>  0 0.20001642E+02</rscale>
<asrwt>0</asrwt>
<pdfrwt beam="1">  1        4 0.33893786E-02 0.20001642E+02</pdfrwt>
<pdfrwt beam="2">  1       -4 0.69843264E-03 0.20001642E+02</pdfrwt>
<totfact> 0.12636760E+06</totfact>
</mgrwt>
</event>
<event>
 4    1  0.4710515E-007  0.2013778E+02  0.7818608E-02  0.1742602E+00
         -4   -1    0    0    0  501 -0.00000000000E+00  0.00000000000E+00  0.10921675584E+03  0.10922598663E+03  0.14200000000E+01 0. -1.
          4   -1    0    0  501    0  0.00000000000E+00 -0.00000000000E+00 -0.37043131451E+00  0.14675215020E+01  0.14200000000E+01 0.  1.
        -13    1    1    2    0    0 -0.67368262968E+01  0.74221249060E+01  0.59633995804E+02  0.60470632498E+02  0.10570000000E+00 0. -1.
         13    1    1    2    0    0  0.67368262968E+01 -0.74221249060E+01  0.49212328719E+02  0.50222875636E+02  0.10570000000E+00 0.  1.
<mgrwt>
<rscale>  0 0.20137785E+02</rscale>
<asrwt>0</asrwt>
<pdfrwt beam="2">  1        4 0.14209110E-03 0.20137785E+02</pdfrwt>
<pdfrwt beam="1">  1       -4 0.16887674E-01 0.20137785E+02</pdfrwt>
<totfact> 0.93775800E+05</totfact>
</mgrwt>
</event>
<event>
 5    1  0.5097323E-007  0.2000234E+02  0.7818608E-02  0.1745282E+00
          4   -1    0    0  501    0  0.00000000000E+00  0.00000000000E+00  0.11968754125E+02  0.12052695769E+02  0.14200000000E+01 0. -1.
         -4   -1    0    0    0  501 -0.00000000000E+00 -0.00000000000E+00 -0.81825347831E+01  0.83048344642E+01  0.14200000000E+01 0.  1.
       1023    2    1    2    0    0  0.00000000000E+00  0.00000000000E+00  0.37862193414E+01  0.20357530233E+02  0.20002339370E+02 0.  0.
        -13    1    3    3    0    0 -0.96435859962E+01  0.26475398528E+01  0.18287053040E+01  0.10166786794E+02  0.10570000000E+00 0.  1.
         13    1    3    3    0    0  0.96435859962E+01 -0.26475398528E+01  0.19575140374E+01  0.10190743439E+02  0.10570000000E+00 0. -1.
<mgrwt>
<rscale>  0 0.20002339E+02</rscale>
<asrwt>0</asrwt>
<pdfrwt beam="1">  1        4 0.18572115E-02 0.20002339E+02</pdfrwt>
<pdfrwt beam="2">  1       -4 0.12747162E-02 0.20002339E+02</pdfrwt>
<totfact> 0.12989668E+06</totfact>
</mgrwt>
</event>
<event>
 4    1  0.4710515E-007  0.2003168E+02  0.7818608E-02  0.1744699E+00
         -4   -1    0    0    0  501 -0.00000000000E+00  0.00000000000E+00  0.80430853480E+02  0.80443387494E+02  0.14200000000E+01 0. -1.
          4   -1    0    0  501    0  0.00000000000E+00 -0.00000000000E+00 -0.82626619277E+00  0.16428986035E+01  0.14200000000E+01 0.  1.
        -13    1    1    2    0    0 -0.70684637818E+01  0.70907379268E+01  0.40839739040E+02  0.42049223560E+02  0.10570000000E+00 0. -1.
         13    1    1    2    0    0  0.70684637818E+01 -0.70907379268E+01  0.38764848246E+02  0.40037062538E+02  0.10570000000E+00 0.  1.
<mgrwt>
<rscale>  0 0.20031676E+02</rscale>
<asrwt>0</asrwt>
<pdfrwt beam="2">  1        4 0.19089988E-03 0.20031676E+02</pdfrwt>
<pdfrwt beam="1">  1       -4 0.12437761E-01 0.20031676E+02</pdfrwt>
<totfact> 0.10310776E+06</totfact>
</mgrwt>
</event>
<event>
 5    1  0.4744034E-007  0.2000136E+02  0.7818608E-02  0.1745301E+00
          4   -1    0    0  501    0  0.00000000000E+00  0.00000000000E+00  0.43431317130E+02  0.43454524593E+02  0.14200000000E+01 0. -1.
         -4   -1    0    0    0  501 -0.00000000000E+00 -0.00000000000E+00 -0.20577147790E+01  0.25001180196E+01  0.14200000000E+01 0.  1.
       1023    2    1    2    0    0  0.00000000000E+00  0.00000000000E+00  0.41373602351E+02  0.45954642613E+02  0.20001355109E+02 0.  0.
        -13    1    3    3    0    0  0.99651956999E+01  0.83383663954E+00  0.20788783092E+02  0.23069137041E+02  0.10570000000E+00 0. -1.
         13    1    3    3    0    0 -0.99651956999E+01 -0.83383663954E+00  0.20584819258E+02  0.22885505572E+02  0.10570000000E+00 0.  1.
<mgrwt>
<rscale>  0 0.20001355E+02</rscale>
<asrwt>0</asrwt>
<pdfrwt beam="1">  1        4 0.67175564E-02 0.20001355E+02</pdfrwt>
<pdfrwt beam="2">  1       -4 0.35238776E-03 0.20001355E+02</pdfrwt>
<totfact> 0.11692201E+06</totfact>
</mgrwt>
</event>
<event>
 4    1  0.4710515E-007  0.2003209E+02  0.7818608E-02  0.1744691E+00
         -4   -1    0    0    0  501 -0.00000000000E+00  0.00000000000E+00  0.97290752027E+02  0.97301114228E+02  0.14200000000E+01 0.  1.
          4   -1    0    0  501    0  0.00000000000E+00 -0.00000000000E+00 -0.52682922633E+00  0.15145788305E+01  0.14200000000E+01 0. -1.
        -13    1    1    2    0    0 -0.94884192449E+01  0.31947100645E+01  0.49720807059E+02  0.50718892922E+02  0.10570000000E+00 0.  1.
         13    1    1    2    0    0  0.94884192449E+01 -0.31947100645E+01  0.47043115742E+02  0.48096800137E+02  0.10570000000E+00 0. -1.
<mgrwt>
<rscale>  0 0.20032085E+02</rscale>
<asrwt>0</asrwt>
<pdfrwt beam="2">  1        4 0.15782845E-03 0.20032085E+02</pdfrwt>
<pdfrwt beam="1">  1       -4 0.15044589E-01 0.20032085E+02</pdfrwt>
<totfact> 0.98036876E+05</totfact>
</mgrwt>
</event>
<event>
 5    1  0.4710515E-007  0.2000253E+02  0.7818608E-02  0.1745278E+00
          4   -1    0    0  501    0  0.00000000000E+00  0.00000000000E+00  0.56023126840E+01  0.57794729352E+01  0.14200000000E+01 0.  1.
         -4   -1    0    0    0  501 -0.00000000000E+00 -0.00000000000E+00 -0.17369800461E+02  0.17427747073E+02  0.14200000000E+01 0. -1.
       1023    2    1    2    0    0  0.00000000000E+00  0.00000000000E+00 -0.11767487777E+02  0.23207220009E+02  0.20002532138E+02 0.  0.
        -13    1    3    3    0    0  0.53215449561E+01  0.84672411215E+01 -0.58446123751E+01  0.11583767920E+02  0.10570000000E+00 0.  1.
         13    1    3    3    0    0 -0.53215449561E+01 -0.84672411215E+01 -0.59228754019E+01  0.11623452088E+02  0.10570000000E+00 0. -1.
<mgrwt>
<rscale>  0 0.20002532E+02</rscale>
<asrwt>0</asrwt>
<pdfrwt beam="1">  1        4 0.87997941E-03 0.20002532E+02</pdfrwt>
<pdfrwt beam="2">  1       -4 0.26903621E-02 0.20002532E+02</pdfrwt>
<totfact> 0.12823426E+06</totfact>
</mgrwt>
</event>
<event>
 5    1  0.4710515E-007  0.2000355E+02  0.7818608E-02  0.1745257E+00
         -4   -1    0    0    0  501 -0.00000000000E+00  0.00000000000E+00  0.31020856622E+02  0.31053340329E+02  0.14200000000E+01 0. -1.
          4   -1    0    0  501    0  0.00000000000E+00 -0.00000000000E+00 -0.30325292362E+01  0.33485270745E+01  0.14200000000E+01 0.  1.
       1023    2    1    2    0    0  0.00000000000E+00  0.00000000000E+00  0.27988327386E+02  0.34401867403E+02  0.20003549959E+02 0.  0.
        -13    1    3    3    0    0  0.78960203004E+01 -0.61381736662E+01  0.14001401424E+02  0.17206822102E+02  0.10570000000E+00 0. -1.
         13    1    3    3    0    0 -0.78960203004E+01  0.61381736662E+01  0.13986925962E+02  0.17195045301E+02  0.10570000000E+00 0.  1.
<mgrwt>
<rscale>  0 0.20003550E+02</rscale>
<asrwt>0</asrwt>
<pdfrwt beam="2">  1        4 0.49334925E-03 0.20003550E+02</pdfrwt>
<pdfrwt beam="1">  1       -4 0.47992455E-02 0.20003550E+02</pdfrwt>
<totfact> 0.12227158E+06</totfact>
</mgrwt>
</event>
<event>
 5    1  0.4917418E-007  0.2000209E+02  0.7818608E-02  0.1745287E+00
         -4   -1    0    0    0  501 -0.00000000000E+00  0.00000000000E+00  0.65477182261E+01  0.66999264152E+01  0.14200000000E+01 0. -1.
          4   -1    0    0  501    0  0.00000000000E+00 -0.00000000000E+00 -0.14913857516E+02  0.14981306552E+02  0.14200000000E+01 0.  1.
       1023    2    1    2    0    0  0.00000000000E+00  0.00000000000E+00 -0.83661392895E+01  0.21681232967E+02  0.20002089300E+02 0.  0.
        -13    1    3    3    0    0 -0.49727677727E+01 -0.86764751511E+01 -0.41733002568E+01  0.10836846769E+02  0.10570000000E+00 0. -1.
         13    1    3    3    0    0  0.49727677727E+01  0.86764751511E+01 -0.41928390327E+01  0.10844386198E+02  0.10570000000E+00 0.  1.
<mgrwt>
<rscale>  0 0.20002089E+02</rscale>
<asrwt>0</asrwt>
<pdfrwt beam="2">  1        4 0.23113363E-02 0.20002089E+02</pdfrwt>
<pdfrwt beam="1">  1       -4 0.10242380E-02 0.20002089E+02</pdfrwt>
<totfact> 0.12912024E+06</totfact>
</mgrwt>
</event>
<event>
 5    1  0.4710515E-007  0.2000282E+02  0.7818608E-02  0.1745272E+00
          4   -1    0    0  501    0  0.00000000000E+00  0.00000000000E+00  0.50652417669E+02  0.50672318042E+02  0.14200000000E+01 0.  1.
         -4   -1    0    0    0  501 -0.00000000000E+00 -0.00000000000E+00 -0.16965344070E+01  0.22123808429E+01  0.14200000000E+01 0. -1.
       1023    2    1    2    0    0  0.00000000000E+00  0.00000000000E+00  0.48955883262E+02  0.52884698884E+02  0.20002821555E+02 0.  0.
        -13    1    3    3    0    0 -0.84247148449E+01 -0.53889718955E+01  0.24515956160E+02  0.26477539864E+02  0.10570000000E+00 0.  1.
         13    1    3    3    0    0  0.84247148449E+01  0.53889718955E+01  0.24439927102E+02  0.26407159020E+02  0.10570000000E+00 0. -1.
<mgrwt>
<rscale>  0 0.20002822E+02</rscale>
<asrwt>0</asrwt>
<pdfrwt beam="1">  1        4 0.78338916E-02 0.20002822E+02</pdfrwt>
<pdfrwt beam="2">  1       -4 0.30221656E-03 0.20002822E+02</pdfrwt>
<totfact> 0.11397337E+06</totfact>
</mgrwt>
</event>
<event>
 4    1  0.4710515E-007  0.2760387E+02  0.7818608E-02  0.1626192E+00
         -4   -1    0    0    0  501 -0.00000000000E+00  0.00000000000E+00  0.73643482539E+01  0.75000016804E+01  0.14200000000E+01 0.  1.
          4   -1    0    0  501    0  0.00000000000E+00 -0.00000000000E+00 -0.25475311353E+02  0.25514856232E+02  0.14200000000E+01 0. -1.
        -13    1    1    2    0    0  0.29908258211E+01  0.13462922333E+02 -0.84147713002E+01  0.16155954486E+02  0.10570000000E+00 0. -1.
         13    1    1    2    0    0 -0.29908258211E+01 -0.13462922333E+02 -0.96961917989E+01  0.16858903426E+02  0.10570000000E+00 0.  1.
<mgrwt>
<rscale>  0 0.27603874E+02</rscale>
<asrwt>0</asrwt>
<pdfrwt beam="2">  1        4 0.39327554E-02 0.27603874E+02</pdfrwt>
<pdfrwt beam="1">  1       -4 0.11464535E-02 0.27603874E+02</pdfrwt>
<totfact> 0.61960637E+05</totfact>
</mgrwt>
</event>
<event>
 5    1  0.4710515E-007  0.2000400E+02  0.7818608E-02  0.1745248E+00
          4   -1    0    0  501    0  0.00000000000E+00  0.00000000000E+00  0.78915755277E+00  0.16245521362E+01  0.14200000000E+01 0.  1.
         -4   -1    0    0    0  501 -0.00000000000E+00 -0.00000000000E+00 -0.82049522927E+02  0.82061809708E+02  0.14200000000E+01 0. -1.
       1023    2    1    2    0    0  0.00000000000E+00  0.00000000000E+00 -0.81260365374E+02  0.83686361844E+02  0.20004004048E+02 0.  0.
        -13    1    3    3    0    0  0.75844236919E+01  0.65195661073E+01 -0.40736597303E+02  0.41946510669E+02  0.10570000000E+00 0. -1.
         13    1    3    3    0    0 -0.75844236919E+01 -0.65195661073E+01 -0.40523768071E+02  0.41739851175E+02  0.10570000000E+00 0.  1.
<mgrwt>
<rscale>  0 0.20004004E+02</rscale>
<asrwt>0</asrwt>
<pdfrwt beam="1">  1        4 0.18661518E-03 0.20004004E+02</pdfrwt>
<pdfrwt beam="2">  1       -4 0.12688205E-01 0.20004004E+02</pdfrwt>
<totfact> 0.10288172E+06</totfact>
</mgrwt>
</event>
<event>
 5    1  0.4710515E-007  0.2000459E+02  0.7818608E-02  0.1745237E+00
          4   -1    0    0  501    0  0.00000000000E+00  0.00000000000E+00  0.70393440252E+02  0.70407761153E+02  0.14200000000E+01 0.  1.
         -4   -1    0    0    0  501 -0.00000000000E+00 -0.00000000000E+00 -0.10483893770E+01  0.17650836484E+01  0.14200000000E+01 0. -1.
       1023    2    1    2    0    0  0.00000000000E+00  0.00000000000E+00  0.69345050875E+02  0.72172844801E+02  0.20004585619E+02 0.  0.
        -13    1    3    3    0    0 -0.64385267635E+01  0.76530102550E+01  0.34285695799E+02  0.35714749079E+02  0.10570000000E+00 0. -1.
         13    1    3    3    0    0  0.64385267635E+01 -0.76530102550E+01  0.35059355076E+02  0.36458095722E+02  0.10570000000E+00 0.  1.
<mgrwt>
<rscale>  0 0.20004586E+02</rscale>
<asrwt>0</asrwt>
<pdfrwt beam="1">  1        4 0.10885992E-01 0.20004586E+02</pdfrwt>
<pdfrwt beam="2">  1       -4 0.21752261E-03 0.20004586E+02</pdfrwt>
<totfact> 0.10669847E+06</totfact>
</mgrwt>
</event>
<event>
 4    1  0.4710515E-007  0.2004692E+02  0.7818608E-02  0.1744397E+00
          4   -1    0    0  501    0  0.00000000000E+00  0.00000000000E+00  0.74461595519E+01  0.75803490732E+01  0.14200000000E+01 0. -1.
         -4   -1    0    0    0  501 -0.00000000000E+00 -0.00000000000E+00 -0.13199725580E+02  0.13275886238E+02  0.14200000000E+01 0.  1.
        -13    1    1    2    0    0  0.56931643347E+01 -0.82484267792E+01 -0.29804050283E+01  0.10456703644E+02  0.10570000000E+00 0. -1.
         13    1    1    2    0    0 -0.56931643347E+01  0.82484267792E+01 -0.27731610003E+01  0.10399531667E+02  0.10570000000E+00 0.  1.
<mgrwt>
<rscale>  0 0.20046921E+02</rscale>
<asrwt>0</asrwt>
<pdfrwt beam="1">  1        4 0.11617438E-02 0.20046921E+02</pdfrwt>
<pdfrwt beam="2">  1       -4 0.20469078E-02 0.20046921E+02</pdfrwt>
<totfact> 0.12901398E+06</totfact>
</mgrwt>
</event>
<event>
 5    1  0.4710515E-007  0.2000229E+02  0.7818608E-02  0.1745283E+00
         -4   -1    0    0    0  501 -0.00000000000E+00  0.00000000000E+00  0.49243072401E+01  0.51249587115E+01  0.14200000000E+01 0.  1.
          4   -1    0    0  501    0  0.00000000000E+00 -0.00000000000E+00 -0.19679766355E+02  0.19730930130E+02  0.14200000000E+01 0. -1.
       1023    2    1    2    0    0  0.00000000000E+00  0.00000000000E+00 -0.14755459115E+02  0.24855888842E+02  0.20002290779E+02 0.  0.
        -13    1    3    3    0    0  0.51116165957E+01  0.85951529452E+01 -0.72778660898E+01  0.12368661435E+02  0.10570000000E+00 0.  1.
         13    1    3    3    0    0 -0.51116165957E+01 -0.85951529452E+01 -0.74775930255E+01  0.12487227407E+02  0.10570000000E+00 0. -1.
<mgrwt>
<rscale>  0 0.20002291E+02</rscale>
<asrwt>0</asrwt>
<pdfrwt beam="2">  1        4 0.30470267E-02 0.20002291E+02</pdfrwt>
<pdfrwt beam="1">  1       -4 0.77695614E-03 0.20002291E+02</pdfrwt>
<totfact> 0.12730678E+06</totfact>
</mgrwt>
</event>
<event>
 5    1  0.4861335E-007  0.2000376E+02  0.7818608E-02  0.1745253E+00
          4   -1    0    0  501    0  0.00000000000E+00  0.00000000000E+00  0.15549858813E+02  0.15614560805E+02  0.14200000000E+01 0.  1.
         -4   -1    0    0    0  501 -0.00000000000E+00 -0.00000000000E+00 -0.62758005798E+01  0.64344442586E+01  0.14200000000E+01 0. -1.
       1023    2    1    2    0    0  0.00000000000E+00  0.00000000000E+00  0.92740582337E+01  0.22049005063E+02  0.20003761350E+02 0.  0.
        -13    1    3    3    0    0 -0.99976906126E+01  0.26190666665E+00  0.47070181750E+01  0.11053940713E+02  0.10570000000E+00 0.  1.
         13    1    3    3    0    0  0.99976906126E+01 -0.26190666665E+00  0.45670400587E+01  0.10995064351E+02  0.10570000000E+00 0. -1.
<mgrwt>
<rscale>  0 0.20003761E+02</rscale>
<asrwt>0</asrwt>
<pdfrwt beam="1">  1        4 0.24094664E-02 0.20003761E+02</pdfrwt>
<pdfrwt beam="2">  1       -4 0.98268822E-03 0.20003761E+02</pdfrwt>
<totfact> 0.12888436E+06</totfact>
</mgrwt>
</event>
<event>
 5    1  0.4710515E-007  0.2000496E+02  0.7818608E-02  0.1745229E+00
         -4   -1    0    0    0  501 -0.00000000000E+00  0.00000000000E+00  0.65684171455E+02  0.65699518870E+02  0.14200000000E+01 0.  1.
          4   -1    0    0  501    0  0.00000000000E+00 -0.00000000000E+00 -0.11732614878E+01  0.18419941690E+01  0.14200000000E+01 0. -1.
       1023    2    1    2    0    0  0.00000000000E+00  0.00000000000E+00  0.64510909967E+02  0.67541513039E+02  0.20004961354E+02 0.  0.
        -13    1    3    3    0    0  0.92397156721E+01 -0.38285515324E+01  0.31947963839E+02  0.33477062572E+02  0.10570000000E+00 0. -1.
         13    1    3    3    0    0 -0.92397156721E+01  0.38285515324E+01  0.32562946129E+02  0.34064450467E+02  0.10570000000E+00 0.  1.
<mgrwt>
<rscale>  0 0.20004961E+02</rscale>
<asrwt>0</asrwt>
<pdfrwt beam="2">  1        4 0.23312335E-03 0.20004961E+02</pdfrwt>
<pdfrwt beam="1">  1       -4 0.10157877E-01 0.20004961E+02</pdfrwt>
<totfact> 0.10833066E+06</totfact>
</mgrwt>
</event>
<event>
 5    1  0.4710515E-007  0.2000995E+02  0.7818608E-02  0.1745130E+00
         -4   -1    0    0    0  501 -0.00000000000E+00  0.00000000000E+00  0.64972980661E+02  0.64988496028E+02  0.14200000000E+01 0. -1.
          4   -1    0    0  501    0  0.00000000000E+00 -0.00000000000E+00 -0.11943138199E+01  0.18554744677E+01  0.14200000000E+01 0.  1.
       1023    2    1    2    0    0  0.00000000000E+00  0.00000000000E+00  0.63778666841E+02  0.66843970495E+02  0.20009948716E+02 0.  0.
        -13    1    3    3    0    0  0.77943484482E+01  0.62717598179E+01  0.32018731937E+02  0.33545449860E+02  0.10570000000E+00 0.  1.
         13    1    3    3    0    0 -0.77943484482E+01 -0.62717598179E+01  0.31759934903E+02  0.33298520635E+02  0.10570000000E+00 0. -1.
<mgrwt>
<rscale>  0 0.20009949E+02</rscale>
<asrwt>0</asrwt>
<pdfrwt beam="2">  1        4 0.23579254E-03 0.20009949E+02</pdfrwt>
<pdfrwt beam="1">  1       -4 0.10047897E-01 0.20009949E+02</pdfrwt>
<totfact> 0.10852811E+06</totfact>
</mgrwt>
</event>
<event>
 5    1  0.4710515E-007  0.2000194E+02  0.7818608E-02  0.1745290E+00
         -4   -1    0    0    0  501 -0.00000000000E+00  0.00000000000E+00  0.23114381403E+02  0.23157958193E+02  0.14200000000E+01 0.  1.
          4   -1    0    0  501    0  0.00000000000E+00 -0.00000000000E+00 -0.41615884624E+01  0.43971830222E+01  0.14200000000E+01 0. -1.
       1023    2    1    2    0    0  0.00000000000E+00  0.00000000000E+00  0.18952792941E+02  0.27555141215E+02  0.20001936084E+02 0.  0.
        -13    1    3    3    0    0 -0.48270703209E+01  0.87582713893E+01  0.94987664387E+01  0.13792956969E+02  0.10570000000E+00 0.  1.
         13    1    3    3    0    0  0.48270703209E+01 -0.87582713893E+01  0.94540265020E+01  0.13762184245E+02  0.10570000000E+00 0. -1.
<mgrwt>
<rscale>  0 0.20001936E+02</rscale>
<asrwt>0</asrwt>
<pdfrwt beam="2">  1        4 0.66171910E-03 0.20001936E+02</pdfrwt>
<pdfrwt beam="1">  1       -4 0.35775334E-02 0.20001936E+02</pdfrwt>
<totfact> 0.12582984E+06</totfact>
</mgrwt>
</event>
<event>
 5    1  0.4710515E-007  0.2000137E+02  0.7818608E-02  0.1745301E+00
          4   -1    0    0  501    0  0.00000000000E+00  0.00000000000E+00  0.82756503919E+02  0.82768685751E+02  0.14200000000E+01 0.  1.
         -4   -1    0    0    0  501 -0.00000000000E+00 -0.00000000000E+00 -0.77482024884E+00  0.16176360586E+01  0.14200000000E+01 0. -1.
       1023    2    1    2    0    0  0.00000000000E+00  0.00000000000E+00  0.81981683670E+02  0.84386321809E+02  0.20001371231E+02 0.  0.
        -13    1    3    3    0    0  0.82953990162E+00  0.99655600520E+01  0.41180307925E+02  0.42377228046E+02  0.10570000000E+00 0. -1.
         13    1    3    3    0    0 -0.82953990162E+00 -0.99655600520E+01  0.40801375746E+02  0.42009093763E+02  0.10570000000E+00 0.  1.
<mgrwt>
<rscale>  0 0.20001371E+02</rscale>
<asrwt>0</asrwt>
<pdfrwt beam="1">  1        4 0.12797542E-01 0.20001371E+02</pdfrwt>
<pdfrwt beam="2">  1       -4 0.18497212E-03 0.20001371E+02</pdfrwt>
<totfact> 0.10268672E+06</totfact>
</mgrwt>
</event>
<event>
 5    1  0.5675008E-007  0.2000139E+02  0.7818608E-02  0.1745300E+00
         -4   -1    0    0    0  501 -0.00000000000E+00  0.00000000000E+00  0.22190533075E+02  0.22235920448E+02  0.14200000000E+01 0.  1.
          4   -1    0    0  501    0  0.00000000000E+00 -0.00000000000E+00 -0.43438406964E+01  0.45700494522E+01  0.14200000000E+01 0. -1.
       1023    2    1    2    0    0  0.00000000000E+00  0.00000000000E+00  0.17846692379E+02  0.26805969900E+02  0.20001389787E+02 0.  0.
        -13    1    3    3    0    0 -0.99996123592E+01  0.10203894320E+00  0.89342821888E+01  0.13410265844E+02  0.10570000000E+00 0. -1.
         13    1    3    3    0    0  0.99996123592E+01 -0.10203894320E+00  0.89124101903E+01  0.13395704057E+02  0.10570000000E+00 0.  1.
<mgrwt>
<rscale>  0 0.20001390E+02</rscale>
<asrwt>0</asrwt>
<pdfrwt beam="2">  1        4 0.68917519E-03 0.20001390E+02</pdfrwt>
<pdfrwt beam="1">  1       -4 0.34348202E-02 0.20001390E+02</pdfrwt>
<totfact> 0.12624261E+06</totfact>
</mgrwt>
</event>
<event>
 4    1  0.5856933E-007  0.2011458E+02  0.7818608E-02  0.1743059E+00
         -4   -1    0    0    0  501 -0.00000000000E+00  0.00000000000E+00  0.18875245194E+02  0.18928583707E+02  0.14200000000E+01 0. -1.
          4   -1    0    0  501    0  0.00000000000E+00 -0.00000000000E+00 -0.52026364279E+01  0.53929422211E+01  0.14200000000E+01 0.  1.
        -13    1    1    2    0    0 -0.99977588798E+01  0.29812020969E+00  0.55716781951E+01  0.11449839679E+02  0.10570000000E+00 0.  1.
         13    1    1    2    0    0  0.99977588798E+01 -0.29812020969E+00  0.81009305714E+01  0.12871686249E+02  0.10570000000E+00 0. -1.
<mgrwt>
<rscale>  0 0.20114582E+02</rscale>
<asrwt>0</asrwt>
<pdfrwt beam="2">  1        4 0.81914748E-03 0.20114582E+02</pdfrwt>
<pdfrwt beam="1">  1       -4 0.29226257E-02 0.20114582E+02</pdfrwt>
<totfact> 0.12615865E+06</totfact>
</mgrwt>
</event>
<event>
 5    1  0.4710515E-007  0.2000394E+02  0.7818608E-02  0.1745250E+00
         -4   -1    0    0    0  501 -0.00000000000E+00  0.00000000000E+00  0.25217455791E+02  0.25257404391E+02  0.14200000000E+01 0.  1.
          4   -1    0    0  501    0  0.00000000000E+00 -0.00000000000E+00 -0.37954080860E+01  0.40523477812E+01  0.14200000000E+01 0. -1.
       1023    2    1    2    0    0  0.00000000000E+00  0.00000000000E+00  0.21422047705E+02  0.29309752173E+02  0.20003935726E+02 0.  0.
        -13    1    3    3    0    0 -0.95958911475E+01  0.28189331817E+01  0.10672887979E+02  0.14627003162E+02  0.10570000000E+00 0.  1.
         13    1    3    3    0    0  0.95958911475E+01 -0.28189331817E+01  0.10749159727E+02  0.14682749011E+02  0.10570000000E+00 0. -1.
<mgrwt>
<rscale>  0 0.20003936E+02</rscale>
<asrwt>0</asrwt>
<pdfrwt beam="2">  1        4 0.60674646E-03 0.20003936E+02</pdfrwt>
<pdfrwt beam="1">  1       -4 0.39024464E-02 0.20003936E+02</pdfrwt>
<totfact> 0.12486955E+06</totfact>
</mgrwt>
</event>
<event>
 5    1  0.4710515E-007  0.2000366E+02  0.7818608E-02  0.1745255E+00
          4   -1    0    0  501    0  0.00000000000E+00  0.00000000000E+00  0.32173689568E+01  0.35167972651E+01  0.14200000000E+01 0. -1.
         -4   -1    0    0    0  501 -0.00000000000E+00 -0.00000000000E+00 -0.29392825486E+02  0.29427106382E+02  0.14200000000E+01 0.  1.
       1023    2    1    2    0    0  0.00000000000E+00  0.00000000000E+00 -0.26175456529E+02  0.32943903648E+02  0.20003656242E+02 0.  0.
        -13    1    3    3    0    0 -0.40127967452E+01  0.91603050067E+01 -0.13265621288E+02  0.16613296066E+02  0.10570000000E+00 0. -1.
         13    1    3    3    0    0  0.40127967452E+01 -0.91603050067E+01 -0.12909835241E+02  0.16330607581E+02  0.10570000000E+00 0.  1.
<mgrwt>
<rscale>  0 0.20003656E+02</rscale>
<asrwt>0</asrwt>
<pdfrwt beam="1">  1        4 0.52064980E-03 0.20003656E+02</pdfrwt>
<pdfrwt beam="2">  1       -4 0.45476429E-02 0.20003656E+02</pdfrwt>
<totfact> 0.12299968E+06</totfact>
</mgrwt>
</event>
<event>
 5    1  0.4710515E-007  0.2000138E+02  0.7818608E-02  0.1745301E+00
          4   -1    0    0  501    0  0.00000000000E+00  0.00000000000E+00  0.45213739187E+00  0.14902443495E+01  0.14200000000E+01 0. -1.
         -4   -1    0    0    0  501 -0.00000000000E+00 -0.00000000000E+00 -0.10193489741E+03  0.10194478755E+03  0.14200000000E+01 0.  1.
       1023    2    1    2    0    0  0.00000000000E+00  0.00000000000E+00 -0.10148276001E+03  0.10343503190E+03  0.20001381065E+02 0.  0.
        -13    1    3    3    0    0  0.26494913259E+01 -0.96427110186E+01 -0.50901490112E+02  0.51874604077E+02  0.10570000000E+00 0. -1.
         13    1    3    3    0    0 -0.26494913259E+01  0.96427110186E+01 -0.50581269902E+02  0.51560427825E+02  0.10570000000E+00 0.  1.
<mgrwt>
<rscale>  0 0.20001381E+02</rscale>
<asrwt>0</asrwt>
<pdfrwt beam="1">  1        4 0.15017484E-03 0.20001381E+02</pdfrwt>
<pdfrwt beam="2">  1       -4 0.15762899E-01 0.20001381E+02</pdfrwt>
<totfact> 0.97031832E+05</totfact>
</mgrwt>
</event>
<event>
 5    1  0.4721430E-007  0.2000236E+02  0.7818608E-02  0.1745281E+00
         -4   -1    0    0    0  501 -0.00000000000E+00  0.00000000000E+00  0.69702758227E+01  0.71134481825E+01  0.14200000000E+01 0. -1.
          4   -1    0    0  501    0  0.00000000000E+00 -0.00000000000E+00 -0.14024758668E+02  0.14096462524E+02  0.14200000000E+01 0.  1.
       1023    2    1    2    0    0  0.00000000000E+00  0.00000000000E+00 -0.70544828452E+01  0.21209910707E+02  0.20002364459E+02 0.  0.
        -13    1    3    3    0    0  0.98288032614E+01  0.18456239832E+01 -0.34977779492E+01  0.10595155710E+02  0.10570000000E+00 0. -1.
         13    1    3    3    0    0 -0.98288032614E+01 -0.18456239832E+01 -0.35567048960E+01  0.10614754997E+02  0.10570000000E+00 0.  1.
<mgrwt>
<rscale>  0 0.20002364E+02</rscale>
<asrwt>0</asrwt>
<pdfrwt beam="2">  1        4 0.21741841E-02 0.20002364E+02</pdfrwt>
<pdfrwt beam="1">  1       -4 0.10888791E-02 0.20002364E+02</pdfrwt>
<totfact> 0.12939262E+06</totfact>
</mgrwt>
</event>
<event>
 5    1  0.4710515E-007  0.2000229E+02  0.7818608E-02  0.1745282E+00
          4   -1    0    0  501    0  0.00000000000E+00  0.00000000000E+00  0.13894014434E+01  0.19866646347E+01  0.14200000000E+01 0.  1.
         -4   -1    0    0    0  501 -0.00000000000E+00 -0.00000000000E+00 -0.58646749248E+02  0.58663937792E+02  0.14200000000E+01 0. -1.
       1023    2    1    2    0    0  0.00000000000E+00  0.00000000000E+00 -0.57257347804E+02  0.60650602427E+02  0.20002292299E+02 0.  0.
        -13    1    3    3    0    0  0.91525742929E+01 -0.40297551970E+01 -0.28456915399E+02  0.30163152184E+02  0.10570000000E+00 0. -1.
         13    1    3    3    0    0 -0.91525742929E+01  0.40297551970E+01 -0.28800432405E+02  0.30487450243E+02  0.10570000000E+00 0.  1.
<mgrwt>
<rscale>  0 0.20002292E+02</rscale>
<asrwt>0</asrwt>
<pdfrwt beam="1">  1        4 0.26101963E-03 0.20002292E+02</pdfrwt>
<pdfrwt beam="2">  1       -4 0.90698407E-02 0.20002292E+02</pdfrwt>
<totfact> 0.11091389E+06</totfact>
</mgrwt>
</event>
<event>
 5    1  0.4710515E-007  0.2000187E+02  0.7818608E-02  0.1745291E+00
          4   -1    0    0  501    0  0.00000000000E+00  0.00000000000E+00  0.67035089015E+02  0.67050127213E+02  0.14200000000E+01 0. -1.
         -4   -1    0    0    0  501 -0.00000000000E+00 -0.00000000000E+00 -0.11354438359E+01  0.18181399024E+01  0.14200000000E+01 0.  1.
       1023    2    1    2    0    0  0.00000000000E+00  0.00000000000E+00  0.65899645180E+02  0.68868267116E+02  0.20001874430E+02 0.  0.
        -13    1    3    3    0    0  0.67132538690E+01 -0.74120406866E+01  0.32818802289E+02  0.34308760993E+02  0.10570000000E+00 0.  1.
         13    1    3    3    0    0 -0.67132538690E+01  0.74120406866E+01  0.33080842890E+02  0.34559506123E+02  0.10570000000E+00 0. -1.
<mgrwt>
<rscale>  0 0.20001874E+02</rscale>
<asrwt>0</asrwt>
<pdfrwt beam="1">  1        4 0.10366765E-01 0.20001874E+02</pdfrwt>
<pdfrwt beam="2">  1       -4 0.22835548E-03 0.20001874E+02</pdfrwt>
<totfact> 0.10788906E+06</totfact>
</mgrwt>
</event>
<event>
 4    1  0.4710515E-007  0.2001343E+02  0.7818608E-02  0.1745061E+00
         -4   -1    0    0    0  501 -0.00000000000E+00  0.00000000000E+00  0.78196002761E+01  0.79474869285E+01  0.14200000000E+01 0.  1.
          4   -1    0    0  501    0  0.00000000000E+00 -0.00000000000E+00 -0.12533391979E+02  0.12613576594E+02  0.14200000000E+01 0. -1.
        -13    1    1    2    0    0  0.19059908918E+01 -0.98200533743E+01 -0.26020747130E+01  0.10336741017E+02  0.10570000000E+00 0. -1.
         13    1    1    2    0    0 -0.19059908918E+01  0.98200533743E+01 -0.21117169894E+01  0.10224322505E+02  0.10570000000E+00 0.  1.
<mgrwt>
<rscale>  0 0.20013433E+02</rscale>
<asrwt>0</asrwt>
<pdfrwt beam="2">  1        4 0.19442196E-02 0.20013433E+02</pdfrwt>
<pdfrwt beam="1">  1       -4 0.12190209E-02 0.20013433E+02</pdfrwt>
<totfact> 0.12962931E+06</totfact>
</mgrwt>
</event>
<event>
 4    1  0.4710515E-007  0.2002086E+02  0.7818608E-02  0.1744914E+00
         -4   -1    0    0    0  501 -0.00000000000E+00  0.00000000000E+00  0.43275431646E+01  0.45545614324E+01  0.14200000000E+01 0. -1.
          4   -1    0    0  501    0  0.00000000000E+00 -0.00000000000E+00 -0.22314014116E+02  0.22359150833E+02  0.14200000000E+01 0.  1.
        -13    1    1    2    0    0 -0.51389540939E+00 -0.99902044002E+01 -0.94765193957E+01  0.13779835442E+02  0.10570000000E+00 0. -1.
         13    1    1    2    0    0  0.51389540939E+00  0.99902044002E+01 -0.85099515555E+01  0.13133876824E+02  0.10570000000E+00 0.  1.
<mgrwt>
<rscale>  0 0.20020858E+02</rscale>
<asrwt>0</asrwt>
<pdfrwt beam="2">  1        4 0.34538602E-02 0.20020858E+02</pdfrwt>
<pdfrwt beam="1">  1       -4 0.68671088E-03 0.20020858E+02</pdfrwt>
<totfact> 0.12593443E+06</totfact>
</mgrwt>
</event>
<event>
 4    1  0.4710515E-007  0.2015858E+02  0.7818608E-02  0.1742193E+00
         -4   -1    0    0    0  501 -0.00000000000E+00  0.00000000000E+00  0.98547734502E+01  0.99565536083E+01  0.14200000000E+01 0.  1.
          4   -1    0    0  501    0  0.00000000000E+00 -0.00000000000E+00 -0.10104282188E+02  0.10203573812E+02  0.14200000000E+01 0. -1.
        -13    1    1    2    0    0  0.41193738798E+01 -0.91698157263E+01  0.60068842995E+00  0.10071085378E+02  0.10570000000E+00 0.  1.
         13    1    1    2    0    0 -0.41193738798E+01  0.91698157263E+01 -0.85019716814E+00  0.10089042042E+02  0.10570000000E+00 0. -1.
<mgrwt>
<rscale>  0 0.20158583E+02</rscale>
<asrwt>0</asrwt>
<pdfrwt beam="2">  1        4 0.15699720E-02 0.20158583E+02</pdfrwt>
<pdfrwt beam="1">  1       -4 0.15315860E-02 0.20158583E+02</pdfrwt>
<totfact> 0.12796294E+06</totfact>
</mgrwt>
</event>
<event>
 4    1  0.4710515E-007  0.2009910E+02  0.7818608E-02  0.1743364E+00
         -4   -1    0    0    0  501 -0.00000000000E+00  0.00000000000E+00  0.39247719820E+02  0.39273399536E+02  0.14200000000E+01 0. -1.
          4   -1    0    0  501    0  0.00000000000E+00 -0.00000000000E+00 -0.23486986967E+01  0.27445920586E+01  0.14200000000E+01 0.  1.
        -13    1    1    2    0    0 -0.40579386445E+01 -0.91930377603E+01  0.18326139614E+02  0.20900654893E+02  0.10570000000E+00 0.  1.
         13    1    1    2    0    0  0.40579386445E+01  0.91930377603E+01  0.18572881509E+02  0.21117336701E+02  0.10570000000E+00 0. -1.
<mgrwt>
<rscale>  0 0.20099101E+02</rscale>
<asrwt>0</asrwt>
<pdfrwt beam="2">  1        4 0.39376699E-03 0.20099101E+02</pdfrwt>
<pdfrwt beam="1">  1       -4 0.60705390E-02 0.20099101E+02</pdfrwt>
<totfact> 0.11751546E+06</totfact>
</mgrwt>
</event>
<event>
 5    1  0.4710515E-007  0.2000276E+02  0.7818608E-02  0.1745273E+00
         -4   -1    0    0    0  501 -0.00000000000E+00  0.00000000000E+00  0.22726398507E+01  0.26797932553E+01  0.14200000000E+01 0. -1.
          4   -1    0    0  501    0  0.00000000000E+00 -0.00000000000E+00 -0.39974558082E+02  0.39999771172E+02  0.14200000000E+01 0.  1.
       1023    2    1    2    0    0  0.00000000000E+00  0.00000000000E+00 -0.37701918231E+02  0.42679564428E+02  0.20002764345E+02 0.  0.
        -13    1    3    3    0    0 -0.95201240693E+01  0.30612980805E+01 -0.18615627936E+02  0.21131897316E+02  0.10570000000E+00 0.  1.
         13    1    3    3    0    0  0.95201240693E+01 -0.30612980805E+01 -0.19086290295E+02  0.21547667112E+02  0.10570000000E+00 0. -1.
<mgrwt>
<rscale>  0 0.20002764E+02</rscale>
<asrwt>0</asrwt>
<pdfrwt beam="2">  1        4 0.61831905E-02 0.20002764E+02</pdfrwt>
<pdfrwt beam="1">  1       -4 0.38289589E-03 0.20002764E+02</pdfrwt>
<totfact> 0.11836350E+06</totfact>
</mgrwt>
</event>
<event>
 5    1  0.4710515E-007  0.2000303E+02  0.7818608E-02  0.1745268E+00
          4   -1    0    0  501    0  0.00000000000E+00  0.00000000000E+00  0.88444248177E+02  0.88455646714E+02  0.14200000000E+01 0.  1.
         -4   -1    0    0    0  501 -0.00000000000E+00 -0.00000000000E+00 -0.66920615683E+00  0.15697888012E+01  0.14200000000E+01 0. -1.
       1023    2    1    2    0    0  0.00000000000E+00  0.00000000000E+00  0.87775042020E+02  0.90025435515E+02  0.20003025723E+02 0.  0.
        -13    1    3    3    0    0  0.99493608870E+01  0.10134836837E+01  0.43678556524E+02  0.44808976821E+02  0.10570000000E+00 0.  1.
         13    1    3    3    0    0 -0.99493608870E+01 -0.10134836837E+01  0.44096485496E+02  0.45216458694E+02  0.10570000000E+00 0. -1.
<mgrwt>
<rscale>  0 0.20003026E+02</rscale>
<asrwt>0</asrwt>
<pdfrwt beam="1">  1        4 0.13676959E-01 0.20003026E+02</pdfrwt>
<pdfrwt beam="2">  1       -4 0.17310721E-03 0.20003026E+02</pdfrwt>
<totfact> 0.10091880E+06</totfact>
</mgrwt>
</event>
<event>
 5    1  0.5022392E-007  0.2000251E+02  0.7818608E-02  0.1745278E+00
          4   -1    0    0  501    0  0.00000000000E+00  0.00000000000E+00  0.14677114901E+02  0.14745646877E+02  0.14200000000E+01 0. -1.
         -4   -1    0    0    0  501 -0.00000000000E+00 -0.00000000000E+00 -0.66555567952E+01  0.68053534996E+01  0.14200000000E+01 0.  1.
       1023    2    1    2    0    0  0.00000000000E+00  0.00000000000E+00  0.80215581061E+01  0.21551000377E+02  0.20002505413E+02 0.  0.
        -13    1    3    3    0    0 -0.39686095289E+01  0.91789730310E+01  0.41210534723E+01  0.10816545738E+02  0.10570000000E+00 0. -1.
         13    1    3    3    0    0  0.39686095289E+01 -0.91789730310E+01  0.39005046337E+01  0.10734454638E+02  0.10570000000E+00 0.  1.
<mgrwt>
<rscale>  0 0.20002505E+02</rscale>
<asrwt>0</asrwt>
<pdfrwt beam="1">  1        4 0.22748122E-02 0.20002505E+02</pdfrwt>
<pdfrwt beam="2">  1       -4 0.10407263E-02 0.20002505E+02</pdfrwt>
<totfact> 0.12919080E+06</totfact>
</mgrwt>
</event>
<event>
 5    1  0.4781560E-007  0.2000177E+02  0.7818608E-02  0.1745293E+00
         -4   -1    0    0    0  501 -0.00000000000E+00  0.00000000000E+00  0.20767906110E+01  0.25158416567E+01  0.14200000000E+01 0.  1.
          4   -1    0    0  501    0  0.00000000000E+00 -0.00000000000E+00 -0.43103852393E+02  0.43127236071E+02  0.14200000000E+01 0. -1.
       1023    2    1    2    0    0  0.00000000000E+00  0.00000000000E+00 -0.41027061782E+02  0.45643077728E+02  0.20001768572E+02 0.  0.
        -13    1    3    3    0    0  0.80662208397E+00  0.99674949889E+01 -0.20353493520E+02  0.22677686533E+02  0.10570000000E+00 0. -1.
         13    1    3    3    0    0 -0.80662208397E+00 -0.99674949889E+01 -0.20673568263E+02  0.22965391195E+02  0.10570000000E+00 0.  1.
<mgrwt>
<rscale>  0 0.20001769E+02</rscale>
<asrwt>0</asrwt>
<pdfrwt beam="2">  1        4 0.66669332E-02 0.20001769E+02</pdfrwt>
<pdfrwt beam="1">  1       -4 0.35507818E-03 0.20001769E+02</pdfrwt>
<totfact> 0.11705374E+06</totfact>
</mgrwt>
</event>
<event>
 5    1  0.4710515E-007  0.2000166E+02  0.7818608E-02  0.1745295E+00
         -4   -1    0    0    0  501 -0.00000000000E+00  0.00000000000E+00  0.11947553785E+03  0.11948397610E+03  0.14200000000E+01 0.  1.
          4   -1    0    0  501    0  0.00000000000E+00 -0.00000000000E+00 -0.22029626151E+00  0.14369865841E+01  0.14200000000E+01 0. -1.
       1023    2    1    2    0    0  0.00000000000E+00  0.00000000000E+00  0.11925524159E+03  0.12092096268E+03  0.20001664181E+02 0.  0.
        -13    1    3    3    0    0  0.96322889388E+01  0.26877598979E+01  0.59752478184E+02  0.60583618785E+02  0.10570000000E+00 0.  1.
         13    1    3    3    0    0 -0.96322889388E+01 -0.26877598979E+01  0.59502763403E+02  0.60337343897E+02  0.10570000000E+00 0. -1.
<mgrwt>
<rscale>  0 0.20001664E+02</rscale>
<asrwt>0</asrwt>
<pdfrwt beam="2">  1        4 0.12813249E-03 0.20001664E+02</pdfrwt>
<pdfrwt beam="1">  1       -4 0.18475079E-01 0.20001664E+02</pdfrwt>
<totfact> 0.92411551E+05</totfact>
</mgrwt>
</event>
<event>
 5    1  0.4710515E-007  0.2000295E+02  0.7818608E-02  0.1745269E+00
          4   -1    0    0  501    0  0.00000000000E+00  0.00000000000E+00  0.41172532704E+02  0.41197012626E+02  0.14200000000E+01 0.  1.
         -4   -1    0    0    0  501 -0.00000000000E+00 -0.00000000000E+00 -0.21945851181E+01  0.26139249875E+01  0.14200000000E+01 0. -1.
       1023    2    1    2    0    0  0.00000000000E+00  0.00000000000E+00  0.38977947586E+02  0.43810937613E+02  0.20002946196E+02 0.  0.
        -13    1    3    3    0    0 -0.74463970273E+01  0.66756282244E+01  0.19650676433E+02  0.22049333270E+02  0.10570000000E+00 0. -1.
         13    1    3    3    0    0  0.74463970273E+01 -0.66756282244E+01  0.19327271153E+02  0.21761604343E+02  0.10570000000E+00 0.  1.
<mgrwt>
<rscale>  0 0.20002946E+02</rscale>
<asrwt>0</asrwt>
<pdfrwt beam="1">  1        4 0.63683760E-02 0.20002946E+02</pdfrwt>
<pdfrwt beam="2">  1       -4 0.37176845E-03 0.20002946E+02</pdfrwt>
<totfact> 0.11785201E+06</totfact>
</mgrwt>
</event>
<event>
 5    1  0.4710515E-007  0.2000407E+02  0.7818608E-02  0.1745247E+00
          4   -1    0    0  501    0  0.00000000000E+00  0.00000000000E+00  0.49072160828E+01  0.51085388991E+01  0.14200000000E+01 0. -1.
         -4   -1    0    0    0  501 -0.00000000000E+00 -0.00000000000E+00 -0.19749333450E+02  0.19800317466E+02  0.14200000000E+01 0.  1.
       1023    2    1    2    0    0  0.00000000000E+00  0.00000000000E+00 -0.14842117368E+02  0.24908856365E+02  0.20004066523E+02 0.  0.
        -13    1    3    3    0    0  0.96439033893E+01 -0.26503991030E+01 -0.74247697096E+01  0.12456639423E+02  0.10570000000E+00 0. -1.
         13    1    3    3    0    0 -0.96439033893E+01  0.26503991030E+01 -0.74173476580E+01  0.12452216941E+02  0.10570000000E+00 0.  1.
<mgrwt>
<rscale>  0 0.20004067E+02</rscale>
<asrwt>0</asrwt>
<pdfrwt beam="1">  1        4 0.77436455E-03 0.20004067E+02</pdfrwt>
<pdfrwt beam="2">  1       -4 0.30577672E-02 0.20004067E+02</pdfrwt>
<totfact> 0.12725417E+06</totfact>
</mgrwt>
</event>
<event>
 5    1  0.4710515E-007  0.2000271E+02  0.7818608E-02  0.1745274E+00
          4   -1    0    0  501    0  0.00000000000E+00  0.00000000000E+00  0.30202736206E+02  0.30236098861E+02  0.14200000000E+01 0.  1.
         -4   -1    0    0    0  501 -0.00000000000E+00 -0.00000000000E+00 -0.31227288293E+01  0.34304278657E+01  0.14200000000E+01 0. -1.
       1023    2    1    2    0    0  0.00000000000E+00  0.00000000000E+00  0.27080007376E+02  0.33666526726E+02  0.20002705375E+02 0.  0.
        -13    1    3    3    0    0 -0.72214895949E+01 -0.69183495435E+01  0.13457365203E+02  0.16766792271E+02  0.10570000000E+00 0.  1.
         13    1    3    3    0    0  0.72214895949E+01  0.69183495435E+01  0.13622642174E+02  0.16899734455E+02  0.10570000000E+00 0. -1.
<mgrwt>
<rscale>  0 0.20002705E+02</rscale>
<asrwt>0</asrwt>
<pdfrwt beam="1">  1        4 0.46728105E-02 0.20002705E+02</pdfrwt>
<pdfrwt beam="2">  1       -4 0.50665531E-03 0.20002705E+02</pdfrwt>
<totfact> 0.12264839E+06</totfact>
</mgrwt>
</event>
<event>
 5    1  0.4710515E-007  0.2000378E+02  0.7818608E-02  0.1745253E+00
         -4   -1    0    0    0  501 -0.00000000000E+00  0.00000000000E+00  0.31016168590E+02  0.31048657201E+02  0.14200000000E+01 0. -1.
          4   -1    0    0  501    0  0.00000000000E+00 -0.00000000000E+00 -0.30331116665E+01  0.33490545503E+01  0.14200000000E+01 0.  1.
       1023    2    1    2    0    0  0.00000000000E+00  0.00000000000E+00  0.27983056923E+02  0.34397711751E+02  0.20003777117E+02 0.  0.
        -13    1    3    3    0    0 -0.84584591562E+01 -0.53367495492E+01  0.13968767771E+02  0.17180339711E+02  0.10570000000E+00 0.  1.
         13    1    3    3    0    0  0.84584591562E+01  0.53367495492E+01  0.14014289152E+02  0.17217372040E+02  0.10570000000E+00 0. -1.
<mgrwt>
<rscale>  0 0.20003777E+02</rscale>
<asrwt>0</asrwt>
<pdfrwt beam="2">  1        4 0.49343497E-03 0.20003777E+02</pdfrwt>
<pdfrwt beam="1">  1       -4 0.47985208E-02 0.20003777E+02</pdfrwt>
<totfact> 0.12227082E+06</totfact>
</mgrwt>
</event>
<event>
 5    1  0.4710515E-007  0.2001075E+02  0.7818608E-02  0.1745114E+00
          4   -1    0    0  501    0  0.00000000000E+00  0.00000000000E+00  0.46763705439E+02  0.46785259926E+02  0.14200000000E+01 0. -1.
         -4   -1    0    0    0  501 -0.00000000000E+00 -0.00000000000E+00 -0.18806676301E+01  0.23565463575E+01  0.14200000000E+01 0.  1.
       1023    2    1    2    0    0  0.00000000000E+00  0.00000000000E+00  0.44883037809E+02  0.49141806284E+02  0.20010748159E+02 0.  0.
        -13    1    3    3    0    0  0.26247896643E+01 -0.96525275751E+01  0.22904407964E+02  0.24993676921E+02  0.10570000000E+00 0. -1.
         13    1    3    3    0    0 -0.26247896643E+01  0.96525275751E+01  0.21978629845E+02  0.24148129363E+02  0.10570000000E+00 0.  1.
<mgrwt>
<rscale>  0 0.20010748E+02</rscale>
<asrwt>0</asrwt>
<pdfrwt beam="1">  1        4 0.72326799E-02 0.20010748E+02</pdfrwt>
<pdfrwt beam="2">  1       -4 0.32759759E-03 0.20010748E+02</pdfrwt>
<totfact> 0.11543937E+06</totfact>
</mgrwt>
</event>
<event>
 4    1  0.4710515E-007  0.2033100E+02  0.7818608E-02  0.1738825E+00
          4   -1    0    0  501    0  0.00000000000E+00  0.00000000000E+00  0.14337649641E+01  0.20179400319E+01  0.14200000000E+01 0. -1.
         -4   -1    0    0    0  501 -0.00000000000E+00 -0.00000000000E+00 -0.59281996961E+02  0.59299001372E+02  0.14200000000E+01 0.  1.
        -13    1    1    2    0    0  0.44681282400E+01 -0.90769802727E+01 -0.31895119036E+02  0.33461403612E+02  0.10570000000E+00 0.  1.
         13    1    1    2    0    0 -0.44681282400E+01  0.90769802727E+01 -0.25953112961E+02  0.27855537792E+02  0.10570000000E+00 0. -1.
<mgrwt>
<rscale>  0 0.20330995E+02</rscale>
<asrwt>0</asrwt>
<pdfrwt beam="1">  1        4 0.26682385E-03 0.20330995E+02</pdfrwt>
<pdfrwt beam="2">  1       -4 0.91665502E-02 0.20330995E+02</pdfrwt>
<totfact> 0.10707893E+06</totfact>
</mgrwt>
</event>
<event>
 5    1  0.4710515E-007  0.2000466E+02  0.7818608E-02  0.1745235E+00
         -4   -1    0    0    0  501 -0.00000000000E+00  0.00000000000E+00  0.37530646824E+02  0.37557500596E+02  0.14200000000E+01 0.  1.
          4   -1    0    0  501    0  0.00000000000E+00 -0.00000000000E+00 -0.24467544931E+01  0.28289587394E+01  0.14200000000E+01 0. -1.
       1023    2    1    2    0    0  0.00000000000E+00  0.00000000000E+00  0.35083892331E+02  0.40386459335E+02  0.20004664370E+02 0.  0.
        -13    1    3    3    0    0 -0.34466903088E+01 -0.93876578378E+01  0.17206046010E+02  0.19901431746E+02  0.10570000000E+00 0.  1.
         13    1    3    3    0    0  0.34466903088E+01  0.93876578378E+01  0.17877846320E+02  0.20485027589E+02  0.10570000000E+00 0. -1.
<mgrwt>
<rscale>  0 0.20004664E+02</rscale>
<asrwt>0</asrwt>
<pdfrwt beam="2">  1        4 0.40788980E-03 0.20004664E+02</pdfrwt>
<pdfrwt beam="1">  1       -4 0.58054112E-02 0.20004664E+02</pdfrwt>
<totfact> 0.11939024E+06</totfact>
</mgrwt>
</event>
<event>
 5    1  0.4710515E-007  0.2001062E+02  0.7818608E-02  0.1745117E+00
          4   -1    0    0  501    0  0.00000000000E+00  0.00000000000E+00  0.37762138417E+02  0.37788827685E+02  0.14200000000E+01 0. -1.
         -4   -1    0    0    0  501 -0.00000000000E+00 -0.00000000000E+00 -0.24311090691E+01  0.28154380309E+01  0.14200000000E+01 0.  1.
       1023    2    1    2    0    0  0.00000000000E+00  0.00000000000E+00  0.35331029348E+02  0.40604265716E+02  0.20010616171E+02 0.  0.
        -13    1    3    3    0    0 -0.24674496337E+01 -0.96945821919E+01  0.17965015649E+02  0.20562737934E+02  0.10570000000E+00 0. -1.
         13    1    3    3    0    0  0.24674496337E+01  0.96945821919E+01  0.17366013698E+02  0.20041527782E+02  0.10570000000E+00 0.  1.
<mgrwt>
<rscale>  0 0.20010616E+02</rscale>
<asrwt>0</asrwt>
<pdfrwt beam="1">  1        4 0.58411764E-02 0.20010616E+02</pdfrwt>
<pdfrwt beam="2">  1       -4 0.40563358E-03 0.20010616E+02</pdfrwt>
<totfact> 0.11921766E+06</totfact>
</mgrwt>
</event>
<event>
 5    1  0.4710515E-007  0.2000127E+02  0.7818608E-02  0.1745303E+00
          4   -1    0    0  501    0  0.00000000000E+00  0.00000000000E+00  0.58503095629E+01  0.60201762417E+01  0.14200000000E+01 0. -1.
         -4   -1    0    0    0  501 -0.00000000000E+00 -0.00000000000E+00 -0.16650132858E+02  0.16710575220E+02  0.14200000000E+01 0.  1.
       1023    2    1    2    0    0  0.00000000000E+00  0.00000000000E+00 -0.10799823295E+02  0.22730751462E+02  0.20001271930E+02 0.  0.
        -13    1    3    3    0    0  0.87105873169E+01  0.49119373160E+01 -0.53892742193E+01  0.11360321681E+02  0.10570000000E+00 0.  1.
         13    1    3    3    0    0 -0.87105873169E+01 -0.49119373160E+01 -0.54105490757E+01  0.11370429780E+02  0.10570000000E+00 0. -1.
<mgrwt>
<rscale>  0 0.20001272E+02</rscale>
<asrwt>0</asrwt>
<pdfrwt beam="1">  1        4 0.91776371E-03 0.20001272E+02</pdfrwt>
<pdfrwt beam="2">  1       -4 0.25792750E-02 0.20001272E+02</pdfrwt>
<totfact> 0.12852351E+06</totfact>
</mgrwt>
</event>
<event>
 5    1  0.4990961E-007  0.2000203E+02  0.7818608E-02  0.1745288E+00
          4   -1    0    0  501    0  0.00000000000E+00  0.00000000000E+00  0.11917400995E+02  0.12001701816E+02  0.14200000000E+01 0.  1.
         -4   -1    0    0    0  501 -0.00000000000E+00 -0.00000000000E+00 -0.82178070592E+01  0.83395894900E+01  0.14200000000E+01 0. -1.
       1023    2    1    2    0    0  0.00000000000E+00  0.00000000000E+00  0.36995939362E+01  0.20341291306E+02  0.20002028315E+02 0.  0.
        -13    1    3    3    0    0 -0.80678584245E+01 -0.59089194863E+01  0.19094661279E+01  0.10181498045E+02  0.10570000000E+00 0.  1.
         13    1    3    3    0    0  0.80678584245E+01  0.59089194863E+01  0.17901278084E+01  0.10159793261E+02  0.10570000000E+00 0. -1.
<mgrwt>
<rscale>  0 0.20002028E+02</rscale>
<asrwt>0</asrwt>
<pdfrwt beam="1">  1        4 0.18492989E-02 0.20002028E+02</pdfrwt>
<pdfrwt beam="2">  1       -4 0.12801306E-02 0.20002028E+02</pdfrwt>
<totfact> 0.12991045E+06</totfact>
</mgrwt>
</event>
<event>
 5    1  0.4710515E-007  0.2000573E+02  0.7818608E-02  0.1745214E+00
          4   -1    0    0  501    0  0.00000000000E+00  0.00000000000E+00  0.32918976725E+01  0.35851067329E+01  0.14200000000E+01 0.  1.
         -4   -1    0    0    0  501 -0.00000000000E+00 -0.00000000000E+00 -0.28787634058E+02  0.28822634762E+02  0.14200000000E+01 0. -1.
       1023    2    1    2    0    0  0.00000000000E+00  0.00000000000E+00 -0.25495736385E+02  0.32407741495E+02  0.20005727555E+02 0.  0.
        -13    1    3    3    0    0  0.17440267432E+01 -0.98482971550E+01 -0.12546025994E+02  0.16045077964E+02  0.10570000000E+00 0.  1.
         13    1    3    3    0    0 -0.17440267432E+01  0.98482971550E+01 -0.12949710391E+02  0.16362663531E+02  0.10570000000E+00 0. -1.
<mgrwt>
<rscale>  0 0.20005728E+02</rscale>
<asrwt>0</asrwt>
<pdfrwt beam="1">  1        4 0.53169272E-03 0.20005728E+02</pdfrwt>
<pdfrwt beam="2">  1       -4 0.44541135E-02 0.20005728E+02</pdfrwt>
<totfact> 0.12324526E+06</totfact>
</mgrwt>
</event>
<event>
 5    1  0.4710515E-007  0.2000120E+02  0.7818608E-02  0.1745304E+00
          4   -1    0    0  501    0  0.00000000000E+00  0.00000000000E+00  0.52047451048E+02  0.52066818230E+02  0.14200000000E+01 0.  1.
         -4   -1    0    0    0  501 -0.00000000000E+00 -0.00000000000E+00 -0.16367133398E+01  0.21668480696E+01  0.14200000000E+01 0. -1.
       1023    2    1    2    0    0  0.00000000000E+00  0.00000000000E+00  0.50410737708E+02  0.54233666300E+02  0.20001202064E+02 0.  0.
        -13    1    3    3    0    0 -0.33948009965E+01  0.94061609354E+01  0.25157538197E+02  0.27072374073E+02  0.10570000000E+00 0. -1.
         13    1    3    3    0    0  0.33948009965E+01 -0.94061609354E+01  0.25253199512E+02  0.27161292227E+02  0.10570000000E+00 0.  1.
<mgrwt>
<rscale>  0 0.20001202E+02</rscale>
<asrwt>0</asrwt>
<pdfrwt beam="1">  1        4 0.80495709E-02 0.20001202E+02</pdfrwt>
<pdfrwt beam="2">  1       -4 0.29407138E-03 0.20001202E+02</pdfrwt>
<totfact> 0.11344376E+06</totfact>
</mgrwt>
</event>
<event>
 4    1  0.4710515E-007  0.2001431E+02  0.7818608E-02  0.1745044E+00
          4   -1    0    0  501    0  0.00000000000E+00  0.00000000000E+00  0.15289895573E+01  0.20866741639E+01  0.14200000000E+01 0.  1.
         -4   -1    0    0    0  501 -0.00000000000E+00 -0.00000000000E+00 -0.54825751536E+02  0.54844137622E+02  0.14200000000E+01 0. -1.
        -13    1    1    2    0    0 -0.57928343792E+01  0.81593023518E+01 -0.26567635490E+02  0.28389814600E+02  0.10570000000E+00 0. -1.
         13    1    1    2    0    0  0.57928343792E+01 -0.81593023518E+01 -0.26729126489E+02  0.28540997186E+02  0.10570000000E+00 0.  1.
<mgrwt>
<rscale>  0 0.20014307E+02</rscale>
<asrwt>0</asrwt>
<pdfrwt beam="1">  1        4 0.27954234E-03 0.20014307E+02</pdfrwt>
<pdfrwt beam="2">  1       -4 0.84790429E-02 0.20014307E+02</pdfrwt>
<totfact> 0.11221990E+06</totfact>
</mgrwt>
</event>
<event>
 5    1  0.4710515E-007  0.2000139E+02  0.7818608E-02  0.1745300E+00
          4   -1    0    0  501    0  0.00000000000E+00  0.00000000000E+00  0.31584975656E+01  0.34630199064E+01  0.14200000000E+01 0.  1.
         -4   -1    0    0    0  501 -0.00000000000E+00 -0.00000000000E+00 -0.29886613895E+02  0.29920329045E+02  0.14200000000E+01 0. -1.
       1023    2    1    2    0    0  0.00000000000E+00  0.00000000000E+00 -0.26728116330E+02  0.33383348951E+02  0.20001394567E+02 0.  0.
        -13    1    3    3    0    0 -0.48168281632E+01 -0.87635851957E+01 -0.13401921472E+02  0.16721989435E+02  0.10570000000E+00 0.  1.
         13    1    3    3    0    0  0.48168281632E+01  0.87635851957E+01 -0.13326194858E+02  0.16661359516E+02  0.10570000000E+00 0. -1.
<mgrwt>
<rscale>  0 0.20001395E+02</rscale>
<asrwt>0</asrwt>
<pdfrwt beam="1">  1        4 0.51194099E-03 0.20001395E+02</pdfrwt>
<pdfrwt beam="2">  1       -4 0.46239587E-02 0.20001395E+02</pdfrwt>
<totfact> 0.12280666E+06</totfact>
</mgrwt>
</event>
<event>
 4    1  0.4710515E-007  0.2001640E+02  0.7818608E-02  0.1745002E+00
         -4   -1    0    0    0  501 -0.00000000000E+00  0.00000000000E+00  0.35551636664E+02  0.35579984113E+02  0.14200000000E+01 0.  1.
          4   -1    0    0  501    0  0.00000000000E+00 -0.00000000000E+00 -0.26070651521E+01  0.29687015187E+01  0.14200000000E+01 0. -1.
        -13    1    1    2    0    0 -0.29388239433E+01 -0.95636796865E+01  0.16912566471E+02  0.19650616592E+02  0.10570000000E+00 0. -1.
         13    1    1    2    0    0  0.29388239433E+01  0.95636796865E+01  0.16032005041E+02  0.18898069040E+02  0.10570000000E+00 0.  1.
<mgrwt>
<rscale>  0 0.20016403E+02</rscale>
<asrwt>0</asrwt>
<pdfrwt beam="2">  1        4 0.43108574E-03 0.20016403E+02</pdfrwt>
<pdfrwt beam="1">  1       -4 0.54994809E-02 0.20016403E+02</pdfrwt>
<totfact> 0.12010744E+06</totfact>
</mgrwt>
</event>
<event>
 5    1  0.4710515E-007  0.2000940E+02  0.7818608E-02  0.1745141E+00
         -4   -1    0    0    0  501 -0.00000000000E+00  0.00000000000E+00  0.11663846424E+01  0.18376215971E+01  0.14200000000E+01 0.  1.
          4   -1    0    0  501    0  0.00000000000E+00 -0.00000000000E+00 -0.65959758884E+02  0.65975042190E+02  0.14200000000E+01 0. -1.
       1023    2    1    2    0    0  0.00000000000E+00  0.00000000000E+00 -0.64793374242E+02  0.67812663788E+02  0.20009398401E+02 0.  0.
        -13    1    3    3    0    0 -0.99220725420E+01 -0.12729006276E+01 -0.32812229155E+02  0.34303372344E+02  0.10570000000E+00 0.  1.
         13    1    3    3    0    0  0.99220725420E+01  0.12729006276E+01 -0.31981145086E+02  0.33509291444E+02  0.10570000000E+00 0. -1.
<mgrwt>
<rscale>  0 0.20009398E+02</rscale>
<asrwt>0</asrwt>
<pdfrwt beam="2">  1        4 0.10200462E-01 0.20009398E+02</pdfrwt>
<pdfrwt beam="1">  1       -4 0.23225309E-03 0.20009398E+02</pdfrwt>
<totfact> 0.10818498E+06</totfact>
</mgrwt>
</event>
<event>
 5    1  0.4710515E-007  0.2000161E+02  0.7818608E-02  0.1745296E+00
          4   -1    0    0  501    0  0.00000000000E+00  0.00000000000E+00  0.45700479276E+02  0.45722534991E+02  0.14200000000E+01 0. -1.
         -4   -1    0    0    0  501 -0.00000000000E+00 -0.00000000000E+00 -0.19331262812E+01  0.23986198571E+01  0.14200000000E+01 0.  1.
       1023    2    1    2    0    0  0.00000000000E+00  0.00000000000E+00  0.43767352995E+02  0.48121154848E+02  0.20001608830E+02 0.  0.
        -13    1    3    3    0    0 -0.93088431604E+01 -0.36532059510E+01  0.21723334116E+02  0.23914742155E+02  0.10570000000E+00 0.  1.
         13    1    3    3    0    0  0.93088431604E+01  0.36532059510E+01  0.22044018878E+02  0.24206412694E+02  0.10570000000E+00 0. -1.
<mgrwt>
<rscale>  0 0.20001609E+02</rscale>
<asrwt>0</asrwt>
<pdfrwt beam="1">  1        4 0.70683468E-02 0.20001609E+02</pdfrwt>
<pdfrwt beam="2">  1       -4 0.33490783E-03 0.20001609E+02</pdfrwt>
<totfact> 0.11598083E+06</totfact>
</mgrwt>
</event>
<event>
 5    1  0.4710515E-007  0.2000205E+02  0.7818608E-02  0.1745287E+00
          4   -1    0    0  501    0  0.00000000000E+00  0.00000000000E+00  0.15963066916E+01  0.21364912950E+01  0.14200000000E+01 0.  1.
         -4   -1    0    0    0  501 -0.00000000000E+00 -0.00000000000E+00 -0.53039023924E+02  0.53058029164E+02  0.14200000000E+01 0. -1.
       1023    2    1    2    0    0  0.00000000000E+00  0.00000000000E+00 -0.51442717232E+02  0.55194520459E+02  0.20002048207E+02 0.  0.
        -13    1    3    3    0    0  0.87758254056E+01  0.47943352917E+01 -0.25466230316E+02  0.27359474071E+02  0.10570000000E+00 0. -1.
         13    1    3    3    0    0 -0.87758254056E+01 -0.47943352917E+01 -0.25976486916E+02  0.27835046388E+02  0.10570000000E+00 0.  1.
<mgrwt>
<rscale>  0 0.20002048E+02</rscale>
<asrwt>0</asrwt>
<pdfrwt beam="1">  1        4 0.28860029E-03 0.20002048E+02</pdfrwt>
<pdfrwt beam="2">  1       -4 0.82028633E-02 0.20002048E+02</pdfrwt>
<totfact> 0.11304784E+06</totfact>
</mgrwt>
</event>
<event>
 5    1  0.4710515E-007  0.2000502E+02  0.7818608E-02  0.1745228E+00
         -4   -1    0    0    0  501 -0.00000000000E+00  0.00000000000E+00  0.14992981566E+01  0.20650169400E+01  0.14200000000E+01 0. -1.
          4   -1    0    0  501    0  0.00000000000E+00 -0.00000000000E+00 -0.55563726426E+02  0.55581868396E+02  0.14200000000E+01 0.  1.
       1023    2    1    2    0    0  0.00000000000E+00  0.00000000000E+00 -0.54064428269E+02  0.57646885336E+02  0.20005023989E+02 0.  0.
        -13    1    3    3    0    0  0.45109012233E+01  0.89257235215E+01 -0.26601862860E+02  0.28419835509E+02  0.10570000000E+00 0.  1.
         13    1    3    3    0    0 -0.45109012233E+01 -0.89257235215E+01 -0.27462565409E+02  0.29227049827E+02  0.10570000000E+00 0. -1.
<mgrwt>
<rscale>  0 0.20005024E+02</rscale>
<asrwt>0</asrwt>
<pdfrwt beam="2">  1        4 0.85931766E-02 0.20005024E+02</pdfrwt>
<pdfrwt beam="1">  1       -4 0.27557366E-03 0.20005024E+02</pdfrwt>
<totfact> 0.11204372E+06</totfact>
</mgrwt>
</event>
<event>
 5    1  0.4749912E-007  0.2000169E+02  0.7818608E-02  0.1745294E+00
         -4   -1    0    0    0  501 -0.00000000000E+00  0.00000000000E+00  0.18830077409E+01  0.23584143301E+01  0.14200000000E+01 0.  1.
          4   -1    0    0  501    0  0.00000000000E+00 -0.00000000000E+00 -0.46674557982E+02  0.46696153619E+02  0.14200000000E+01 0. -1.
       1023    2    1    2    0    0  0.00000000000E+00  0.00000000000E+00 -0.44791550241E+02  0.49054567949E+02  0.20001691520E+02 0.  0.
        -13    1    3    3    0    0  0.99940662201E+01  0.35266802586E+00 -0.22388384622E+02  0.24520535737E+02  0.10570000000E+00 0. -1.
         13    1    3    3    0    0 -0.99940662201E+01 -0.35266802586E+00 -0.22403165619E+02  0.24534032212E+02  0.10570000000E+00 0.  1.
<mgrwt>
<rscale>  0 0.20001692E+02</rscale>
<asrwt>0</asrwt>
<pdfrwt beam="2">  1        4 0.72189314E-02 0.20001692E+02</pdfrwt>
<pdfrwt beam="1">  1       -4 0.32792447E-03 0.20001692E+02</pdfrwt>
<totfact> 0.11558189E+06</totfact>
</mgrwt>
</event>
<event>
 5    1  0.4710515E-007  0.2000565E+02  0.7818608E-02  0.1745216E+00
          4   -1    0    0  501    0  0.00000000000E+00  0.00000000000E+00  0.13450265580E+02  0.13525015497E+02  0.14200000000E+01 0. -1.
         -4   -1    0    0    0  501 -0.00000000000E+00 -0.00000000000E+00 -0.72748005343E+01  0.74120930117E+01  0.14200000000E+01 0.  1.
       1023    2    1    2    0    0  0.00000000000E+00  0.00000000000E+00  0.61754650460E+01  0.20937108508E+02  0.20005652805E+02 0.  0.
        -13    1    3    3    0    0  0.91228770707E+01  0.40972972823E+01  0.32709028265E+01  0.10522580903E+02  0.10570000000E+00 0. -1.
         13    1    3    3    0    0 -0.91228770707E+01 -0.40972972823E+01  0.29045622195E+01  0.10414527605E+02  0.10570000000E+00 0.  1.
<mgrwt>
<rscale>  0 0.20005653E+02</rscale>
<asrwt>0</asrwt>
<pdfrwt beam="1">  1        4 0.20855826E-02 0.20005653E+02</pdfrwt>
<pdfrwt beam="2">  1       -4 0.11355110E-02 0.20005653E+02</pdfrwt>
<totfact> 0.12950994E+06</totfact>
</mgrwt>
</event>
<event>
 5    1  0.4710515E-007  0.2000424E+02  0.7818608E-02  0.1745244E+00
         -4   -1    0    0    0  501 -0.00000000000E+00  0.00000000000E+00  0.36626549190E+01  0.39282872929E+01  0.14200000000E+01 0. -1.
          4   -1    0    0  501    0  0.00000000000E+00 -0.00000000000E+00 -0.26072728311E+02  0.26111368436E+02  0.14200000000E+01 0.  1.
       1023    2    1    2    0    0  0.00000000000E+00  0.00000000000E+00 -0.22410073392E+02  0.30039655729E+02  0.20004237723E+02 0.  0.
        -13    1    3    3    0    0 -0.34741795952E+01  0.93780070599E+01 -0.11384414599E+02  0.15153646707E+02  0.10570000000E+00 0.  1.
         13    1    3    3    0    0  0.34741795952E+01 -0.93780070599E+01 -0.11025658794E+02  0.14886009022E+02  0.10570000000E+00 0. -1.
<mgrwt>
<rscale>  0 0.20004238E+02</rscale>
<asrwt>0</asrwt>
<pdfrwt beam="2">  1        4 0.40345944E-02 0.20004238E+02</pdfrwt>
<pdfrwt beam="1">  1       -4 0.58689097E-03 0.20004238E+02</pdfrwt>
<totfact> 0.12448309E+06</totfact>
</mgrwt>
</event>
<event>
 5    1  0.4710515E-007  0.2000257E+02  0.7818608E-02  0.1745277E+00
         -4   -1    0    0    0  501 -0.00000000000E+00  0.00000000000E+00  0.19834338994E+02  0.19885105062E+02  0.14200000000E+01 0. -1.
          4   -1    0    0  501    0  0.00000000000E+00 -0.00000000000E+00 -0.48846065727E+01  0.50868242913E+01  0.14200000000E+01 0.  1.
       1023    2    1    2    0    0  0.00000000000E+00  0.00000000000E+00  0.14949732421E+02  0.24971929353E+02  0.20002568739E+02 0.  0.
        -13    1    3    3    0    0  0.64989253754E+01  0.76010863403E+01  0.74194271936E+01  0.12452775472E+02  0.10570000000E+00 0. -1.
         13    1    3    3    0    0 -0.64989253754E+01 -0.76010863403E+01  0.75303052276E+01  0.12519153881E+02  0.10570000000E+00 0.  1.
<mgrwt>
<rscale>  0 0.20002569E+02</rscale>
<asrwt>0</asrwt>
<pdfrwt beam="2">  1        4 0.77093824E-03 0.20002569E+02</pdfrwt>
<pdfrwt beam="1">  1       -4 0.30708970E-02 0.20002569E+02</pdfrwt>
<totfact> 0.12723835E+06</totfact>
</mgrwt>
</event>
<event>
 4    1  0.4710515E-007  0.2001375E+02  0.7818608E-02  0.1745055E+00
         -4   -1    0    0    0  501 -0.00000000000E+00  0.00000000000E+00  0.80640253262E+01  0.81880952889E+01  0.14200000000E+01 0.  1.
          4   -1    0    0  501    0  0.00000000000E+00 -0.00000000000E+00 -0.12157304534E+02  0.12239953167E+02  0.14200000000E+01 0. -1.
        -13    1    1    2    0    0  0.93969233952E+01 -0.34236003488E+01 -0.23744992722E+01  0.10279719253E+02  0.10570000000E+00 0.  1.
         13    1    1    2    0    0 -0.93969233952E+01  0.34236003488E+01 -0.17187799354E+01  0.10148329202E+02  0.10570000000E+00 0. -1.
<mgrwt>
<rscale>  0 0.20013751E+02</rscale>
<asrwt>0</asrwt>
<pdfrwt beam="2">  1        4 0.18862560E-02 0.20013751E+02</pdfrwt>
<pdfrwt beam="1">  1       -4 0.12565207E-02 0.20013751E+02</pdfrwt>
<totfact> 0.12970375E+06</totfact>
</mgrwt>
</event>
<event>
 4    1  0.4710515E-007  0.2024867E+02  0.7818608E-02  0.1740428E+00
          4   -1    0    0  501    0  0.00000000000E+00  0.00000000000E+00  0.18174908869E+02  0.18230296552E+02  0.14200000000E+01 0.  1.
         -4   -1    0    0    0  501 -0.00000000000E+00 -0.00000000000E+00 -0.54852475148E+01  0.56660692106E+01  0.14200000000E+01 0. -1.
        -13    1    1    2    0    0  0.98211580235E+01  0.22458440376E+01  0.51693774955E+01  0.11323983246E+02  0.10570000000E+00 0. -1.
         13    1    1    2    0    0 -0.98211580235E+01 -0.22458440376E+01  0.75202838585E+01  0.12572382518E+02  0.10570000000E+00 0.  1.
<mgrwt>
<rscale>  0 0.20248674E+02</rscale>
<asrwt>0</asrwt>
<pdfrwt beam="1">  1        4 0.28143098E-02 0.20248674E+02</pdfrwt>
<pdfrwt beam="2">  1       -4 0.86205419E-03 0.20248674E+02</pdfrwt>
<totfact> 0.12469060E+06</totfact>
</mgrwt>
</event>
<event>
 5    1  0.4710515E-007  0.2000159E+02  0.7818608E-02  0.1745296E+00
          4   -1    0    0  501    0  0.00000000000E+00  0.00000000000E+00  0.74229358292E+02  0.74242939276E+02  0.14200000000E+01 0. -1.
         -4   -1    0    0    0  501 -0.00000000000E+00 -0.00000000000E+00 -0.95566648818E+00  0.17116361870E+01  0.14200000000E+01 0.  1.
       1023    2    1    2    0    0  0.00000000000E+00  0.00000000000E+00  0.73273691803E+02  0.75954575463E+02  0.20001590519E+02 0.  0.
        -13    1    3    3    0    0  0.71926164027E+01 -0.69476416834E+01  0.36772582486E+02  0.38108233374E+02  0.10570000000E+00 0.  1.
         13    1    3    3    0    0 -0.71926164027E+01  0.69476416834E+01  0.36501109317E+02  0.37846342089E+02  0.10570000000E+00 0. -1.
<mgrwt>
<rscale>  0 0.20001591E+02</rscale>
<asrwt>0</asrwt>
<pdfrwt beam="1">  1        4 0.11479100E-01 0.20001591E+02</pdfrwt>
<pdfrwt beam="2">  1       -4 0.20622177E-03 0.20001591E+02</pdfrwt>
<totfact> 0.10543742E+06</totfact>
</mgrwt>
</event>
<event>
 4    1  0.4710515E-007  0.2001872E+02  0.7818608E-02  0.1744956E+00
         -4   -1    0    0    0  501 -0.00000000000E+00  0.00000000000E+00  0.13405330704E+01  0.19528002747E+01  0.14200000000E+01 0. -1.
          4   -1    0    0  501    0  0.00000000000E+00 -0.00000000000E+00 -0.60220263294E+02  0.60237002840E+02  0.14200000000E+01 0.  1.
        -13    1    1    2    0    0 -0.24816356868E+01  0.96904069444E+01 -0.28392941299E+02  0.30103700612E+02  0.10570000000E+00 0. -1.
         13    1    1    2    0    0  0.24816356868E+01 -0.96904069444E+01 -0.30486788925E+02  0.32086102503E+02  0.10570000000E+00 0.  1.
<mgrwt>
<rscale>  0 0.20018716E+02</rscale>
<asrwt>0</asrwt>
<pdfrwt beam="2">  1        4 0.93130393E-02 0.20018716E+02</pdfrwt>
<pdfrwt beam="1">  1       -4 0.25462104E-03 0.20018716E+02</pdfrwt>
<totfact> 0.11014837E+06</totfact>
</mgrwt>
</event>
<event>
 5    1  0.4710515E-007  0.2000414E+02  0.7818608E-02  0.1745246E+00
          4   -1    0    0  501    0  0.00000000000E+00  0.00000000000E+00  0.87608186416E+02  0.87619693718E+02  0.14200000000E+01 0.  1.
         -4   -1    0    0    0  501 -0.00000000000E+00 -0.00000000000E+00 -0.68432255331E+00  0.15762922816E+01  0.14200000000E+01 0. -1.
       1023    2    1    2    0    0  0.00000000000E+00  0.00000000000E+00  0.86923863863E+02  0.89195985999E+02  0.20004144808E+02 0.  0.
        -13    1    3    3    0    0  0.70238994436E+01  0.71186116252E+01  0.42823751497E+02  0.43976069170E+02  0.10570000000E+00 0.  1.
         13    1    3    3    0    0 -0.70238994436E+01 -0.71186116252E+01  0.44100112366E+02  0.45219916829E+02  0.10570000000E+00 0. -1.
<mgrwt>
<rscale>  0 0.20004145E+02</rscale>
<asrwt>0</asrwt>
<pdfrwt beam="1">  1        4 0.13547680E-01 0.20004145E+02</pdfrwt>
<pdfrwt beam="2">  1       -4 0.17477864E-03 0.20004145E+02</pdfrwt>
<totfact> 0.10116074E+06</totfact>
</mgrwt>
</event>
<event>
 4    1  0.4710515E-007  0.2002270E+02  0.7818608E-02  0.1744877E+00
          4   -1    0    0  501    0  0.00000000000E+00  0.00000000000E+00  0.67594756074E+01  0.69070189291E+01  0.14200000000E+01 0.  1.
         -4   -1    0    0    0  501 -0.00000000000E+00 -0.00000000000E+00 -0.14484934778E+02  0.14554371698E+02  0.14200000000E+01 0. -1.
        -13    1    1    2    0    0  0.57256439110E+01  0.82043407085E+01 -0.34887083367E+01  0.10596058843E+02  0.10570000000E+00 0.  1.
         13    1    1    2    0    0 -0.57256439110E+01 -0.82043407085E+01 -0.42367508336E+01  0.10865331784E+02  0.10570000000E+00 0. -1.
<mgrwt>
<rscale>  0 0.20022701E+02</rscale>
<asrwt>0</asrwt>
<pdfrwt beam="1">  1        4 0.10566101E-02 0.20022701E+02</pdfrwt>
<pdfrwt beam="2">  1       -4 0.22451423E-02 0.20022701E+02</pdfrwt>
<totfact> 0.12897740E+06</totfact>
</mgrwt>
</event>
<event>
 4    1  0.4710515E-007  0.2001428E+02  0.7818608E-02  0.1745044E+00
          4   -1    0    0  501    0  0.00000000000E+00  0.00000000000E+00  0.33949731454E+01  0.36799786220E+01  0.14200000000E+01 0. -1.
         -4   -1    0    0    0  501 -0.00000000000E+00 -0.00000000000E+00 -0.28005399759E+02  0.28041376851E+02  0.14200000000E+01 0.  1.
        -13    1    1    2    0    0 -0.78003120664E+01 -0.62678136355E+01 -0.12248174687E+02  0.15816425378E+02  0.10570000000E+00 0.  1.
         13    1    1    2    0    0  0.78003120664E+01  0.62678136355E+01 -0.12362251927E+02  0.15904930094E+02  0.10570000000E+00 0. -1.
<mgrwt>
<rscale>  0 0.20014277E+02</rscale>
<asrwt>0</asrwt>
<pdfrwt beam="1">  1        4 0.54699455E-03 0.20014277E+02</pdfrwt>
<pdfrwt beam="2">  1       -4 0.43332139E-02 0.20014277E+02</pdfrwt>
<totfact> 0.12348812E+06</totfact>
</mgrwt>
</event>
<event>
 5    1  0.4710515E-007  0.2000238E+02  0.7818608E-02  0.1745281E+00
          4   -1    0    0  501    0  0.00000000000E+00  0.00000000000E+00  0.38012078803E+01  0.40577803476E+01  0.14200000000E+01 0. -1.
         -4   -1    0    0    0  501 -0.00000000000E+00 -0.00000000000E+00 -0.25177385157E+02  0.25217397236E+02  0.14200000000E+01 0.  1.
       1023    2    1    2    0    0  0.00000000000E+00  0.00000000000E+00 -0.21376177277E+02  0.29275177584E+02  0.20002376548E+02 0.  0.
        -13    1    3    3    0    0 -0.70437063133E+01  0.70990036378E+01 -0.10767488999E+02  0.14695565423E+02  0.10570000000E+00 0.  1.
         13    1    3    3    0    0  0.70437063133E+01 -0.70990036378E+01 -0.10608688278E+02  0.14579612161E+02  0.10570000000E+00 0. -1.
<mgrwt>
<rscale>  0 0.20002377E+02</rscale>
<asrwt>0</asrwt>
<pdfrwt beam="1">  1        4 0.60761542E-03 0.20002377E+02</pdfrwt>
<pdfrwt beam="2">  1       -4 0.38962580E-02 0.20002377E+02</pdfrwt>
<totfact> 0.12490755E+06</totfact>
</mgrwt>
</event>
<event>
 4    1  0.4710515E-007  0.2001437E+02  0.7818608E-02  0.1745042E+00
         -4   -1    0    0    0  501 -0.00000000000E+00  0.00000000000E+00  0.12749879717E+01  0.19084009872E+01  0.14200000000E+01 0.  1.
          4   -1    0    0  501    0  0.00000000000E+00 -0.00000000000E+00 -0.62273347360E+02  0.62289535168E+02  0.14200000000E+01 0. -1.
        -13    1    1    2    0    0 -0.55403034146E+01  0.83314504085E+01 -0.31002161349E+02  0.32576881506E+02  0.10570000000E+00 0.  1.
         13    1    1    2    0    0  0.55403034146E+01 -0.83314504085E+01 -0.29996198039E+02  0.31621054649E+02  0.10570000000E+00 0. -1.
<mgrwt>
<rscale>  0 0.20014374E+02</rscale>
<asrwt>0</asrwt>
<pdfrwt beam="2">  1        4 0.96304824E-02 0.20014374E+02</pdfrwt>
<pdfrwt beam="1">  1       -4 0.24612134E-03 0.20014374E+02</pdfrwt>
<totfact> 0.10944755E+06</totfact>
</mgrwt>
</event>
<event>
 5    1  0.4710515E-007  0.2000215E+02  0.7818608E-02  0.1745285E+00
          4   -1    0    0  501    0  0.00000000000E+00  0.00000000000E+00  0.33671024572E+01  0.36542822766E+01  0.14200000000E+01 0.  1.
         -4   -1    0    0    0  501 -0.00000000000E+00 -0.00000000000E+00 -0.28184762530E+02  0.28220510960E+02  0.14200000000E+01 0. -1.
       1023    2    1    2    0    0  0.00000000000E+00  0.00000000000E+00 -0.24817660073E+02  0.31874793237E+02  0.20002154694E+02 0.  0.
        -13    1    3    3    0    0 -0.90452816093E+01  0.42651703199E+01 -0.12345519754E+02  0.15888103340E+02  0.10570000000E+00 0. -1.
         13    1    3    3    0    0  0.90452816093E+01 -0.42651703199E+01 -0.12472140318E+02  0.15986689897E+02  0.10570000000E+00 0.  1.
<mgrwt>
<rscale>  0 0.20002155E+02</rscale>
<asrwt>0</asrwt>
<pdfrwt beam="1">  1        4 0.54285642E-03 0.20002155E+02</pdfrwt>
<pdfrwt beam="2">  1       -4 0.43609578E-02 0.20002155E+02</pdfrwt>
<totfact> 0.12356161E+06</totfact>
</mgrwt>
</event>
<event>
 5    1  0.4710515E-007  0.2000165E+02  0.7818608E-02  0.1745295E+00
         -4   -1    0    0    0  501 -0.00000000000E+00  0.00000000000E+00  0.59864895883E+02  0.59881734770E+02  0.14200000000E+01 0.  1.
          4   -1    0    0  501    0  0.00000000000E+00 -0.00000000000E+00 -0.13487339631E+01  0.19584389965E+01  0.14200000000E+01 0. -1.
       1023    2    1    2    0    0  0.00000000000E+00  0.00000000000E+00  0.58516161919E+02  0.61840173766E+02  0.20001647073E+02 0.  0.
        -13    1    3    3    0    0 -0.87845310202E+01 -0.47783485760E+01  0.29046153370E+02  0.30719550753E+02  0.10570000000E+00 0. -1.
         13    1    3    3    0    0  0.87845310202E+01  0.47783485760E+01  0.29470008549E+02  0.31120623014E+02  0.10570000000E+00 0.  1.
<mgrwt>
<rscale>  0 0.20001647E+02</rscale>
<asrwt>0</asrwt>
<pdfrwt beam="2">  1        4 0.25569325E-03 0.20001647E+02</pdfrwt>
<pdfrwt beam="1">  1       -4 0.92581787E-02 0.20001647E+02</pdfrwt>
<totfact> 0.11046936E+06</totfact>
</mgrwt>
</event>
<event>
 5    1  0.4710515E-007  0.2000288E+02  0.7818608E-02  0.1745271E+00
         -4   -1    0    0    0  501 -0.00000000000E+00  0.00000000000E+00  0.67847671731E+01  0.69317721827E+01  0.14200000000E+01 0. -1.
          4   -1    0    0  501    0  0.00000000000E+00 -0.00000000000E+00 -0.14402839773E+02  0.14472670573E+02  0.14200000000E+01 0.  1.
       1023    2    1    2    0    0  0.00000000000E+00  0.00000000000E+00 -0.76180725998E+01  0.21404442756E+02  0.20002878282E+02 0.  0.
        -13    1    3    3    0    0  0.98855414055E+01 -0.15134401873E+01 -0.38694010437E+01  0.10723705843E+02  0.10570000000E+00 0.  1.
         13    1    3    3    0    0 -0.98855414055E+01  0.15134401873E+01 -0.37486715561E+01  0.10680736913E+02  0.10570000000E+00 0. -1.
<mgrwt>
<rscale>  0 0.20002878E+02</rscale>
<asrwt>0</asrwt>
<pdfrwt beam="2">  1        4 0.22325012E-02 0.20002878E+02</pdfrwt>
<pdfrwt beam="1">  1       -4 0.10604900E-02 0.20002878E+02</pdfrwt>
<totfact> 0.12927166E+06</totfact>
</mgrwt>
</event>
<event>
 5    1  0.4710515E-007  0.2000202E+02  0.7818608E-02  0.1745288E+00
         -4   -1    0    0    0  501 -0.00000000000E+00  0.00000000000E+00  0.33821880917E+02  0.33851676897E+02  0.14200000000E+01 0. -1.
          4   -1    0    0  501    0  0.00000000000E+00 -0.00000000000E+00 -0.27538118782E+01  0.30983672895E+01  0.14200000000E+01 0.  1.
       1023    2    1    2    0    0  0.00000000000E+00  0.00000000000E+00  0.31068069038E+02  0.36950044186E+02  0.20002021188E+02 0.  0.
        -13    1    3    3    0    0  0.68944649241E+01  0.72437932898E+01  0.15435369919E+02  0.18392063637E+02  0.10570000000E+00 0.  1.
         13    1    3    3    0    0 -0.68944649241E+01 -0.72437932898E+01  0.15632699120E+02  0.18557980549E+02  0.10570000000E+00 0. -1.
<mgrwt>
<rscale>  0 0.20002021E+02</rscale>
<asrwt>0</asrwt>
<pdfrwt beam="2">  1        4 0.45245963E-03 0.20002021E+02</pdfrwt>
<pdfrwt beam="1">  1       -4 0.52321625E-02 0.20002021E+02</pdfrwt>
<totfact> 0.12104523E+06</totfact>
</mgrwt>
</event>
<event>
 5    1  0.4710515E-007  0.2000209E+02  0.7818608E-02  0.1745286E+00
          4   -1    0    0  501    0  0.00000000000E+00  0.00000000000E+00  0.59118600861E+02  0.59135652256E+02  0.14200000000E+01 0. -1.
         -4   -1    0    0    0  501 -0.00000000000E+00 -0.00000000000E+00 -0.13734905789E+01  0.19755698850E+01  0.14200000000E+01 0.  1.
       1023    2    1    2    0    0  0.00000000000E+00  0.00000000000E+00  0.57745110282E+02  0.61111222141E+02  0.20002092643E+02 0.  0.
        -13    1    3    3    0    0 -0.33147185876E+01  0.94349101928E+01  0.29085665023E+02  0.30756982491E+02  0.10570000000E+00 0. -1.
         13    1    3    3    0    0  0.33147185876E+01 -0.94349101928E+01  0.28659445260E+02  0.30354239650E+02  0.10570000000E+00 0.  1.
<mgrwt>
<rscale>  0 0.20002093E+02</rscale>
<asrwt>0</asrwt>
<pdfrwt beam="1">  1        4 0.91427948E-02 0.20002093E+02</pdfrwt>
<pdfrwt beam="2">  1       -4 0.25893168E-03 0.20002093E+02</pdfrwt>
<totfact> 0.11074066E+06</totfact>
</mgrwt>
</event>
<event>
 5    1  0.4710515E-007  0.2000476E+02  0.7818608E-02  0.1745233E+00
         -4   -1    0    0    0  501 -0.00000000000E+00  0.00000000000E+00  0.20261532752E+02  0.20311231116E+02  0.14200000000E+01 0. -1.
          4   -1    0    0  501    0  0.00000000000E+00 -0.00000000000E+00 -0.47786784789E+01  0.49851948813E+01  0.14200000000E+01 0.  1.
       1023    2    1    2    0    0  0.00000000000E+00  0.00000000000E+00  0.15482854273E+02  0.25296425997E+02  0.20004759229E+02 0.  0.
        -13    1    3    3    0    0  0.79984761588E+01 -0.60050574816E+01  0.77294815079E+01  0.12640901593E+02  0.10570000000E+00 0. -1.
         13    1    3    3    0    0 -0.79984761588E+01  0.60050574816E+01  0.77533727648E+01  0.12655524404E+02  0.10570000000E+00 0.  1.
<mgrwt>
<rscale>  0 0.20004759E+02</rscale>
<asrwt>0</asrwt>
<pdfrwt beam="2">  1        4 0.75489011E-03 0.20004759E+02</pdfrwt>
<pdfrwt beam="1">  1       -4 0.31368678E-02 0.20004759E+02</pdfrwt>
<totfact> 0.12702930E+06</totfact>
</mgrwt>
</event>
<event>
 4    1  0.4710515E-007  0.2002158E+02  0.7818608E-02  0.1744899E+00
          4   -1    0    0  501    0  0.00000000000E+00  0.00000000000E+00  0.15763060773E+01  0.21215892273E+01  0.14200000000E+01 0. -1.
         -4   -1    0    0    0  501 -0.00000000000E+00 -0.00000000000E+00 -0.53645536917E+02  0.53664327361E+02  0.14200000000E+01 0.  1.
        -13    1    1    2    0    0  0.92666523309E+01 -0.37847232497E+01 -0.25759148060E+02  0.27635843696E+02  0.10570000000E+00 0.  1.
         13    1    1    2    0    0 -0.92666523309E+01  0.37847232497E+01 -0.26310082779E+02  0.28150072892E+02  0.10570000000E+00 0. -1.
<mgrwt>
<rscale>  0 0.20021581E+02</rscale>
<asrwt>0</asrwt>
<pdfrwt beam="1">  1        4 0.28589894E-03 0.20021581E+02</pdfrwt>
<pdfrwt beam="2">  1       -4 0.82965486E-02 0.20021581E+02</pdfrwt>
<totfact> 0.11259021E+06</totfact>
</mgrwt>
</event>
<event>
 5    1  0.4710515E-007  0.2000254E+02  0.7818608E-02  0.1745278E+00
          4   -1    0    0  501    0  0.00000000000E+00  0.00000000000E+00  0.66226504194E+02  0.66241725957E+02  0.14200000000E+01 0. -1.
         -4   -1    0    0    0  501 -0.00000000000E+00 -0.00000000000E+00 -0.11577094312E+01  0.18321274866E+01  0.14200000000E+01 0.  1.
       1023    2    1    2    0    0  0.00000000000E+00  0.00000000000E+00  0.65068794763E+02  0.68073853444E+02  0.20002536609E+02 0.  0.
        -13    1    3    3    0    0  0.53742973913E+01 -0.84335790158E+01  0.32795091135E+02  0.34286112385E+02  0.10570000000E+00 0.  1.
         13    1    3    3    0    0 -0.53742973913E+01  0.84335790158E+01  0.32273703628E+02  0.33787741058E+02  0.10570000000E+00 0. -1.
<mgrwt>
<rscale>  0 0.20002537E+02</rscale>
<asrwt>0</asrwt>
<pdfrwt beam="1">  1        4 0.10241741E-01 0.20002537E+02</pdfrwt>
<pdfrwt beam="2">  1       -4 0.23115839E-03 0.20002537E+02</pdfrwt>
<totfact> 0.10816577E+06</totfact>
</mgrwt>
</event>
<event>
 5    1  0.4710515E-007  0.2000174E+02  0.7818608E-02  0.1745293E+00
         -4   -1    0    0    0  501 -0.00000000000E+00  0.00000000000E+00  0.74261355317E+01  0.75606804545E+01  0.14200000000E+01 0. -1.
          4   -1    0    0  501    0  0.00000000000E+00 -0.00000000000E+00 -0.13174345586E+02  0.13250652121E+02  0.14200000000E+01 0.  1.
       1023    2    1    2    0    0  0.00000000000E+00  0.00000000000E+00 -0.57482100547E+01  0.20811332575E+02  0.20001741043E+02 0.  0.
        -13    1    3    3    0    0  0.89916081880E+01  0.43767907925E+01 -0.29057198559E+01  0.10414398486E+02  0.10570000000E+00 0.  1.
         13    1    3    3    0    0 -0.89916081880E+01 -0.43767907925E+01 -0.28424901988E+01  0.10396934090E+02  0.10570000000E+00 0. -1.
<mgrwt>
<rscale>  0 0.20001741E+02</rscale>
<asrwt>0</asrwt>
<pdfrwt beam="2">  1        4 0.20430417E-02 0.20001741E+02</pdfrwt>
<pdfrwt beam="1">  1       -4 0.11587017E-02 0.20001741E+02</pdfrwt>
<totfact> 0.12963603E+06</totfact>
</mgrwt>
</event>
<event>
 5    1  0.4710515E-007  0.2000197E+02  0.7818608E-02  0.1745289E+00
         -4   -1    0    0    0  501 -0.00000000000E+00  0.00000000000E+00  0.32737476264E+01  0.35684483352E+01  0.14200000000E+01 0. -1.
          4   -1    0    0  501    0  0.00000000000E+00 -0.00000000000E+00 -0.28923275366E+02  0.28958112126E+02  0.14200000000E+01 0.  1.
       1023    2    1    2    0    0  0.00000000000E+00  0.00000000000E+00 -0.25649527740E+02  0.32526560462E+02  0.20001971457E+02 0.  0.
        -13    1    3    3    0    0 -0.84809638110E+01 -0.52992257375E+01 -0.12822206778E+02  0.16261263780E+02  0.10570000000E+00 0.  1.
         13    1    3    3    0    0  0.84809638110E+01  0.52992257375E+01 -0.12827320962E+02  0.16265296681E+02  0.10570000000E+00 0. -1.
<mgrwt>
<rscale>  0 0.20001971E+02</rscale>
<asrwt>0</asrwt>
<pdfrwt beam="2">  1        4 0.44750835E-02 0.20001971E+02</pdfrwt>
<pdfrwt beam="1">  1       -4 0.52900254E-03 0.20001971E+02</pdfrwt>
<totfact> 0.12323191E+06</totfact>
</mgrwt>
</event>
<event>
 5    1  0.4710515E-007  0.2000835E+02  0.7818608E-02  0.1745162E+00
          4   -1    0    0  501    0  0.00000000000E+00  0.00000000000E+00  0.34344328091E+01  0.37164134216E+01  0.14200000000E+01 0.  1.
         -4   -1    0    0    0  501 -0.00000000000E+00 -0.00000000000E+00 -0.27691182611E+02  0.27727567408E+02  0.14200000000E+01 0. -1.
       1023    2    1    2    0    0  0.00000000000E+00  0.00000000000E+00 -0.24256749801E+02  0.31443980830E+02  0.20008348745E+02 0.  0.
        -13    1    3    3    0    0 -0.63845401106E+01  0.77000891446E+01 -0.11914003963E+02  0.15556618790E+02  0.10570000000E+00 0.  1.
         13    1    3    3    0    0  0.63845401106E+01 -0.77000891446E+01 -0.12342745839E+02  0.15887362040E+02  0.10570000000E+00 0. -1.
<mgrwt>
<rscale>  0 0.20008349E+02</rscale>
<asrwt>0</asrwt>
<pdfrwt beam="1">  1        4 0.55286395E-03 0.20008349E+02</pdfrwt>
<pdfrwt beam="2">  1       -4 0.42846714E-02 0.20008349E+02</pdfrwt>
<totfact> 0.12370469E+06</totfact>
</mgrwt>
</event>
<event>
 5    1  0.4710515E-007  0.2000379E+02  0.7818608E-02  0.1745253E+00
          4   -1    0    0  501    0  0.00000000000E+00  0.00000000000E+00  0.25441052483E+02  0.25480650530E+02  0.14200000000E+01 0.  1.
         -4   -1    0    0    0  501 -0.00000000000E+00 -0.00000000000E+00 -0.37597809835E+01  0.40189990102E+01  0.14200000000E+01 0. -1.
       1023    2    1    2    0    0  0.00000000000E+00  0.00000000000E+00  0.21681271499E+02  0.29499649540E+02  0.20003794369E+02 0.  0.
        -13    1    3    3    0    0  0.78247009338E+01 -0.62290312067E+01  0.10841476945E+02  0.14750443021E+02  0.10570000000E+00 0.  1.
         13    1    3    3    0    0 -0.78247009338E+01  0.62290312067E+01  0.10839794554E+02  0.14749206519E+02  0.10570000000E+00 0. -1.
<mgrwt>
<rscale>  0 0.20003794E+02</rscale>
<asrwt>0</asrwt>
<pdfrwt beam="1">  1        4 0.39369939E-02 0.20003794E+02</pdfrwt>
<pdfrwt beam="2">  1       -4 0.60141369E-03 0.20003794E+02</pdfrwt>
<totfact> 0.12477145E+06</totfact>
</mgrwt>
</event>
<event>
 5    1  0.4710515E-007  0.2000150E+02  0.7818608E-02  0.1745298E+00
         -4   -1    0    0    0  501 -0.00000000000E+00  0.00000000000E+00  0.53709791692E+02  0.53728559664E+02  0.14200000000E+01 0. -1.
          4   -1    0    0  501    0  0.00000000000E+00 -0.00000000000E+00 -0.15694734172E+01  0.21165176132E+01  0.14200000000E+01 0.  1.
       1023    2    1    2    0    0  0.00000000000E+00  0.00000000000E+00  0.52140318275E+02  0.55845077277E+02  0.20001496602E+02 0.  0.
        -13    1    3    3    0    0 -0.17610598941E+01  0.98438889593E+01  0.26119500155E+02  0.27968606377E+02  0.10570000000E+00 0. -1.
         13    1    3    3    0    0  0.17610598941E+01 -0.98438889593E+01  0.26020818119E+02  0.27876470901E+02  0.10570000000E+00 0.  1.
<mgrwt>
<rscale>  0 0.20001497E+02</rscale>
<asrwt>0</asrwt>
<pdfrwt beam="2">  1        4 0.28498146E-03 0.20001497E+02</pdfrwt>
<pdfrwt beam="1">  1       -4 0.83065690E-02 0.20001497E+02</pdfrwt>
<totfact> 0.11279452E+06</totfact>
</mgrwt>
</event>
<event>
 4    1  0.4710515E-007  0.2007174E+02  0.7818608E-02  0.1743905E+00
          4   -1    0    0  501    0  0.00000000000E+00  0.00000000000E+00  0.17859806165E+01  0.22816938363E+01  0.14200000000E+01 0. -1.
         -4   -1    0    0    0  501 -0.00000000000E+00 -0.00000000000E+00 -0.49014247389E+02  0.49034812604E+02  0.14200000000E+01 0.  1.
        -13    1    1    2    0    0 -0.40133128885E+01  0.91955471425E+01 -0.24142580057E+02  0.26144600052E+02  0.10570000000E+00 0.  1.
         13    1    1    2    0    0  0.40133128885E+01 -0.91955471425E+01 -0.23085686716E+02  0.25171906388E+02  0.10570000000E+00 0. -1.
<mgrwt>
<rscale>  0 0.20071738E+02</rscale>
<asrwt>0</asrwt>
<pdfrwt beam="1">  1        4 0.31448001E-03 0.20071738E+02</pdfrwt>
<pdfrwt beam="2">  1       -4 0.75803662E-02 0.20071738E+02</pdfrwt>
<totfact> 0.11382674E+06</totfact>
</mgrwt>
</event>
<event>
 5    1  0.4710515E-007  0.2000463E+02  0.7818608E-02  0.1745236E+00
         -4   -1    0    0    0  501 -0.00000000000E+00  0.00000000000E+00  0.62187950353E+01  0.63788566132E+01  0.14200000000E+01 0.  1.
          4   -1    0    0  501    0  0.00000000000E+00 -0.00000000000E+00 -0.15690789009E+02  0.15754912241E+02  0.14200000000E+01 0. -1.
       1023    2    1    2    0    0  0.00000000000E+00  0.00000000000E+00 -0.94719939733E+01  0.22133768854E+02  0.20004625811E+02 0.  0.
        -13    1    3    3    0    0  0.99330746425E+01  0.11697689831E+01 -0.47055019061E+01  0.11053834267E+02  0.10570000000E+00 0.  1.
         13    1    3    3    0    0 -0.99330746425E+01 -0.11697689831E+01 -0.47664920672E+01  0.11079934587E+02  0.10570000000E+00 0. -1.
<mgrwt>
<rscale>  0 0.20004626E+02</rscale>
<asrwt>0</asrwt>
<pdfrwt beam="2">  1        4 0.24312125E-02 0.20004626E+02</pdfrwt>
<pdfrwt beam="1">  1       -4 0.97398269E-03 0.20004626E+02</pdfrwt>
<totfact> 0.12882389E+06</totfact>
</mgrwt>
</event>
<event>
 5    1  0.4710515E-007  0.2000117E+02  0.7818608E-02  0.1745305E+00
          4   -1    0    0  501    0  0.00000000000E+00  0.00000000000E+00  0.40591141486E+02  0.40615971823E+02  0.14200000000E+01 0.  1.
         -4   -1    0    0    0  501 -0.00000000000E+00 -0.00000000000E+00 -0.22314837427E+01  0.26449800933E+01  0.14200000000E+01 0. -1.
       1023    2    1    2    0    0  0.00000000000E+00  0.00000000000E+00  0.38359657743E+02  0.43260951916E+02  0.20001165429E+02 0.  0.
        -13    1    3    3    0    0 -0.89897771133E+01 -0.43799792033E+01  0.19151481251E+02  0.21605340011E+02  0.10570000000E+00 0.  1.
         13    1    3    3    0    0  0.89897771133E+01  0.43799792033E+01  0.19208176491E+02  0.21655611905E+02  0.10570000000E+00 0. -1.
<mgrwt>
<rscale>  0 0.20001165E+02</rscale>
<asrwt>0</asrwt>
<pdfrwt beam="1">  1        4 0.62785085E-02 0.20001165E+02</pdfrwt>
<pdfrwt beam="2">  1       -4 0.37702262E-03 0.20001165E+02</pdfrwt>
<totfact> 0.11812010E+06</totfact>
</mgrwt>
</event>
<event>
 5    1  0.4710515E-007  0.2000180E+02  0.7818608E-02  0.1745292E+00
         -4   -1    0    0    0  501 -0.00000000000E+00  0.00000000000E+00  0.15855035293E+01  0.21284316859E+01  0.14200000000E+01 0.  1.
          4   -1    0    0  501    0  0.00000000000E+00 -0.00000000000E+00 -0.53307161864E+02  0.53326071541E+02  0.14200000000E+01 0. -1.
       1023    2    1    2    0    0  0.00000000000E+00  0.00000000000E+00 -0.51721658334E+02  0.55454503226E+02  0.20001799600E+02 0.  0.
        -13    1    3    3    0    0 -0.76847860671E+01 -0.63990909882E+01 -0.26000060111E+02  0.27857110415E+02  0.10570000000E+00 0. -1.
         13    1    3    3    0    0  0.76847860671E+01  0.63990909882E+01 -0.25721598223E+02  0.27597392812E+02  0.10570000000E+00 0.  1.
<mgrwt>
<rscale>  0 0.20001800E+02</rscale>
<asrwt>0</asrwt>
<pdfrwt beam="2">  1        4 0.82443190E-02 0.20001800E+02</pdfrwt>
<pdfrwt beam="1">  1       -4 0.28714196E-03 0.20001800E+02</pdfrwt>
<totfact> 0.11294674E+06</totfact>
</mgrwt>
</event>
<event>
 5    1  0.4710515E-007  0.2000159E+02  0.7818608E-02  0.1745297E+00
          4   -1    0    0  501    0  0.00000000000E+00  0.00000000000E+00  0.58770796505E+01  0.60461942756E+01  0.14200000000E+01 0. -1.
         -4   -1    0    0    0  501 -0.00000000000E+00 -0.00000000000E+00 -0.16576678499E+02  0.16637387717E+02  0.14200000000E+01 0.  1.
       1023    2    1    2    0    0  0.00000000000E+00  0.00000000000E+00 -0.10699598848E+02  0.22683581993E+02  0.20001586850E+02 0.  0.
        -13    1    3    3    0    0 -0.47643766561E+01 -0.87921651022E+01 -0.54143980446E+01  0.11372261463E+02  0.10570000000E+00 0.  1.
         13    1    3    3    0    0  0.47643766561E+01  0.87921651022E+01 -0.52852008038E+01  0.11311320530E+02  0.10570000000E+00 0. -1.
<mgrwt>
<rscale>  0 0.20001587E+02</rscale>
<asrwt>0</asrwt>
<pdfrwt beam="1">  1        4 0.92184486E-03 0.20001587E+02</pdfrwt>
<pdfrwt beam="2">  1       -4 0.25679370E-02 0.20001587E+02</pdfrwt>
<totfact> 0.12854649E+06</totfact>
</mgrwt>
</event>
<event>
 5    1  0.4710515E-007  0.2000238E+02  0.7818608E-02  0.1745281E+00
          4   -1    0    0  501    0  0.00000000000E+00  0.00000000000E+00  0.35943730144E+01  0.38647014590E+01  0.14200000000E+01 0. -1.
         -4   -1    0    0    0  501 -0.00000000000E+00 -0.00000000000E+00 -0.26529358759E+02  0.26567334758E+02  0.14200000000E+01 0.  1.
       1023    2    1    2    0    0  0.00000000000E+00  0.00000000000E+00 -0.22934985745E+02  0.30432036217E+02  0.20002381289E+02 0.  0.
        -13    1    3    3    0    0  0.41895721026E+01 -0.90805754381E+01 -0.11380397328E+02  0.15150378891E+02  0.10570000000E+00 0.  1.
         13    1    3    3    0    0 -0.41895721026E+01  0.90805754381E+01 -0.11554588416E+02  0.15281657327E+02  0.10570000000E+00 0. -1.
<mgrwt>
<rscale>  0 0.20002381E+02</rscale>
<asrwt>0</asrwt>
<pdfrwt beam="1">  1        4 0.57669621E-03 0.20002381E+02</pdfrwt>
<pdfrwt beam="2">  1       -4 0.41051554E-02 0.20002381E+02</pdfrwt>
<totfact> 0.12430229E+06</totfact>
</mgrwt>
</event>
<event>
 4    1  0.4710515E-007  0.2019897E+02  0.7818608E-02  0.1741400E+00
          4   -1    0    0  501    0  0.00000000000E+00  0.00000000000E+00  0.41676955878E+01  0.44029633785E+01  0.14200000000E+01 0.  1.
         -4   -1    0    0    0  501 -0.00000000000E+00 -0.00000000000E+00 -0.23544798402E+02  0.23587580032E+02  0.14200000000E+01 0. -1.
        -13    1    1    2    0    0  0.97355619838E+01  0.26617447822E+01 -0.92037859239E+01  0.13659681557E+02  0.10570000000E+00 0. -1.
         13    1    1    2    0    0 -0.97355619838E+01 -0.26617447822E+01 -0.10173316890E+02  0.14330861854E+02  0.10570000000E+00 0.  1.
<mgrwt>
<rscale>  0 0.20198970E+02</rscale>
<asrwt>0</asrwt>
<pdfrwt beam="1">  1        4 0.66257237E-03 0.20198970E+02</pdfrwt>
<pdfrwt beam="2">  1       -4 0.36436650E-02 0.20198970E+02</pdfrwt>
<totfact> 0.12311354E+06</totfact>
</mgrwt>
</event>
<event>
 5    1  0.4710515E-007  0.2000135E+02  0.7818608E-02  0.1745301E+00
         -4   -1    0    0    0  501 -0.00000000000E+00  0.00000000000E+00  0.40186275746E+01  0.42621318121E+01  0.14200000000E+01 0. -1.
          4   -1    0    0  501    0  0.00000000000E+00 -0.00000000000E+00 -0.23890419772E+02  0.23932583581E+02  0.14200000000E+01 0.  1.
       1023    2    1    2    0    0  0.00000000000E+00  0.00000000000E+00 -0.19871792197E+02  0.28194715394E+02  0.20001346229E+02 0.  0.
        -13    1    3    3    0    0  0.73772646815E+01 -0.67511331169E+01 -0.99660542723E+01  0.14118613345E+02  0.10570000000E+00 0. -1.
         13    1    3    3    0    0 -0.73772646815E+01  0.67511331169E+01 -0.99057379251E+01  0.14076102048E+02  0.10570000000E+00 0.  1.
<mgrwt>
<rscale>  0 0.20001346E+02</rscale>
<asrwt>0</asrwt>
<pdfrwt beam="2">  1        4 0.36974236E-02 0.20001346E+02</pdfrwt>
<pdfrwt beam="1">  1       -4 0.64022487E-03 0.20001346E+02</pdfrwt>
<totfact> 0.12549410E+06</totfact>
</mgrwt>
</event>
<event>
 5    1  0.4710515E-007  0.2000128E+02  0.7818608E-02  0.1745303E+00
         -4   -1    0    0    0  501 -0.00000000000E+00  0.00000000000E+00  0.76354797413E+01  0.77663988360E+01  0.14200000000E+01 0.  1.
          4   -1    0    0  501    0  0.00000000000E+00 -0.00000000000E+00 -0.12816624997E+02  0.12895048519E+02  0.14200000000E+01 0. -1.
       1023    2    1    2    0    0  0.00000000000E+00  0.00000000000E+00 -0.51811452554E+01  0.20661447355E+02  0.20001278475E+02 0.  0.
        -13    1    3    3    0    0  0.81596894570E+01 -0.57809898680E+01 -0.26269013014E+01  0.10339833598E+02  0.10570000000E+00 0.  1.
         13    1    3    3    0    0 -0.81596894570E+01  0.57809898680E+01 -0.25542439540E+01  0.10321613757E+02  0.10570000000E+00 0. -1.
<mgrwt>
<rscale>  0 0.20001278E+02</rscale>
<asrwt>0</asrwt>
<pdfrwt beam="2">  1        4 0.19878917E-02 0.20001278E+02</pdfrwt>
<pdfrwt beam="1">  1       -4 0.11907925E-02 0.20001278E+02</pdfrwt>
<totfact> 0.12973084E+06</totfact>
</mgrwt>
</event>
<event>
 5    1  0.4710515E-007  0.2000129E+02  0.7818608E-02  0.1745302E+00
         -4   -1    0    0    0  501 -0.00000000000E+00  0.00000000000E+00  0.26871902123E+02  0.26909394711E+02  0.14200000000E+01 0.  1.
          4   -1    0    0  501    0  0.00000000000E+00 -0.00000000000E+00 -0.35447352383E+01  0.38185793052E+01  0.14200000000E+01 0. -1.
       1023    2    1    2    0    0  0.00000000000E+00  0.00000000000E+00  0.23327166885E+02  0.30727974017E+02  0.20001291765E+02 0.  0.
        -13    1    3    3    0    0  0.78023476235E+01 -0.62549686742E+01  0.11629783934E+02  0.15338328083E+02  0.10570000000E+00 0.  1.
         13    1    3    3    0    0 -0.78023476235E+01  0.62549686742E+01  0.11697382952E+02  0.15389645933E+02  0.10570000000E+00 0. -1.
<mgrwt>
<rscale>  0 0.20001292E+02</rscale>
<asrwt>0</asrwt>
<pdfrwt beam="2">  1        4 0.56929287E-03 0.20001292E+02</pdfrwt>
<pdfrwt beam="1">  1       -4 0.41580877E-02 0.20001292E+02</pdfrwt>
<totfact> 0.12416262E+06</totfact>
</mgrwt>
</event>
<event>
 5    1  0.4710515E-007  0.2001072E+02  0.7818608E-02  0.1745115E+00
         -4   -1    0    0    0  501 -0.00000000000E+00  0.00000000000E+00  0.50650607097E+00  0.15076300607E+01  0.14200000000E+01 0. -1.
          4   -1    0    0  501    0  0.00000000000E+00 -0.00000000000E+00 -0.98395798030E+02  0.98406043869E+02  0.14200000000E+01 0. -1.
       1023    2    1    2    0    0  0.00000000000E+00  0.00000000000E+00 -0.97889291959E+02  0.99913673930E+02  0.20010716077E+02 0.  0.
        -13    1    3    3    0    0  0.86422695554E+01 -0.50341526387E+01 -0.50212723931E+02  0.51199221995E+02  0.10570000000E+00 0.  1.
         13    1    3    3    0    0 -0.86422695554E+01  0.50341526387E+01 -0.47676568028E+02  0.48714451934E+02  0.10570000000E+00 0. -1.
<mgrwt>
<rscale>  0 0.20010716E+02</rscale>
<asrwt>0</asrwt>
<pdfrwt beam="2">  1        4 0.15215605E-01 0.20010716E+02</pdfrwt>
<pdfrwt beam="1">  1       -4 0.15572177E-03 0.20010716E+02</pdfrwt>
<totfact> 0.97932369E+05</totfact>
</mgrwt>
</event>
<event>
 5    1  0.4710515E-007  0.2000415E+02  0.7818608E-02  0.1745246E+00
          4   -1    0    0  501    0  0.00000000000E+00  0.00000000000E+00  0.11272100378E+03  0.11272994763E+03  0.14200000000E+01 0.  1.
         -4   -1    0    0    0  501 -0.00000000000E+00 -0.00000000000E+00 -0.30470205925E+00  0.14523234299E+01  0.14200000000E+01 0. -1.
       1023    2    1    2    0    0  0.00000000000E+00  0.00000000000E+00  0.11241630172E+03  0.11418227106E+03  0.20004152877E+02 0.  0.
        -13    1    3    3    0    0 -0.91592544491E+01 -0.40156645781E+01  0.56855353440E+02  0.57728328326E+02  0.10570000000E+00 0.  1.
         13    1    3    3    0    0  0.91592544491E+01  0.40156645781E+01  0.55560948276E+02  0.56453942731E+02  0.10570000000E+00 0. -1.
<mgrwt>
<rscale>  0 0.20004153E+02</rscale>
<asrwt>0</asrwt>
<pdfrwt beam="1">  1        4 0.17430666E-01 0.20004153E+02</pdfrwt>
<pdfrwt beam="2">  1       -4 0.13584374E-03 0.20004153E+02</pdfrwt>
<totfact> 0.94109740E+05</totfact>
</mgrwt>
</event>
<event>
 5    1  0.4710515E-007  0.2000321E+02  0.7818608E-02  0.1745264E+00
         -4   -1    0    0    0  501 -0.00000000000E+00  0.00000000000E+00  0.98047258086E+00  0.17256090177E+01  0.14200000000E+01 0. -1.
          4   -1    0    0  501    0  0.00000000000E+00 -0.00000000000E+00 -0.73177388214E+02  0.73191164397E+02  0.14200000000E+01 0.  1.
       1023    2    1    2    0    0  0.00000000000E+00  0.00000000000E+00 -0.72196915633E+02  0.74916773415E+02  0.20003207542E+02 0.  0.
        -13    1    3    3    0    0 -0.72997101032E+01 -0.68362851201E+01 -0.36029027768E+02  0.37391477321E+02  0.10570000000E+00 0.  1.
         13    1    3    3    0    0  0.72997101032E+01  0.68362851201E+01 -0.36167887865E+02  0.37525296094E+02  0.10570000000E+00 0. -1.
<mgrwt>
<rscale>  0 0.20003208E+02</rscale>
<asrwt>0</asrwt>
<pdfrwt beam="2">  1        4 0.11316435E-01 0.20003208E+02</pdfrwt>
<pdfrwt beam="1">  1       -4 0.20921989E-03 0.20003208E+02</pdfrwt>
<totfact> 0.10577140E+06</totfact>
</mgrwt>
</event>
<event>
 5    1  0.4710515E-007  0.2001227E+02  0.7818608E-02  0.1745084E+00
         -4   -1    0    0    0  501 -0.00000000000E+00  0.00000000000E+00  0.66094911114E+00  0.15662866045E+01  0.14200000000E+01 0.  1.
          4   -1    0    0  501    0  0.00000000000E+00 -0.00000000000E+00 -0.88994349031E+02  0.89005677119E+02  0.14200000000E+01 0. -1.
       1023    2    1    2    0    0  0.00000000000E+00  0.00000000000E+00 -0.88333399920E+02  0.90571963724E+02  0.20012273019E+02 0.  0.
        -13    1    3    3    0    0 -0.29849065886E+01  0.95499619000E+01 -0.44110223134E+02  0.45230900909E+02  0.10570000000E+00 0. -1.
         13    1    3    3    0    0  0.29849065886E+01 -0.95499619000E+01 -0.44223176785E+02  0.45341062814E+02  0.10570000000E+00 0.  1.
<mgrwt>
<rscale>  0 0.20012273E+02</rscale>
<asrwt>0</asrwt>
<pdfrwt beam="2">  1        4 0.13761945E-01 0.20012273E+02</pdfrwt>
<pdfrwt beam="1">  1       -4 0.17219729E-03 0.20012273E+02</pdfrwt>
<totfact> 0.10065973E+06</totfact>
</mgrwt>
</event>
<event>
 5    1  0.4710515E-007  0.2000312E+02  0.7818608E-02  0.1745266E+00
          4   -1    0    0  501    0  0.00000000000E+00  0.00000000000E+00  0.59687078492E+02  0.59703967530E+02  0.14200000000E+01 0. -1.
         -4   -1    0    0    0  501 -0.00000000000E+00 -0.00000000000E+00 -0.13548559412E+01  0.19626600881E+01  0.14200000000E+01 0.  1.
       1023    2    1    2    0    0  0.00000000000E+00  0.00000000000E+00  0.58332222550E+02  0.61666627619E+02  0.20003119111E+02 0.  0.
        -13    1    3    3    0    0  0.18250544813E+01  0.98322179703E+01  0.28767874563E+02  0.30456610340E+02  0.10570000000E+00 0. -1.
         13    1    3    3    0    0 -0.18250544813E+01 -0.98322179703E+01  0.29564347988E+02  0.31210017278E+02  0.10570000000E+00 0.  1.
<mgrwt>
<rscale>  0 0.20003119E+02</rscale>
<asrwt>0</asrwt>
<pdfrwt beam="1">  1        4 0.92306810E-02 0.20003119E+02</pdfrwt>
<pdfrwt beam="2">  1       -4 0.25649269E-03 0.20003119E+02</pdfrwt>
<totfact> 0.11051861E+06</totfact>
</mgrwt>
</event>
<event>
 4    1  0.4710515E-007  0.2006853E+02  0.7818608E-02  0.1743969E+00
         -4   -1    0    0    0  501 -0.00000000000E+00  0.00000000000E+00  0.22899048880E+02  0.22943034664E+02  0.14200000000E+01 0. -1.
          4   -1    0    0  501    0  0.00000000000E+00 -0.00000000000E+00 -0.42327364794E+01  0.44645781552E+01  0.14200000000E+01 0.  1.
        -13    1    1    2    0    0  0.10117160194E+01  0.99516220725E+01  0.10405889478E+02  0.14434405409E+02  0.10570000000E+00 0. -1.
         13    1    1    2    0    0 -0.10117160194E+01 -0.99516220725E+01  0.82604229218E+01  0.12973207410E+02  0.10570000000E+00 0.  1.
<mgrwt>
<rscale>  0 0.20068533E+02</rscale>
<asrwt>0</asrwt>
<pdfrwt beam="2">  1        4 0.67240774E-03 0.20068533E+02</pdfrwt>
<pdfrwt beam="1">  1       -4 0.35441480E-02 0.20068533E+02</pdfrwt>
<totfact> 0.12506053E+06</totfact>
</mgrwt>
</event>
<event>
 5    1  0.4710515E-007  0.2000243E+02  0.7818608E-02  0.1745280E+00
         -4   -1    0    0    0  501 -0.00000000000E+00  0.00000000000E+00  0.27364994608E+02  0.27401812529E+02  0.14200000000E+01 0. -1.
          4   -1    0    0  501    0  0.00000000000E+00 -0.00000000000E+00 -0.34764058918E+01  0.37552360677E+01  0.14200000000E+01 0.  1.
       1023    2    1    2    0    0  0.00000000000E+00  0.00000000000E+00  0.23888588716E+02  0.31157048597E+02  0.20002425014E+02 0.  0.
        -13    1    3    3    0    0  0.54506086092E+01  0.83845652498E+01  0.11858828756E+02  0.15512996506E+02  0.10570000000E+00 0.  1.
         13    1    3    3    0    0 -0.54506086092E+01 -0.83845652498E+01  0.12029759960E+02  0.15644052091E+02  0.10570000000E+00 0. -1.
<mgrwt>
<rscale>  0 0.20002425E+02</rscale>
<asrwt>0</asrwt>
<pdfrwt beam="2">  1        4 0.55911229E-03 0.20002425E+02</pdfrwt>
<pdfrwt beam="1">  1       -4 0.42342799E-02 0.20002425E+02</pdfrwt>
<totfact> 0.12392687E+06</totfact>
</mgrwt>
</event>
<event>
 5    1  0.4710515E-007  0.2000863E+02  0.7818608E-02  0.1745157E+00
          4   -1    0    0  501    0  0.00000000000E+00  0.00000000000E+00  0.23976925760E+02  0.24018937714E+02  0.14200000000E+01 0. -1.
         -4   -1    0    0    0  501 -0.00000000000E+00 -0.00000000000E+00 -0.40064005561E+01  0.42506052999E+01  0.14200000000E+01 0.  1.
       1023    2    1    2    0    0  0.00000000000E+00  0.00000000000E+00  0.19970525204E+02  0.28269543014E+02  0.20008627771E+02 0.  0.
        -13    1    3    3    0    0 -0.41043192483E+00 -0.99945340656E+01  0.98067805587E+01  0.14008685983E+02  0.10570000000E+00 0. -1.
         13    1    3    3    0    0  0.41043192483E+00  0.99945340656E+01  0.10163744646E+02  0.14260857031E+02  0.10570000000E+00 0.  1.
<mgrwt>
<rscale>  0 0.20008628E+02</rscale>
<asrwt>0</asrwt>
<pdfrwt beam="1">  1        4 0.37107745E-02 0.20008628E+02</pdfrwt>
<pdfrwt beam="2">  1       -4 0.63838599E-03 0.20008628E+02</pdfrwt>
<totfact> 0.12536130E+06</totfact>
</mgrwt>
</event>
<event>
 5    1  0.4710515E-007  0.2000371E+02  0.7818608E-02  0.1745254E+00
          4   -1    0    0  501    0  0.00000000000E+00  0.00000000000E+00  0.19610447848E+01  0.24211767073E+01  0.14200000000E+01 0. -1.
         -4   -1    0    0    0  501 -0.00000000000E+00 -0.00000000000E+00 -0.45183406971E+02  0.45205714965E+02  0.14200000000E+01 0.  1.
       1023    2    1    2    0    0  0.00000000000E+00  0.00000000000E+00 -0.43222362186E+02  0.47626891672E+02  0.20003705092E+02 0.  0.
        -13    1    3    3    0    0  0.79610558167E+01  0.60524925173E+01 -0.21321468321E+02  0.23550525668E+02  0.10570000000E+00 0. -1.
         13    1    3    3    0    0 -0.79610558167E+01 -0.60524925173E+01 -0.21900893864E+02  0.24076366004E+02  0.10570000000E+00 0.  1.
<mgrwt>
<rscale>  0 0.20003705E+02</rscale>
<asrwt>0</asrwt>
<pdfrwt beam="1">  1        4 0.33881000E-03 0.20003705E+02</pdfrwt>
<pdfrwt beam="2">  1       -4 0.69884034E-02 0.20003705E+02</pdfrwt>
<totfact> 0.11616849E+06</totfact>
</mgrwt>
</event>
<event>
 5    1  0.4710515E-007  0.2000218E+02  0.7818608E-02  0.1745285E+00
         -4   -1    0    0    0  501 -0.00000000000E+00  0.00000000000E+00  0.27921130744E+02  0.27957216278E+02  0.14200000000E+01 0.  1.
          4   -1    0    0  501    0  0.00000000000E+00 -0.00000000000E+00 -0.34015603690E+01  0.36860565574E+01  0.14200000000E+01 0. -1.
       1023    2    1    2    0    0  0.00000000000E+00  0.00000000000E+00  0.24519570375E+02  0.31643272835E+02  0.20002184490E+02 0.  0.
        -13    1    3    3    0    0 -0.48559155605E+01  0.87424671103E+01  0.12251641926E+02  0.15815326411E+02  0.10570000000E+00 0. -1.
         13    1    3    3    0    0  0.48559155605E+01 -0.87424671103E+01  0.12267928449E+02  0.15827946424E+02  0.10570000000E+00 0.  1.
<mgrwt>
<rscale>  0 0.20002184E+02</rscale>
<asrwt>0</asrwt>
<pdfrwt beam="2">  1        4 0.54797711E-03 0.20002184E+02</pdfrwt>
<pdfrwt beam="1">  1       -4 0.43202187E-02 0.20002184E+02</pdfrwt>
<totfact> 0.12367980E+06</totfact>
</mgrwt>
</event>
<event>
 5    1  0.4710515E-007  0.2000368E+02  0.7818608E-02  0.1745255E+00
          4   -1    0    0  501    0  0.00000000000E+00  0.00000000000E+00  0.14097237771E+02  0.14168574832E+02  0.14200000000E+01 0. -1.
         -4   -1    0    0    0  501 -0.00000000000E+00 -0.00000000000E+00 -0.69348255371E+01  0.70787149420E+01  0.14200000000E+01 0.  1.
       1023    2    1    2    0    0  0.00000000000E+00  0.00000000000E+00  0.71624122336E+01  0.21247289774E+02  0.20003679005E+02 0.  0.
        -13    1    3    3    0    0 -0.77397428431E+01  0.63338835300E+01  0.36477176948E+01  0.10646065786E+02  0.10570000000E+00 0. -1.
         13    1    3    3    0    0  0.77397428431E+01 -0.63338835300E+01  0.35146945389E+01  0.10601223988E+02  0.10570000000E+00 0.  1.
<mgrwt>
<rscale>  0 0.20003679E+02</rscale>
<asrwt>0</asrwt>
<pdfrwt beam="1">  1        4 0.21853617E-02 0.20003679E+02</pdfrwt>
<pdfrwt beam="2">  1       -4 0.10834521E-02 0.20003679E+02</pdfrwt>
<totfact> 0.12935330E+06</totfact>
</mgrwt>
</event>
<event>
 5    1  0.4710515E-007  0.2000189E+02  0.7818608E-02  0.1745291E+00
          4   -1    0    0  501    0  0.00000000000E+00  0.00000000000E+00  0.17845052709E+02  0.17901461007E+02  0.14200000000E+01 0.  1.
         -4   -1    0    0    0  501 -0.00000000000E+00 -0.00000000000E+00 -0.54484541322E+01  0.56304575685E+01  0.14200000000E+01 0. -1.
       1023    2    1    2    0    0  0.00000000000E+00  0.00000000000E+00  0.12396598577E+02  0.23531918576E+02  0.20001888300E+02 0.  0.
        -13    1    3    3    0    0 -0.34527910416E+01 -0.93852654731E+01  0.62598534970E+01  0.11798386003E+02  0.10570000000E+00 0.  1.
         13    1    3    3    0    0  0.34527910416E+01  0.93852654731E+01  0.61367450802E+01  0.11733532573E+02  0.10570000000E+00 0. -1.
<mgrwt>
<rscale>  0 0.20001888E+02</rscale>
<asrwt>0</asrwt>
<pdfrwt beam="1">  1        4 0.27637321E-02 0.20001888E+02</pdfrwt>
<pdfrwt beam="2">  1       -4 0.85656309E-03 0.20001888E+02</pdfrwt>
<totfact> 0.12805789E+06</totfact>
</mgrwt>
</event>
<event>
 5    1  0.4710515E-007  0.2000351E+02  0.7818608E-02  0.1745258E+00
         -4   -1    0    0    0  501 -0.00000000000E+00  0.00000000000E+00  0.69354097510E+01  0.70792872816E+01  0.14200000000E+01 0.  1.
          4   -1    0    0  501    0  0.00000000000E+00 -0.00000000000E+00 -0.14095822627E+02  0.14167166814E+02  0.14200000000E+01 0. -1.
       1023    2    1    2    0    0  0.00000000000E+00  0.00000000000E+00 -0.71604128761E+01  0.21246454096E+02  0.20003507169E+02 0.  0.
        -13    1    3    3    0    0 -0.97696528672E+01  0.21378211753E+01 -0.34881874281E+01  0.10592215092E+02  0.10570000000E+00 0. -1.
         13    1    3    3    0    0  0.97696528672E+01 -0.21378211753E+01 -0.36722254480E+01  0.10654239004E+02  0.10570000000E+00 0.  1.
<mgrwt>
<rscale>  0 0.20003507E+02</rscale>
<asrwt>0</asrwt>
<pdfrwt beam="2">  1        4 0.21851436E-02 0.20003507E+02</pdfrwt>
<pdfrwt beam="1">  1       -4 0.10835416E-02 0.20003507E+02</pdfrwt>
<totfact> 0.12935606E+06</totfact>
</mgrwt>
</event>
<event>
 5    1  0.4710515E-007  0.2000647E+02  0.7818608E-02  0.1745200E+00
          4   -1    0    0  501    0  0.00000000000E+00  0.00000000000E+00  0.11783962677E+01  0.18452690221E+01  0.14200000000E+01 0.  1.
         -4   -1    0    0    0  501 -0.00000000000E+00 -0.00000000000E+00 -0.65511407605E+02  0.65526795484E+02  0.14200000000E+01 0. -1.
       1023    2    1    2    0    0  0.00000000000E+00  0.00000000000E+00 -0.64333011337E+02  0.67372064506E+02  0.20006467156E+02 0.  0.
        -13    1    3    3    0    0  0.86408837123E+01  0.50386607574E+01 -0.32244467076E+02  0.33760476938E+02  0.10570000000E+00 0.  1.
         13    1    3    3    0    0 -0.86408837123E+01 -0.50386607574E+01 -0.32088544261E+02  0.33611587568E+02  0.10570000000E+00 0. -1.
<mgrwt>
<rscale>  0 0.20006467E+02</rscale>
<asrwt>0</asrwt>
<pdfrwt beam="1">  1        4 0.23377337E-03 0.20006467E+02</pdfrwt>
<pdfrwt beam="2">  1       -4 0.10131157E-01 0.20006467E+02</pdfrwt>
<totfact> 0.10837532E+06</totfact>
</mgrwt>
</event>
<event>
 4    1  0.4710515E-007  0.2033638E+02  0.7818608E-02  0.1738720E+00
          4   -1    0    0  501    0  0.00000000000E+00  0.00000000000E+00  0.10745798270E+02  0.10839214937E+02  0.14200000000E+01 0.  1.
         -4   -1    0    0    0  501 -0.00000000000E+00 -0.00000000000E+00 -0.94332033870E+01  0.95394824881E+01  0.14200000000E+01 0. -1.
        -13    1    1    2    0    0 -0.99493802857E+01 -0.17882449276E+01 -0.43819335596E+00  0.10118852400E+02  0.10570000000E+00 0. -1.
         13    1    1    2    0    0  0.99493802857E+01  0.17882449276E+01  0.17507882386E+01  0.10259845025E+02  0.10570000000E+00 0.  1.
<mgrwt>
<rscale>  0 0.20336381E+02</rscale>
<asrwt>0</asrwt>
<pdfrwt beam="1">  1        4 0.16685609E-02 0.20336381E+02</pdfrwt>
<pdfrwt beam="2">  1       -4 0.14666233E-02 0.20336381E+02</pdfrwt>
<totfact> 0.12555025E+06</totfact>
</mgrwt>
</event>
<event>
 5    1  0.4710515E-007  0.2000210E+02  0.7818608E-02  0.1745286E+00
          4   -1    0    0  501    0  0.00000000000E+00  0.00000000000E+00  0.68336740034E+00  0.15758778518E+01  0.14200000000E+01 0. -1.
         -4   -1    0    0    0  501 -0.00000000000E+00 -0.00000000000E+00 -0.87643210976E+02  0.87654713679E+02  0.14200000000E+01 0.  1.
       1023    2    1    2    0    0  0.00000000000E+00  0.00000000000E+00 -0.86959843575E+02  0.89230591531E+02  0.20002101646E+02 0.  0.
        -13    1    3    3    0    0  0.61478996237E+01 -0.78874828043E+01 -0.43354510674E+02  0.44493076125E+02  0.10570000000E+00 0. -1.
         13    1    3    3    0    0 -0.61478996237E+01  0.78874828043E+01 -0.43605332901E+02  0.44737515406E+02  0.10570000000E+00 0.  1.
<mgrwt>
<rscale>  0 0.20002102E+02</rscale>
<asrwt>0</asrwt>
<pdfrwt beam="1">  1        4 0.17467299E-03 0.20002102E+02</pdfrwt>
<pdfrwt beam="2">  1       -4 0.13553105E-01 0.20002102E+02</pdfrwt>
<totfact> 0.10117080E+06</totfact>
</mgrwt>
</event>
<event>
 5    1  0.4710515E-007  0.2000468E+02  0.7818608E-02  0.1745235E+00
          4   -1    0    0  501    0  0.00000000000E+00  0.00000000000E+00  0.77142838376E+02  0.77155906532E+02  0.14200000000E+01 0.  1.
         -4   -1    0    0    0  501 -0.00000000000E+00 -0.00000000000E+00 -0.89099605069E+00  0.16763871755E+01  0.14200000000E+01 0. -1.
       1023    2    1    2    0    0  0.00000000000E+00  0.00000000000E+00  0.76251842326E+02  0.78832293708E+02  0.20004676281E+02 0.  0.
        -13    1    3    3    0    0 -0.87748677861E+01  0.47987500224E+01  0.37746112145E+02  0.39048770288E+02  0.10570000000E+00 0.  1.
         13    1    3    3    0    0  0.87748677861E+01 -0.47987500224E+01  0.38505730180E+02  0.39783523419E+02  0.10570000000E+00 0. -1.
<mgrwt>
<rscale>  0 0.20004676E+02</rscale>
<asrwt>0</asrwt>
<pdfrwt beam="1">  1        4 0.11929550E-01 0.20004676E+02</pdfrwt>
<pdfrwt beam="2">  1       -4 0.19849625E-03 0.20004676E+02</pdfrwt>
<totfact> 0.10444603E+06</totfact>
</mgrwt>
</event>
<event>
 5    1  0.4710515E-007  0.2000179E+02  0.7818608E-02  0.1745292E+00
         -4   -1    0    0    0  501 -0.00000000000E+00  0.00000000000E+00  0.35894541802E+02  0.35922618657E+02  0.14200000000E+01 0.  1.
          4   -1    0    0  501    0  0.00000000000E+00 -0.00000000000E+00 -0.25743699912E+01  0.29400307569E+01  0.14200000000E+01 0. -1.
       1023    2    1    2    0    0  0.00000000000E+00  0.00000000000E+00  0.33320171811E+02  0.38862649414E+02  0.20001791669E+02 0.  0.
        -13    1    3    3    0    0 -0.70977981098E+01 -0.70446882295E+01  0.16697698223E+02  0.19463572865E+02  0.10570000000E+00 0. -1.
         13    1    3    3    0    0  0.70977981098E+01  0.70446882295E+01  0.16622473588E+02  0.19399076549E+02  0.10570000000E+00 0.  1.
<mgrwt>
<rscale>  0 0.20001792E+02</rscale>
<asrwt>0</asrwt>
<pdfrwt beam="2">  1        4 0.42634448E-03 0.20001792E+02</pdfrwt>
<pdfrwt beam="1">  1       -4 0.55525241E-02 0.20001792E+02</pdfrwt>
<totfact> 0.12013700E+06</totfact>
</mgrwt>
</event>
<event>
 5    1  0.4710515E-007  0.2000661E+02  0.7818608E-02  0.1745197E+00
         -4   -1    0    0    0  501 -0.00000000000E+00  0.00000000000E+00  0.25559114914E+01  0.29238815899E+01  0.14200000000E+01 0. -1.
          4   -1    0    0  501    0  0.00000000000E+00 -0.00000000000E+00 -0.36139009288E+02  0.36166896360E+02  0.14200000000E+01 0.  1.
       1023    2    1    2    0    0  0.00000000000E+00  0.00000000000E+00 -0.33583097797E+02  0.39090777950E+02  0.20006610485E+02 0.  0.
        -13    1    3    3    0    0  0.98414748901E+01  0.17877630696E+01 -0.16918453967E+02  0.19654413803E+02  0.10570000000E+00 0. -1.
         13    1    3    3    0    0 -0.98414748901E+01 -0.17877630696E+01 -0.16664643829E+02  0.19436364147E+02  0.10570000000E+00 0.  1.
<mgrwt>
<rscale>  0 0.20006610E+02</rscale>
<asrwt>0</asrwt>
<pdfrwt beam="2">  1        4 0.55902978E-02 0.20006610E+02</pdfrwt>
<pdfrwt beam="1">  1       -4 0.42366773E-03 0.20006610E+02</pdfrwt>
<totfact> 0.11997110E+06</totfact>
</mgrwt>
</event>
<event>
 5    1  0.4710515E-007  0.2000236E+02  0.7818608E-02  0.1745281E+00
         -4   -1    0    0    0  501 -0.00000000000E+00  0.00000000000E+00  0.25311903966E+02  0.25351703737E+02  0.14200000000E+01 0. -1.
          4   -1    0    0  501    0  0.00000000000E+00 -0.00000000000E+00 -0.37796662546E+01  0.40376078309E+01  0.14200000000E+01 0.  1.
       1023    2    1    2    0    0  0.00000000000E+00  0.00000000000E+00  0.21532237712E+02  0.29389311568E+02  0.20002359201E+02 0.  0.
        -13    1    3    3    0    0  0.90482498061E+01 -0.42592405172E+01  0.10734381687E+02  0.14671403376E+02  0.10570000000E+00 0.  1.
         13    1    3    3    0    0 -0.90482498061E+01  0.42592405172E+01  0.10797856025E+02  0.14717908192E+02  0.10570000000E+00 0. -1.
<mgrwt>
<rscale>  0 0.20002359E+02</rscale>
<asrwt>0</asrwt>
<pdfrwt beam="2">  1        4 0.60439029E-03 0.20002359E+02</pdfrwt>
<pdfrwt beam="1">  1       -4 0.39170423E-02 0.20002359E+02</pdfrwt>
<totfact> 0.12484767E+06</totfact>
</mgrwt>
</event>
<event>
 5    1  0.4710515E-007  0.2000233E+02  0.7818608E-02  0.1745282E+00
          4   -1    0    0  501    0  0.00000000000E+00  0.00000000000E+00  0.82926305180E+02  0.82938462072E+02  0.14200000000E+01 0.  1.
         -4   -1    0    0    0  501 -0.00000000000E+00 -0.00000000000E+00 -0.77166385995E+00  0.16161265770E+01  0.14200000000E+01 0. -1.
       1023    2    1    2    0    0  0.00000000000E+00  0.00000000000E+00  0.82154641320E+02  0.84554588649E+02  0.20002334141E+02 0.  0.
        -13    1    3    3    0    0  0.30857062092E+01 -0.95126496246E+01  0.41038440131E+02  0.42239517357E+02  0.10570000000E+00 0. -1.
         13    1    3    3    0    0 -0.30857062092E+01  0.95126496246E+01  0.41116201189E+02  0.42315071292E+02  0.10570000000E+00 0.  1.
<mgrwt>
<rscale>  0 0.20002334E+02</rscale>
<asrwt>0</asrwt>
<pdfrwt beam="1">  1        4 0.12823784E-01 0.20002334E+02</pdfrwt>
<pdfrwt beam="2">  1       -4 0.18461137E-03 0.20002334E+02</pdfrwt>
<totfact> 0.10262363E+06</totfact>
</mgrwt>
</event>
<event>
 4    1  0.4710515E-007  0.2006381E+02  0.7818608E-02  0.1744062E+00
          4   -1    0    0  501    0  0.00000000000E+00  0.00000000000E+00  0.52319110982E+02  0.52338377639E+02  0.14200000000E+01 0.  1.
         -4   -1    0    0    0  501 -0.00000000000E+00 -0.00000000000E+00 -0.16391195022E+01  0.21686661206E+01  0.14200000000E+01 0. -1.
        -13    1    1    2    0    0 -0.74721256936E+01  0.66623187610E+01  0.23603133590E+02  0.25638608414E+02  0.10570000000E+00 0. -1.
         13    1    1    2    0    0  0.74721256936E+01 -0.66623187610E+01  0.27076857890E+02  0.28868435346E+02  0.10570000000E+00 0.  1.
<mgrwt>
<rscale>  0 0.20063805E+02</rscale>
<asrwt>0</asrwt>
<pdfrwt beam="1">  1        4 0.80913089E-02 0.20063805E+02</pdfrwt>
<pdfrwt beam="2">  1       -4 0.29438869E-03 0.20063805E+02</pdfrwt>
<totfact> 0.11262183E+06</totfact>
</mgrwt>
</event>
<event>
 5    1  0.5253676E-007  0.2000174E+02  0.7818608E-02  0.1745294E+00
         -4   -1    0    0    0  501 -0.00000000000E+00  0.00000000000E+00  0.75712158082E+01  0.77032271688E+01  0.14200000000E+01 0.  1.
          4   -1    0    0  501    0  0.00000000000E+00 -0.00000000000E+00 -0.12924809344E+02  0.13002580382E+02  0.14200000000E+01 0. -1.
       1023    2    1    2    0    0  0.00000000000E+00  0.00000000000E+00 -0.53535935362E+01  0.20705807551E+02  0.20001737489E+02 0.  0.
        -13    1    3    3    0    0 -0.76680245587E+01  0.64192027281E+01 -0.26375292541E+01  0.10342750957E+02  0.10570000000E+00 0. -1.
         13    1    3    3    0    0  0.76680245587E+01 -0.64192027281E+01 -0.27160642821E+01  0.10363056594E+02  0.10570000000E+00 0.  1.
<mgrwt>
<rscale>  0 0.20001737E+02</rscale>
<asrwt>0</asrwt>
<pdfrwt beam="2">  1        4 0.20045693E-02 0.20001737E+02</pdfrwt>
<pdfrwt beam="1">  1       -4 0.11809395E-02 0.20001737E+02</pdfrwt>
<totfact> 0.12969859E+06</totfact>
</mgrwt>
</event>
<event>
 5    1  0.4710515E-007  0.2000175E+02  0.7818608E-02  0.1745293E+00
         -4   -1    0    0    0  501 -0.00000000000E+00  0.00000000000E+00  0.50835505653E+01  0.52781517930E+01  0.14200000000E+01 0.  1.
          4   -1    0    0  501    0  0.00000000000E+00 -0.00000000000E+00 -0.19083759913E+02  0.19136517249E+02  0.14200000000E+01 0. -1.
       1023    2    1    2    0    0  0.00000000000E+00  0.00000000000E+00 -0.14000209348E+02  0.24414669042E+02  0.20001754989E+02 0.  0.
        -13    1    3    3    0    0  0.17510719015E+01  0.98457659858E+01 -0.69611684222E+01  0.12185007138E+02  0.10570000000E+00 0. -1.
         13    1    3    3    0    0 -0.17510719015E+01 -0.98457659858E+01 -0.70390409257E+01  0.12229661904E+02  0.10570000000E+00 0.  1.
<mgrwt>
<rscale>  0 0.20001755E+02</rscale>
<asrwt>0</asrwt>
<pdfrwt beam="2">  1        4 0.29549906E-02 0.20001755E+02</pdfrwt>
<pdfrwt beam="1">  1       -4 0.80111229E-03 0.20001755E+02</pdfrwt>
<totfact> 0.12756119E+06</totfact>
</mgrwt>
</event>
<event>
 4    1  0.4710515E-007  0.2041109E+02  0.7818608E-02  0.1737275E+00
          4   -1    0    0  501    0  0.00000000000E+00  0.00000000000E+00  0.32724540215E+01  0.35672616000E+01  0.14200000000E+01 0. -1.
         -4   -1    0    0    0  501 -0.00000000000E+00 -0.00000000000E+00 -0.30143153399E+02  0.30176581927E+02  0.14200000000E+01 0.  1.
        -13    1    1    2    0    0  0.19870752713E+01  0.10000636111E+02 -0.14138226092E+02  0.17431632175E+02  0.10570000000E+00 0.  1.
         13    1    1    2    0    0 -0.19870752713E+01 -0.10000636111E+02 -0.12732473285E+02  0.16312211352E+02  0.10570000000E+00 0. -1.
<mgrwt>
<rscale>  0 0.20411087E+02</rscale>
<asrwt>0</asrwt>
<pdfrwt beam="1">  1        4 0.52870342E-03 0.20411087E+02</pdfrwt>
<pdfrwt beam="2">  1       -4 0.46626570E-02 0.20411087E+02</pdfrwt>
<totfact> 0.11765999E+06</totfact>
</mgrwt>
</event>
<event>
 5    1  0.4860168E-007  0.2000240E+02  0.7818608E-02  0.1745280E+00
         -4   -1    0    0    0  501 -0.00000000000E+00  0.00000000000E+00  0.20183115865E+01  0.24677888201E+01  0.14200000000E+01 0.  1.
          4   -1    0    0  501    0  0.00000000000E+00 -0.00000000000E+00 -0.44130805148E+02  0.44153644958E+02  0.14200000000E+01 0. -1.
       1023    2    1    2    0    0  0.00000000000E+00  0.00000000000E+00 -0.42112493562E+02  0.46621433778E+02  0.20002399193E+02 0.  0.
        -13    1    3    3    0    0  0.38512586628E+01 -0.92291272536E+01 -0.20911855529E+02  0.23180290277E+02  0.10570000000E+00 0. -1.
         13    1    3    3    0    0 -0.38512586628E+01  0.92291272536E+01 -0.21200638033E+02  0.23441143501E+02  0.10570000000E+00 0.  1.
<mgrwt>
<rscale>  0 0.20002399E+02</rscale>
<asrwt>0</asrwt>
<pdfrwt beam="2">  1        4 0.68256861E-02 0.20002399E+02</pdfrwt>
<pdfrwt beam="1">  1       -4 0.34684159E-03 0.20002399E+02</pdfrwt>
<totfact> 0.11661877E+06</totfact>
</mgrwt>
</event>
<event>
 5    1  0.4710515E-007  0.2000768E+02  0.7818608E-02  0.1745175E+00
          4   -1    0    0  501    0  0.00000000000E+00  0.00000000000E+00  0.66772806321E+02  0.66787903575E+02  0.14200000000E+01 0.  1.
         -4   -1    0    0    0  501 -0.00000000000E+00 -0.00000000000E+00 -0.11436466739E+01  0.18232739001E+01  0.14200000000E+01 0. -1.
       1023    2    1    2    0    0  0.00000000000E+00  0.00000000000E+00  0.65629159647E+02  0.68611177475E+02  0.20007675492E+02 0.  0.
        -13    1    3    3    0    0  0.63986332379E+00  0.99808564227E+01  0.33488992114E+02  0.34950689340E+02  0.10570000000E+00 0. -1.
         13    1    3    3    0    0 -0.63986332379E+00 -0.99808564227E+01  0.32140167532E+02  0.33660488135E+02  0.10570000000E+00 0.  1.
<mgrwt>
<rscale>  0 0.20007675E+02</rscale>
<asrwt>0</asrwt>
<pdfrwt beam="1">  1        4 0.10326182E-01 0.20007675E+02</pdfrwt>
<pdfrwt beam="2">  1       -4 0.22938594E-03 0.20007675E+02</pdfrwt>
<totfact> 0.10791789E+06</totfact>
</mgrwt>
</event>
<event>
 5    1  0.4710515E-007  0.2000148E+02  0.7818608E-02  0.1745299E+00
          4   -1    0    0  501    0  0.00000000000E+00  0.00000000000E+00  0.25944241297E+02  0.25983072499E+02  0.14200000000E+01 0. -1.
         -4   -1    0    0    0  501 -0.00000000000E+00 -0.00000000000E+00 -0.36809798480E+01  0.39453786436E+01  0.14200000000E+01 0.  1.
       1023    2    1    2    0    0  0.00000000000E+00  0.00000000000E+00  0.22263261449E+02  0.29928451142E+02  0.20001484381E+02 0.  0.
        -13    1    3    3    0    0 -0.64102390198E+01 -0.76752363937E+01  0.11046276976E+02  0.14900732381E+02  0.10570000000E+00 0.  1.
         13    1    3    3    0    0  0.64102390198E+01  0.76752363937E+01  0.11216984473E+02  0.15027718761E+02  0.10570000000E+00 0. -1.
<mgrwt>
<rscale>  0 0.20001484E+02</rscale>
<asrwt>0</asrwt>
<pdfrwt beam="1">  1        4 0.40147473E-02 0.20001484E+02</pdfrwt>
<pdfrwt beam="2">  1       -4 0.58962995E-03 0.20001484E+02</pdfrwt>
<totfact> 0.12457600E+06</totfact>
</mgrwt>
</event>
<event>
 5    1  0.4710515E-007  0.2001122E+02  0.7818608E-02  0.1745105E+00
          4   -1    0    0  501    0  0.00000000000E+00  0.00000000000E+00  0.29364182407E+01  0.32617406525E+01  0.14200000000E+01 0. -1.
         -4   -1    0    0    0  501 -0.00000000000E+00 -0.00000000000E+00 -0.31961932388E+02  0.31993460612E+02  0.14200000000E+01 0.  1.
       1023    2    1    2    0    0  0.00000000000E+00  0.00000000000E+00 -0.29025514147E+02  0.35255201265E+02  0.20011215474E+02 0.  0.
        -13    1    3    3    0    0 -0.76672786815E+01 -0.64267525710E+01 -0.14330494938E+02  0.17477544697E+02  0.10570000000E+00 0.  1.
         13    1    3    3    0    0  0.76672786815E+01  0.64267525710E+01 -0.14695019209E+02  0.17777656568E+02  0.10570000000E+00 0. -1.
<mgrwt>
<rscale>  0 0.20011215E+02</rscale>
<asrwt>0</asrwt>
<pdfrwt beam="1">  1        4 0.47920672E-03 0.20011215E+02</pdfrwt>
<pdfrwt beam="2">  1       -4 0.49446702E-02 0.20011215E+02</pdfrwt>
<totfact> 0.12175585E+06</totfact>
</mgrwt>
</event>
<event>
 5    1  0.4925142E-007  0.2000158E+02  0.7818608E-02  0.1745297E+00
         -4   -1    0    0    0  501 -0.00000000000E+00  0.00000000000E+00  0.63257902806E+00  0.15545276539E+01  0.14200000000E+01 0. -1.
          4   -1    0    0  501    0  0.00000000000E+00 -0.00000000000E+00 -0.90529582202E+02  0.90540718208E+02  0.14200000000E+01 0.  1.
       1023    2    1    2    0    0  0.00000000000E+00  0.00000000000E+00 -0.89897003174E+02  0.92095245862E+02  0.20001578207E+02 0.  0.
        -13    1    3    3    0    0 -0.98941832225E+01 -0.14522866707E+01 -0.45062406653E+02  0.46158809171E+02  0.10570000000E+00 0. -1.
         13    1    3    3    0    0  0.98941832225E+01  0.14522866707E+01 -0.44834596521E+02  0.45936436691E+02  0.10570000000E+00 0.  1.
<mgrwt>
<rscale>  0 0.20001578E+02</rscale>
<asrwt>0</asrwt>
<pdfrwt beam="2">  1        4 0.13999398E-01 0.20001578E+02</pdfrwt>
<pdfrwt beam="1">  1       -4 0.16909566E-03 0.20001578E+02</pdfrwt>
<totfact> 0.10030767E+06</totfact>
</mgrwt>
</event>
<event>
 5    1  0.4710515E-007  0.2000138E+02  0.7818608E-02  0.1745301E+00
          4   -1    0    0  501    0  0.00000000000E+00  0.00000000000E+00  0.66289981842E+00  0.15671107712E+01  0.14200000000E+01 0. -1.
         -4   -1    0    0    0  501 -0.00000000000E+00 -0.00000000000E+00 -0.88785895796E+02  0.88797250477E+02  0.14200000000E+01 0.  1.
       1023    2    1    2    0    0  0.00000000000E+00  0.00000000000E+00 -0.88122995977E+02  0.90364361248E+02  0.20001384046E+02 0.  0.
        -13    1    3    3    0    0  0.21150328466E+01 -0.97739075660E+01 -0.44088378045E+02  0.45208393957E+02  0.10570000000E+00 0. -1.
         13    1    3    3    0    0 -0.21150328466E+01  0.97739075660E+01 -0.44034617932E+02  0.45155967291E+02  0.10570000000E+00 0.  1.
<mgrwt>
<rscale>  0 0.20001384E+02</rscale>
<asrwt>0</asrwt>
<pdfrwt beam="1">  1        4 0.17241278E-03 0.20001384E+02</pdfrwt>
<pdfrwt beam="2">  1       -4 0.13729791E-01 0.20001384E+02</pdfrwt>
<totfact> 0.10083229E+06</totfact>
</mgrwt>
</event>
<event>
 5    1  0.4710515E-007  0.2000162E+02  0.7818608E-02  0.1745296E+00
          4   -1    0    0  501    0  0.00000000000E+00  0.00000000000E+00  0.62713793256E+02  0.62729867405E+02  0.14200000000E+01 0. -1.
         -4   -1    0    0    0  501 -0.00000000000E+00 -0.00000000000E+00 -0.12591279109E+01  0.18978416941E+01  0.14200000000E+01 0.  1.
       1023    2    1    2    0    0  0.00000000000E+00  0.00000000000E+00  0.61454665345E+02  0.64627709099E+02  0.20001622200E+02 0.  0.
        -13    1    3    3    0    0 -0.80766537020E+01 -0.58967600755E+01  0.30628492147E+02  0.32219866823E+02  0.10570000000E+00 0. -1.
         13    1    3    3    0    0  0.80766537020E+01  0.58967600755E+01  0.30826173198E+02  0.32407842275E+02  0.10570000000E+00 0.  1.
<mgrwt>
<rscale>  0 0.20001622E+02</rscale>
<asrwt>0</asrwt>
<pdfrwt beam="1">  1        4 0.96986449E-02 0.20001622E+02</pdfrwt>
<pdfrwt beam="2">  1       -4 0.24408027E-03 0.20001622E+02</pdfrwt>
<totfact> 0.10942898E+06</totfact>
</mgrwt>
</event>
<event>
 5    1  0.4710515E-007  0.2000264E+02  0.7818608E-02  0.1745275E+00
         -4   -1    0    0    0  501 -0.00000000000E+00  0.00000000000E+00  0.27137649942E+02  0.27174775885E+02  0.14200000000E+01 0. -1.
          4   -1    0    0  501    0  0.00000000000E+00 -0.00000000000E+00 -0.35078966539E+01  0.37844073426E+01  0.14200000000E+01 0.  1.
       1023    2    1    2    0    0  0.00000000000E+00  0.00000000000E+00  0.23629753289E+02  0.30959183228E+02  0.20002644466E+02 0.  0.
        -13    1    3    3    0    0  0.80934484668E+01 -0.58746264673E+01  0.11832503789E+02  0.15493045621E+02  0.10570000000E+00 0.  1.
         13    1    3    3    0    0 -0.80934484668E+01  0.58746264673E+01  0.11797249499E+02  0.15466137606E+02  0.10570000000E+00 0. -1.
<mgrwt>
<rscale>  0 0.20002644E+02</rscale>
<asrwt>0</asrwt>
<pdfrwt beam="2">  1        4 0.56380231E-03 0.20002644E+02</pdfrwt>
<pdfrwt beam="1">  1       -4 0.41991489E-02 0.20002644E+02</pdfrwt>
<totfact> 0.12402610E+06</totfact>
</mgrwt>
</event>
<event>
 5    1  0.4710515E-007  0.2000692E+02  0.7818608E-02  0.1745191E+00
         -4   -1    0    0    0  501 -0.00000000000E+00  0.00000000000E+00  0.22362738316E+02  0.22407776887E+02  0.14200000000E+01 0. -1.
          4   -1    0    0  501    0  0.00000000000E+00 -0.00000000000E+00 -0.43112468010E+01  0.45390801909E+01  0.14200000000E+01 0.  1.
       1023    2    1    2    0    0  0.00000000000E+00  0.00000000000E+00  0.18051491515E+02  0.26946857078E+02  0.20006917814E+02 0.  0.
        -13    1    3    3    0    0 -0.77780616271E+01 -0.62888903733E+01  0.88935539516E+01  0.13384874269E+02  0.10570000000E+00 0. -1.
         13    1    3    3    0    0  0.77780616271E+01  0.62888903733E+01  0.91579375636E+01  0.13561982809E+02  0.10570000000E+00 0.  1.
<mgrwt>
<rscale>  0 0.20006918E+02</rscale>
<asrwt>0</asrwt>
<pdfrwt beam="2">  1        4 0.68425889E-03 0.20006918E+02</pdfrwt>
<pdfrwt beam="1">  1       -4 0.34614114E-02 0.20006918E+02</pdfrwt>
<totfact> 0.12609507E+06</totfact>
</mgrwt>
</event>
<event>
 4    1  0.4710515E-007  0.2003342E+02  0.7818608E-02  0.1744664E+00
         -4   -1    0    0    0  501 -0.00000000000E+00  0.00000000000E+00  0.94694202568E+01  0.95752973844E+01  0.14200000000E+01 0. -1.
          4   -1    0    0  501    0  0.00000000000E+00 -0.00000000000E+00 -0.10382250322E+02  0.10478908423E+02  0.14200000000E+01 0.  1.
        -13    1    1    2    0    0  0.86940854944E+01 -0.49638991864E+01 -0.14643626258E+00  0.10012993248E+02  0.10570000000E+00 0.  1.
         13    1    1    2    0    0 -0.86940854944E+01  0.49638991864E+01 -0.76639380239E+00  0.10041212560E+02  0.10570000000E+00 0. -1.
<mgrwt>
<rscale>  0 0.20033420E+02</rscale>
<asrwt>0</asrwt>
<pdfrwt beam="2">  1        4 0.16128489E-02 0.20033420E+02</pdfrwt>
<pdfrwt beam="1">  1       -4 0.14724135E-02 0.20033420E+02</pdfrwt>
<totfact> 0.12966536E+06</totfact>
</mgrwt>
</event>
<event>
 5    1  0.4710515E-007  0.2000745E+02  0.7818608E-02  0.1745180E+00
          4   -1    0    0  501    0  0.00000000000E+00  0.00000000000E+00  0.80679221582E+02  0.80691717017E+02  0.14200000000E+01 0. -1.
         -4   -1    0    0    0  501 -0.00000000000E+00 -0.00000000000E+00 -0.81719714140E+00  0.16383562396E+01  0.14200000000E+01 0.  1.
       1023    2    1    2    0    0  0.00000000000E+00  0.00000000000E+00  0.79862024441E+02  0.82330073256E+02  0.20007448978E+02 0.  0.
        -13    1    3    3    0    0 -0.13795800463E+01  0.99075501353E+01  0.39835355729E+02  0.41072247679E+02  0.10570000000E+00 0.  1.
         13    1    3    3    0    0  0.13795800463E+01 -0.99075501353E+01  0.40026668711E+02  0.41257825578E+02  0.10570000000E+00 0. -1.
<mgrwt>
<rscale>  0 0.20007449E+02</rscale>
<asrwt>0</asrwt>
<pdfrwt beam="1">  1        4 0.12476313E-01 0.20007449E+02</pdfrwt>
<pdfrwt beam="2">  1       -4 0.18984994E-03 0.20007449E+02</pdfrwt>
<totfact> 0.10327953E+06</totfact>
</mgrwt>
</event>
<event>
 4    1  0.4710515E-007  0.2467130E+02  0.7818608E-02  0.1665769E+00
          4   -1    0    0  501    0  0.00000000000E+00  0.00000000000E+00  0.82213648773E+01  0.83430953756E+01  0.14200000000E+01 0.  1.
         -4   -1    0    0    0  501 -0.00000000000E+00 -0.00000000000E+00 -0.18223305586E+02  0.18278546619E+02  0.14200000000E+01 0. -1.
        -13    1    1    2    0    0 -0.79969916488E+01 -0.92873525370E+01 -0.34940441773E+01  0.12744658088E+02  0.10570000000E+00 0.  1.
         13    1    1    2    0    0  0.79969916488E+01  0.92873525370E+01 -0.65078965316E+01  0.13876983906E+02  0.10570000000E+00 0. -1.
<mgrwt>
<rscale>  0 0.24671299E+02</rscale>
<asrwt>0</asrwt>
<pdfrwt beam="1">  1        4 0.12784386E-02 0.24671299E+02</pdfrwt>
<pdfrwt beam="2">  1       -4 0.28171987E-02 0.24671299E+02</pdfrwt>
<totfact> 0.81291141E+05</totfact>
</mgrwt>
</event>
<event>
 5    1  0.4710515E-007  0.2000117E+02  0.7818608E-02  0.1745305E+00
          4   -1    0    0  501    0  0.00000000000E+00  0.00000000000E+00  0.43679830012E+01  0.45930028847E+01  0.14200000000E+01 0. -1.
         -4   -1    0    0    0  501 -0.00000000000E+00 -0.00000000000E+00 -0.22073173556E+02  0.22118801750E+02  0.14200000000E+01 0.  1.
       1023    2    1    2    0    0  0.00000000000E+00  0.00000000000E+00 -0.17705190555E+02  0.26711804634E+02  0.20001168322E+02 0.  0.
        -13    1    3    3    0    0  0.81467702983E+01 -0.57991845320E+01 -0.88390058218E+01  0.13346894917E+02  0.10570000000E+00 0.  1.
         13    1    3    3    0    0 -0.81467702983E+01  0.57991845320E+01 -0.88661847332E+01  0.13364909717E+02  0.10570000000E+00 0. -1.
<mgrwt>
<rscale>  0 0.20001168E+02</rscale>
<asrwt>0</asrwt>
<pdfrwt beam="1">  1        4 0.69281648E-03 0.20001168E+02</pdfrwt>
<pdfrwt beam="2">  1       -4 0.34166919E-02 0.20001168E+02</pdfrwt>
<totfact> 0.12629675E+06</totfact>
</mgrwt>
</event>
<event>
 5    1  0.4710515E-007  0.2000412E+02  0.7818608E-02  0.1745246E+00
          4   -1    0    0  501    0  0.00000000000E+00  0.00000000000E+00  0.83306726886E+02  0.83318828271E+02  0.14200000000E+01 0. -1.
         -4   -1    0    0    0  501 -0.00000000000E+00 -0.00000000000E+00 -0.76456728145E+00  0.16127501753E+01  0.14200000000E+01 0.  1.
       1023    2    1    2    0    0  0.00000000000E+00  0.00000000000E+00  0.82542159605E+02  0.84931578446E+02  0.20004122205E+02 0.  0.
        -13    1    3    3    0    0  0.15438382839E+01  0.98802963353E+01  0.41960421693E+02  0.43135737544E+02  0.10570000000E+00 0.  1.
         13    1    3    3    0    0 -0.15438382839E+01 -0.98802963353E+01  0.40581737912E+02  0.41795840903E+02  0.10570000000E+00 0. -1.
<mgrwt>
<rscale>  0 0.20004122E+02</rscale>
<asrwt>0</asrwt>
<pdfrwt beam="1">  1        4 0.12882596E-01 0.20004122E+02</pdfrwt>
<pdfrwt beam="2">  1       -4 0.18380144E-03 0.20004122E+02</pdfrwt>
<totfact> 0.10248630E+06</totfact>
</mgrwt>
</event>
<event>
 5    1  0.4710515E-007  0.2000397E+02  0.7818608E-02  0.1745249E+00
         -4   -1    0    0    0  501 -0.00000000000E+00  0.00000000000E+00  0.15995081749E+02  0.16057989916E+02  0.14200000000E+01 0.  1.
          4   -1    0    0  501    0  0.00000000000E+00 -0.00000000000E+00 -0.60974796729E+01  0.62606436060E+01  0.14200000000E+01 0. -1.
       1023    2    1    2    0    0  0.00000000000E+00  0.00000000000E+00  0.98976020759E+01  0.22318633522E+02  0.20003971492E+02 0.  0.
        -13    1    3    3    0    0  0.85893942100E+01 -0.51233310538E+01  0.50026840665E+01  0.11183212166E+02  0.10570000000E+00 0. -1.
         13    1    3    3    0    0 -0.85893942100E+01  0.51233310538E+01  0.48949180094E+01  0.11135421357E+02  0.10570000000E+00 0.  1.
<mgrwt>
<rscale>  0 0.20003971E+02</rscale>
<asrwt>0</asrwt>
<pdfrwt beam="2">  1        4 0.95546398E-03 0.20003971E+02</pdfrwt>
<pdfrwt beam="1">  1       -4 0.24781719E-02 0.20003971E+02</pdfrwt>
<totfact> 0.12872559E+06</totfact>
</mgrwt>
</event>
<event>
 5    1  0.4710515E-007  0.2000378E+02  0.7818608E-02  0.1745253E+00
          4   -1    0    0  501    0  0.00000000000E+00  0.00000000000E+00  0.75415761572E+02  0.75429128945E+02  0.14200000000E+01 0. -1.
         -4   -1    0    0    0  501 -0.00000000000E+00 -0.00000000000E+00 -0.92902431907E+00  0.16969048840E+01  0.14200000000E+01 0. -1.
       1023    2    1    2    0    0  0.00000000000E+00  0.00000000000E+00  0.74486737253E+02  0.77126033830E+02  0.20003776336E+02 0.  0.
        -13    1    3    3    0    0  0.54446127680E+01 -0.83894121233E+01  0.37333828123E+02  0.38650380836E+02  0.10570000000E+00 0. -1.
         13    1    3    3    0    0 -0.54446127680E+01  0.83894121233E+01  0.37152909130E+02  0.38475652993E+02  0.10570000000E+00 0.  1.
<mgrwt>
<rscale>  0 0.20003776E+02</rscale>
<asrwt>0</asrwt>
<pdfrwt beam="1">  1        4 0.11662521E-01 0.20003776E+02</pdfrwt>
<pdfrwt beam="2">  1       -4 0.20302282E-03 0.20003776E+02</pdfrwt>
<totfact> 0.10502146E+06</totfact>
</mgrwt>
</event>
<event>
 5    1  0.4710515E-007  0.2000729E+02  0.7818608E-02  0.1745183E+00
          4   -1    0    0  501    0  0.00000000000E+00  0.00000000000E+00  0.11890583071E+02  0.11975072683E+02  0.14200000000E+01 0.  1.
         -4   -1    0    0    0  501 -0.00000000000E+00 -0.00000000000E+00 -0.82409231246E+01  0.83623689195E+01  0.14200000000E+01 0. -1.
       1023    2    1    2    0    0  0.00000000000E+00  0.00000000000E+00  0.36496599461E+01  0.20337441602E+02  0.20007286503E+02 0.  0.
        -13    1    3    3    0    0  0.24635607172E+01 -0.96947601820E+01  0.17589576970E+01  0.10156899678E+02  0.10570000000E+00 0.  1.
         13    1    3    3    0    0 -0.24635607172E+01  0.96947601820E+01  0.18907022491E+01  0.10180541925E+02  0.10570000000E+00 0. -1.
<mgrwt>
<rscale>  0 0.20007287E+02</rscale>
<asrwt>0</asrwt>
<pdfrwt beam="1">  1        4 0.18451616E-02 0.20007287E+02</pdfrwt>
<pdfrwt beam="2">  1       -4 0.12836755E-02 0.20007287E+02</pdfrwt>
<totfact> 0.12984305E+06</totfact>
</mgrwt>
</event>
<event>
 5    1  0.4710515E-007  0.2000230E+02  0.7818608E-02  0.1745282E+00
          4   -1    0    0  501    0  0.00000000000E+00  0.00000000000E+00  0.26532402599E+02  0.26570374248E+02  0.14200000000E+01 0. -1.
         -4   -1    0    0    0  501 -0.00000000000E+00 -0.00000000000E+00 -0.35939000050E+01  0.38642615396E+01  0.14200000000E+01 0.  1.
       1023    2    1    2    0    0  0.00000000000E+00  0.00000000000E+00  0.22938502594E+02  0.30434635788E+02  0.20002303724E+02 0.  0.
        -13    1    3    3    0    0  0.80359413938E+01 -0.59527239572E+01  0.11506193550E+02  0.15245161170E+02  0.10570000000E+00 0. -1.
         13    1    3    3    0    0 -0.80359413938E+01  0.59527239572E+01  0.11432309044E+02  0.15189474618E+02  0.10570000000E+00 0.  1.
<mgrwt>
<rscale>  0 0.20002304E+02</rscale>
<asrwt>0</asrwt>
<pdfrwt beam="1">  1        4 0.41056259E-02 0.20002304E+02</pdfrwt>
<pdfrwt beam="2">  1       -4 0.57662565E-03 0.20002304E+02</pdfrwt>
<totfact> 0.12430192E+06</totfact>
</mgrwt>
</event>
<event>
 4    1  0.4710515E-007  0.2018526E+02  0.7818608E-02  0.1741669E+00
          4   -1    0    0  501    0  0.00000000000E+00  0.00000000000E+00  0.34621876133E+02  0.34650984213E+02  0.14200000000E+01 0.  1.
         -4   -1    0    0    0  501 -0.00000000000E+00 -0.00000000000E+00 -0.27385584979E+01  0.30848180897E+01  0.14200000000E+01 0. -1.
        -13    1    1    2    0    0 -0.34326126876E+01  0.94789386780E+01  0.16812374130E+02  0.19603576324E+02  0.10570000000E+00 0.  1.
         13    1    1    2    0    0  0.34326126876E+01 -0.94789386780E+01  0.15070943505E+02  0.18132225978E+02  0.10570000000E+00 0. -1.
<mgrwt>
<rscale>  0 0.20185263E+02</rscale>
<asrwt>0</asrwt>
<pdfrwt beam="1">  1        4 0.53553167E-02 0.20185263E+02</pdfrwt>
<pdfrwt beam="2">  1       -4 0.45019114E-03 0.20185263E+02</pdfrwt>
<totfact> 0.11845706E+06</totfact>
</mgrwt>
</event>
<event>
 5    1  0.4710515E-007  0.2000218E+02  0.7818608E-02  0.1745285E+00
          4   -1    0    0  501    0  0.00000000000E+00  0.00000000000E+00  0.30286131757E+01  0.33449809817E+01  0.14200000000E+01 0. -1.
         -4   -1    0    0    0  501 -0.00000000000E+00 -0.00000000000E+00 -0.31052922606E+02  0.31085372804E+02  0.14200000000E+01 0.  1.
       1023    2    1    2    0    0  0.00000000000E+00  0.00000000000E+00 -0.28024309430E+02  0.34430353786E+02  0.20002183450E+02 0.  0.
        -13    1    3    3    0    0 -0.22708703418E+01 -0.97391073483E+01 -0.13908887070E+02  0.17131123024E+02  0.10570000000E+00 0.  1.
         13    1    3    3    0    0  0.22708703418E+01  0.97391073483E+01 -0.14115422360E+02  0.17299230762E+02  0.10570000000E+00 0. -1.
<mgrwt>
<rscale>  0 0.20002183E+02</rscale>
<asrwt>0</asrwt>
<pdfrwt beam="1">  1        4 0.49277266E-03 0.20002183E+02</pdfrwt>
<pdfrwt beam="2">  1       -4 0.48042047E-02 0.20002183E+02</pdfrwt>
<totfact> 0.12227440E+06</totfact>
</mgrwt>
</event>
<event>
 5    1  0.4710515E-007  0.2000238E+02  0.7818608E-02  0.1745281E+00
          4   -1    0    0  501    0  0.00000000000E+00  0.00000000000E+00  0.58353796768E+01  0.60056686532E+01  0.14200000000E+01 0.  1.
         -4   -1    0    0    0  501 -0.00000000000E+00 -0.00000000000E+00 -0.16693546758E+02  0.16753832497E+02  0.14200000000E+01 0. -1.
       1023    2    1    2    0    0  0.00000000000E+00  0.00000000000E+00 -0.10858167081E+02  0.22759501150E+02  0.20002377365E+02 0.  0.
        -13    1    3    3    0    0 -0.65239776806E+01 -0.75795739634E+01 -0.54511568246E+01  0.11390281360E+02  0.10570000000E+00 0.  1.
         13    1    3    3    0    0  0.65239776806E+01  0.75795739634E+01 -0.54070102562E+01  0.11369219790E+02  0.10570000000E+00 0. -1.
<mgrwt>
<rscale>  0 0.20002377E+02</rscale>
<asrwt>0</asrwt>
<pdfrwt beam="1">  1        4 0.91548724E-03 0.20002377E+02</pdfrwt>
<pdfrwt beam="2">  1       -4 0.25859745E-02 0.20002377E+02</pdfrwt>
<totfact> 0.12849251E+06</totfact>
</mgrwt>
</event>
<event>
 5    1  0.4722529E-007  0.2000161E+02  0.7818608E-02  0.1745296E+00
         -4   -1    0    0    0  501 -0.00000000000E+00  0.00000000000E+00  0.45097164995E+00  0.14898910796E+01  0.14200000000E+01 0. -1.
          4   -1    0    0  501    0  0.00000000000E+00 -0.00000000000E+00 -0.10201707092E+03  0.10202695310E+03  0.14200000000E+01 0.  1.
       1023    2    1    2    0    0  0.00000000000E+00  0.00000000000E+00 -0.10156609927E+03  0.10351684418E+03  0.20001612640E+02 0.  0.
        -13    1    3    3    0    0  0.38233317795E+01 -0.92402737015E+01 -0.51127539444E+02  0.52096420088E+02  0.10570000000E+00 0.  1.
         13    1    3    3    0    0 -0.38233317795E+01  0.92402737015E+01 -0.50438559823E+02  0.51420424089E+02  0.10570000000E+00 0. -1.
<mgrwt>
<rscale>  0 0.20001613E+02</rscale>
<asrwt>0</asrwt>
<pdfrwt beam="2">  1        4 0.15775603E-01 0.20001613E+02</pdfrwt>
<pdfrwt beam="1">  1       -4 0.15005738E-03 0.20001613E+02</pdfrwt>
<totfact> 0.97006818E+05</totfact>
</mgrwt>
</event>
<event>
 5    1  0.4710515E-007  0.2000416E+02  0.7818608E-02  0.1745245E+00
         -4   -1    0    0    0  501 -0.00000000000E+00  0.00000000000E+00  0.20333494047E+02  0.20383016955E+02  0.14200000000E+01 0. -1.
          4   -1    0    0  501    0  0.00000000000E+00 -0.00000000000E+00 -0.47607755891E+01  0.49680362529E+01  0.14200000000E+01 0.  1.
       1023    2    1    2    0    0  0.00000000000E+00  0.00000000000E+00  0.15572718458E+02  0.25351053208E+02  0.20004158032E+02 0.  0.
        -13    1    3    3    0    0  0.26138170517E+01  0.96529614541E+01  0.76130242067E+01  0.12569049864E+02  0.10570000000E+00 0. -1.
         13    1    3    3    0    0 -0.26138170517E+01 -0.96529614541E+01  0.79596942516E+01  0.12782003344E+02  0.10570000000E+00 0.  1.
<mgrwt>
<rscale>  0 0.20004158E+02</rscale>
<asrwt>0</asrwt>
<pdfrwt beam="2">  1        4 0.75217959E-03 0.20004158E+02</pdfrwt>
<pdfrwt beam="1">  1       -4 0.31479825E-02 0.20004158E+02</pdfrwt>
<totfact> 0.12700673E+06</totfact>
</mgrwt>
</event>
<event>
 5    1  0.4710515E-007  0.2000419E+02  0.7818608E-02  0.1745245E+00
          4   -1    0    0  501    0  0.00000000000E+00  0.00000000000E+00  0.42080433836E+02  0.42104385898E+02  0.14200000000E+01 0. -1.
         -4   -1    0    0    0  501 -0.00000000000E+00 -0.00000000000E+00 -0.21384435386E+01  0.25669711272E+01  0.14200000000E+01 0.  1.
       1023    2    1    2    0    0  0.00000000000E+00  0.00000000000E+00  0.39941990298E+02  0.44671357025E+02  0.20004188300E+02 0.  0.
        -13    1    3    3    0    0 -0.32180026458E+01  0.94693131044E+01  0.19780418708E+02  0.22165278443E+02  0.10570000000E+00 0. -1.
         13    1    3    3    0    0  0.32180026458E+01 -0.94693131044E+01  0.20161571589E+02  0.22506078582E+02  0.10570000000E+00 0.  1.
<mgrwt>
<rscale>  0 0.20004188E+02</rscale>
<asrwt>0</asrwt>
<pdfrwt beam="1">  1        4 0.65087190E-02 0.20004188E+02</pdfrwt>
<pdfrwt beam="2">  1       -4 0.36379744E-03 0.20004188E+02</pdfrwt>
<totfact> 0.11745393E+06</totfact>
</mgrwt>
</event>
<event>
 5    1  0.4735105E-007  0.2000261E+02  0.7818608E-02  0.1745276E+00
          4   -1    0    0  501    0  0.00000000000E+00  0.00000000000E+00  0.97449208425E+01  0.98478364237E+01  0.14200000000E+01 0. -1.
         -4   -1    0    0    0  501 -0.00000000000E+00 -0.00000000000E+00 -0.10057462655E+02  0.10157211973E+02  0.14200000000E+01 0.  1.
       1023    2    1    2    0    0  0.00000000000E+00  0.00000000000E+00 -0.31254181268E+00  0.20005048396E+02  0.20002606804E+02 0.  0.
        -13    1    3    3    0    0  0.30771994313E+01 -0.95152615642E+01 -0.23069957655E+00  0.10003687008E+02  0.10570000000E+00 0.  1.
         13    1    3    3    0    0 -0.30771994313E+01  0.95152615642E+01 -0.81842236129E-01  0.10001361388E+02  0.10570000000E+00 0. -1.
<mgrwt>
<rscale>  0 0.20002607E+02</rscale>
<asrwt>0</asrwt>
<pdfrwt beam="1">  1        4 0.15148082E-02 0.20002607E+02</pdfrwt>
<pdfrwt beam="2">  1       -4 0.15628916E-02 0.20002607E+02</pdfrwt>
<totfact> 0.13010282E+06</totfact>
</mgrwt>
</event>
<event>
 5    1  0.4710515E-007  0.2000155E+02  0.7818608E-02  0.1745297E+00
         -4   -1    0    0    0  501 -0.00000000000E+00  0.00000000000E+00  0.32799257793E+02  0.32829981903E+02  0.14200000000E+01 0.  1.
          4   -1    0    0  501    0  0.00000000000E+00 -0.00000000000E+00 -0.28500114229E+01  0.31841741646E+01  0.14200000000E+01 0. -1.
       1023    2    1    2    0    0  0.00000000000E+00  0.00000000000E+00  0.29949246370E+02  0.36014156067E+02  0.20001551918E+02 0.  0.
        -13    1    3    3    0    0  0.64160168203E+01 -0.76705001863E+01  0.14884552514E+02  0.17932175579E+02  0.10570000000E+00 0. -1.
         13    1    3    3    0    0 -0.64160168203E+01  0.76705001863E+01  0.15064693855E+02  0.18081980489E+02  0.10570000000E+00 0.  1.
<mgrwt>
<rscale>  0 0.20001552E+02</rscale>
<asrwt>0</asrwt>
<pdfrwt beam="2">  1        4 0.46653149E-03 0.20001552E+02</pdfrwt>
<pdfrwt beam="1">  1       -4 0.50741082E-02 0.20001552E+02</pdfrwt>
<totfact> 0.12150409E+06</totfact>
</mgrwt>
</event>
<event>
 5    1  0.4802498E-007  0.2000158E+02  0.7818608E-02  0.1745297E+00
          4   -1    0    0  501    0  0.00000000000E+00  0.00000000000E+00  0.43174459824E+02  0.43197805281E+02  0.14200000000E+01 0. -1.
         -4   -1    0    0    0  501 -0.00000000000E+00 -0.00000000000E+00 -0.20726307301E+01  0.25124088328E+01  0.14200000000E+01 0.  1.
       1023    2    1    2    0    0  0.00000000000E+00  0.00000000000E+00  0.41101829094E+02  0.45710214114E+02  0.20001582924E+02 0.  0.
        -13    1    3    3    0    0  0.47583627438E+01  0.87955244264E+01  0.20636161902E+02  0.22931759995E+02  0.10570000000E+00 0. -1.
         13    1    3    3    0    0 -0.47583627438E+01 -0.87955244264E+01  0.20465667192E+02  0.22778454119E+02  0.10570000000E+00 0.  1.
<mgrwt>
<rscale>  0 0.20001583E+02</rscale>
<asrwt>0</asrwt>
<pdfrwt beam="1">  1        4 0.66778492E-02 0.20001583E+02</pdfrwt>
<pdfrwt beam="2">  1       -4 0.35449117E-03 0.20001583E+02</pdfrwt>
<totfact> 0.11702646E+06</totfact>
</mgrwt>
</event>
<event>
 4    1  0.4710515E-007  0.2013978E+02  0.7818608E-02  0.1742563E+00
         -4   -1    0    0    0  501 -0.00000000000E+00  0.00000000000E+00  0.25979989291E+02  0.26018767141E+02  0.14200000000E+01 0. -1.
          4   -1    0    0  501    0  0.00000000000E+00 -0.00000000000E+00 -0.37307697182E+01  0.39918720783E+01  0.14200000000E+01 0.  1.
        -13    1    1    2    0    0 -0.50743546738E+01  0.86632414835E+01  0.12269843305E+02  0.15854370236E+02  0.10570000000E+00 0.  1.
         13    1    1    2    0    0  0.50743546738E+01 -0.86632414835E+01  0.99793762676E+01  0.14156268984E+02  0.10570000000E+00 0. -1.
<mgrwt>
<rscale>  0 0.20139779E+02</rscale>
<asrwt>0</asrwt>
<pdfrwt beam="2">  1        4 0.59703231E-03 0.20139779E+02</pdfrwt>
<pdfrwt beam="1">  1       -4 0.40199889E-02 0.20139779E+02</pdfrwt>
<totfact> 0.12280001E+06</totfact>
</mgrwt>
</event>
<event>
 5    1  0.4710515E-007  0.2001161E+02  0.7818608E-02  0.1745097E+00
          4   -1    0    0  501    0  0.00000000000E+00  0.00000000000E+00  0.24483509749E+00  0.14409525408E+01  0.14200000000E+01 0. -1.
         -4   -1    0    0    0  501 -0.00000000000E+00 -0.00000000000E+00 -0.11757328976E+03  0.11758186452E+03  0.14200000000E+01 0.  1.
       1023    2    1    2    0    0  0.00000000000E+00  0.00000000000E+00 -0.11732845466E+03  0.11902281706E+03  0.20011614343E+02 0.  0.
        -13    1    3    3    0    0  0.12055617791E+01 -0.99290848998E+01 -0.57149043020E+02  0.58017793794E+02  0.10570000000E+00 0. -1.
         13    1    3    3    0    0 -0.12055617791E+01  0.99290848998E+01 -0.60179411642E+02  0.61005023270E+02  0.10570000000E+00 0.  1.
<mgrwt>
<rscale>  0 0.20011614E+02</rscale>
<asrwt>0</asrwt>
<pdfrwt beam="1">  1        4 0.13033566E-03 0.20011614E+02</pdfrwt>
<pdfrwt beam="2">  1       -4 0.18180854E-01 0.20011614E+02</pdfrwt>
<totfact> 0.92797667E+05</totfact>
</mgrwt>
</event>
<event>
 5    1  0.4710515E-007  0.2000464E+02  0.7818608E-02  0.1745236E+00
          4   -1    0    0  501    0  0.00000000000E+00  0.00000000000E+00  0.30259227815E+02  0.30292528253E+02  0.14200000000E+01 0. -1.
         -4   -1    0    0    0  501 -0.00000000000E+00 -0.00000000000E+00 -0.31169990381E+01  0.34252128406E+01  0.14200000000E+01 0.  1.
       1023    2    1    2    0    0  0.00000000000E+00  0.00000000000E+00  0.27142228776E+02  0.33717741093E+02  0.20004636499E+02 0.  0.
        -13    1    3    3    0    0 -0.55793171453E+01  0.83007604174E+01  0.13467287796E+02  0.16775291842E+02  0.10570000000E+00 0.  1.
         13    1    3    3    0    0  0.55793171453E+01 -0.83007604174E+01  0.13674940981E+02  0.16942449251E+02  0.10570000000E+00 0. -1.
<mgrwt>
<rscale>  0 0.20004636E+02</rscale>
<asrwt>0</asrwt>
<pdfrwt beam="1">  1        4 0.46815361E-02 0.20004636E+02</pdfrwt>
<pdfrwt beam="2">  1       -4 0.50580864E-03 0.20004636E+02</pdfrwt>
<totfact> 0.12259876E+06</totfact>
</mgrwt>
</event>
<event>
 5    1  0.4710515E-007  0.2000138E+02  0.7818608E-02  0.1745301E+00
         -4   -1    0    0    0  501 -0.00000000000E+00  0.00000000000E+00  0.11341286935E+03  0.11342175865E+03  0.14200000000E+01 0.  1.
          4   -1    0    0  501    0  0.00000000000E+00 -0.00000000000E+00 -0.29541545424E+00  0.14504034923E+01  0.14200000000E+01 0. -1.
       1023    2    1    2    0    0  0.00000000000E+00  0.00000000000E+00  0.11311745390E+03  0.11487216214E+03  0.20001381411E+02 0.  0.
        -13    1    3    3    0    0  0.18113157869E+01  0.98347134629E+01  0.56637540109E+02  0.57513690334E+02  0.10570000000E+00 0. -1.
         13    1    3    3    0    0 -0.18113157869E+01 -0.98347134629E+01  0.56479913789E+02  0.57358471806E+02  0.10570000000E+00 0.  1.
<mgrwt>
<rscale>  0 0.20001381E+02</rscale>
<asrwt>0</asrwt>
<pdfrwt beam="2">  1        4 0.13497758E-03 0.20001381E+02</pdfrwt>
<pdfrwt beam="1">  1       -4 0.17537660E-01 0.20001381E+02</pdfrwt>
<totfact> 0.93956259E+05</totfact>
</mgrwt>
</event>
<event>
 5    1  0.4710515E-007  0.2000738E+02  0.7818608E-02  0.1745181E+00
         -4   -1    0    0    0  501 -0.00000000000E+00  0.00000000000E+00  0.84038566521E+00  0.16500448680E+01  0.14200000000E+01 0. -1.
          4   -1    0    0  501    0  0.00000000000E+00 -0.00000000000E+00 -0.79548583211E+02  0.79561256217E+02  0.14200000000E+01 0.  1.
       1023    2    1    2    0    0  0.00000000000E+00  0.00000000000E+00 -0.78708197546E+02  0.81211301085E+02  0.20007375217E+02 0.  0.
        -13    1    3    3    0    0 -0.92745635778E+01 -0.37416935437E+01 -0.40213175806E+02  0.41438249011E+02  0.10570000000E+00 0.  1.
         13    1    3    3    0    0  0.92745635778E+01  0.37416935437E+01 -0.38495021739E+02  0.39773052075E+02  0.10570000000E+00 0. -1.
<mgrwt>
<rscale>  0 0.20007375E+02</rscale>
<asrwt>0</asrwt>
<pdfrwt beam="2">  1        4 0.12301496E-01 0.20007375E+02</pdfrwt>
<pdfrwt beam="1">  1       -4 0.19254649E-03 0.20007375E+02</pdfrwt>
<totfact> 0.10364094E+06</totfact>
</mgrwt>
</event>
<event>
 5    1  0.4710515E-007  0.2000449E+02  0.7818608E-02  0.1745239E+00
         -4   -1    0    0    0  501 -0.00000000000E+00  0.00000000000E+00  0.11815858264E+03  0.11816711493E+03  0.14200000000E+01 0.  1.
          4   -1    0    0  501    0  0.00000000000E+00 -0.00000000000E+00 -0.23664803744E+00  0.14395840697E+01  0.14200000000E+01 0. -1.
       1023    2    1    2    0    0  0.00000000000E+00  0.00000000000E+00  0.11792193460E+03  0.11960669900E+03  0.20004494140E+02 0.  0.
        -13    1    3    3    0    0 -0.20983516159E+01 -0.97777656910E+01  0.59924912505E+02  0.60753716698E+02  0.10570000000E+00 0. -1.
         13    1    3    3    0    0  0.20983516159E+01  0.97777656910E+01  0.57997022093E+02  0.58852982299E+02  0.10570000000E+00 0.  1.
<mgrwt>
<rscale>  0 0.20004494E+02</rscale>
<asrwt>0</asrwt>
<pdfrwt beam="2">  1        4 0.12959737E-03 0.20004494E+02</pdfrwt>
<pdfrwt beam="1">  1       -4 0.18271418E-01 0.20004494E+02</pdfrwt>
<totfact> 0.92715839E+05</totfact>
</mgrwt>
</event>
<event>
 5    1  0.4710515E-007  0.2001219E+02  0.7818608E-02  0.1745086E+00
          4   -1    0    0  501    0  0.00000000000E+00  0.00000000000E+00  0.22887985923E+02  0.22931992927E+02  0.14200000000E+01 0.  1.
         -4   -1    0    0    0  501 -0.00000000000E+00 -0.00000000000E+00 -0.42095879702E+01  0.44426378289E+01  0.14200000000E+01 0. -1.
       1023    2    1    2    0    0  0.00000000000E+00  0.00000000000E+00  0.18678397953E+02  0.27374630756E+02  0.20012192757E+02 0.  0.
        -13    1    3    3    0    0  0.92028390335E+01 -0.39252533089E+01  0.91961739661E+01  0.13589725822E+02  0.10570000000E+00 0. -1.
         13    1    3    3    0    0 -0.92028390335E+01  0.39252533089E+01  0.94822239867E+01  0.13784904934E+02  0.10570000000E+00 0.  1.
<mgrwt>
<rscale>  0 0.20012193E+02</rscale>
<asrwt>0</asrwt>
<pdfrwt beam="1">  1        4 0.35425406E-02 0.20012193E+02</pdfrwt>
<pdfrwt beam="2">  1       -4 0.66894100E-03 0.20012193E+02</pdfrwt>
<totfact> 0.12579596E+06</totfact>
</mgrwt>
</event>
<event>
 4    1  0.4710515E-007  0.2007735E+02  0.7818608E-02  0.1743794E+00
         -4   -1    0    0    0  501 -0.00000000000E+00  0.00000000000E+00  0.93664440376E+02  0.93675203714E+02  0.14200000000E+01 0.  1.
          4   -1    0    0  501    0  0.00000000000E+00 -0.00000000000E+00 -0.59175768512E+00  0.15383683427E+01  0.14200000000E+01 0. -1.
        -13    1    1    2    0    0  0.96502834675E+01 -0.27047526657E+01  0.43852917226E+02  0.44983699044E+02  0.10570000000E+00 0.  1.
         13    1    1    2    0    0 -0.96502834675E+01  0.27047526657E+01  0.49219765465E+02  0.50229873013E+02  0.10570000000E+00 0. -1.
<mgrwt>
<rscale>  0 0.20077351E+02</rscale>
<asrwt>0</asrwt>
<pdfrwt beam="2">  1        4 0.16468373E-03 0.20077351E+02</pdfrwt>
<pdfrwt beam="1">  1       -4 0.14483564E-01 0.20077351E+02</pdfrwt>
<totfact> 0.98633636E+05</totfact>
</mgrwt>
</event>
<event>
 5    1  0.4710515E-007  0.2000649E+02  0.7818608E-02  0.1745199E+00
         -4   -1    0    0    0  501 -0.00000000000E+00  0.00000000000E+00  0.16823205022E+01  0.22015000050E+01  0.14200000000E+01 0.  1.
          4   -1    0    0  501    0  0.00000000000E+00 -0.00000000000E+00 -0.50998742636E+02  0.51018507921E+02  0.14200000000E+01 0. -1.
       1023    2    1    2    0    0  0.00000000000E+00  0.00000000000E+00 -0.49316422134E+02  0.53220007926E+02  0.20006492734E+02 0.  0.
        -13    1    3    3    0    0 -0.34675000236E+01  0.93798816974E+01 -0.25241189751E+02  0.27150222275E+02  0.10570000000E+00 0. -1.
         13    1    3    3    0    0  0.34675000236E+01 -0.93798816974E+01 -0.24075232383E+02  0.26069785650E+02  0.10570000000E+00 0.  1.
<mgrwt>
<rscale>  0 0.20006493E+02</rscale>
<asrwt>0</asrwt>
<pdfrwt beam="2">  1        4 0.78874167E-02 0.20006493E+02</pdfrwt>
<pdfrwt beam="1">  1       -4 0.30027587E-03 0.20006493E+02</pdfrwt>
<totfact> 0.11379438E+06</totfact>
</mgrwt>
</event>
<event>
 5    1  0.4710515E-007  0.2000206E+02  0.7818608E-02  0.1745287E+00
         -4   -1    0    0    0  501 -0.00000000000E+00  0.00000000000E+00  0.33763483013E+01  0.36628032778E+01  0.14200000000E+01 0.  1.
          4   -1    0    0  501    0  0.00000000000E+00 -0.00000000000E+00 -0.28113262658E+02  0.28149101891E+02  0.14200000000E+01 0. -1.
       1023    2    1    2    0    0  0.00000000000E+00  0.00000000000E+00 -0.24736914356E+02  0.31811905168E+02  0.20002059359E+02 0.  0.
        -13    1    3    3    0    0  0.89337567088E+01 -0.44937516463E+01 -0.12464007107E+02  0.15980252140E+02  0.10570000000E+00 0. -1.
         13    1    3    3    0    0 -0.89337567088E+01  0.44937516463E+01 -0.12272907249E+02  0.15831653029E+02  0.10570000000E+00 0.  1.
<mgrwt>
<rscale>  0 0.20002059E+02</rscale>
<asrwt>0</asrwt>
<pdfrwt beam="2">  1        4 0.43499090E-02 0.20002059E+02</pdfrwt>
<pdfrwt beam="1">  1       -4 0.54423008E-03 0.20002059E+02</pdfrwt>
<totfact> 0.12359497E+06</totfact>
</mgrwt>
</event>
<event>
 4    1  0.4710515E-007  0.2030511E+02  0.7818608E-02  0.1739328E+00
         -4   -1    0    0    0  501 -0.00000000000E+00  0.00000000000E+00  0.12294238485E+01  0.18782659554E+01  0.14200000000E+01 0. -1.
          4   -1    0    0  501    0  0.00000000000E+00 -0.00000000000E+00 -0.65676919202E+02  0.65692268311E+02  0.14200000000E+01 0.  1.
        -13    1    1    2    0    0  0.89528241466E+01  0.47248067213E+01 -0.29675609496E+02  0.31354901215E+02  0.10570000000E+00 0. -1.
         13    1    1    2    0    0 -0.89528241466E+01 -0.47248067213E+01 -0.34771885857E+02  0.36215633052E+02  0.10570000000E+00 0.  1.
<mgrwt>
<rscale>  0 0.20305109E+02</rscale>
<asrwt>0</asrwt>
<pdfrwt beam="2">  1        4 0.10155231E-01 0.20305109E+02</pdfrwt>
<pdfrwt beam="1">  1       -4 0.24023381E-03 0.20305109E+02</pdfrwt>
<totfact> 0.10511909E+06</totfact>
</mgrwt>
</event>
<event>
 4    1  0.4710515E-007  0.2002170E+02  0.7818608E-02  0.1744897E+00
          4   -1    0    0  501    0  0.00000000000E+00  0.00000000000E+00  0.25754302893E+02  0.25793420042E+02  0.14200000000E+01 0.  1.
         -4   -1    0    0    0  501 -0.00000000000E+00 -0.00000000000E+00 -0.37181406157E+01  0.39800715619E+01  0.14200000000E+01 0. -1.
        -13    1    1    2    0    0 -0.88846013878E+01 -0.46118600956E+01  0.11052015897E+02  0.14911861830E+02  0.10570000000E+00 0.  1.
         13    1    1    2    0    0  0.88846013878E+01  0.46118600956E+01  0.10984146380E+02  0.14861629774E+02  0.10570000000E+00 0. -1.
<mgrwt>
<rscale>  0 0.20021697E+02</rscale>
<asrwt>0</asrwt>
<pdfrwt beam="1">  1        4 0.39853579E-02 0.20021697E+02</pdfrwt>
<pdfrwt beam="2">  1       -4 0.59517920E-03 0.20021697E+02</pdfrwt>
<totfact> 0.12440143E+06</totfact>
</mgrwt>
</event>
<event>
 5    1  0.4710515E-007  0.2000332E+02  0.7818608E-02  0.1745262E+00
         -4   -1    0    0    0  501 -0.00000000000E+00  0.00000000000E+00  0.62527046078E+02  0.62543168222E+02  0.14200000000E+01 0.  1.
          4   -1    0    0  501    0  0.00000000000E+00 -0.00000000000E+00 -0.12651186998E+01  0.19018215806E+01  0.14200000000E+01 0. -1.
       1023    2    1    2    0    0  0.00000000000E+00  0.00000000000E+00  0.61261927378E+02  0.64444989802E+02  0.20003323838E+02 0.  0.
        -13    1    3    3    0    0 -0.47632616800E-01  0.10000292557E+02  0.31011461002E+02  0.32584198718E+02  0.10570000000E+00 0. -1.
         13    1    3    3    0    0  0.47632616800E-01 -0.10000292557E+02  0.30250466376E+02  0.31860791084E+02  0.10570000000E+00 0.  1.
<mgrwt>
<rscale>  0 0.20003324E+02</rscale>
<asrwt>0</asrwt>
<pdfrwt beam="2">  1        4 0.24485104E-03 0.20003324E+02</pdfrwt>
<pdfrwt beam="1">  1       -4 0.96697594E-02 0.20003324E+02</pdfrwt>
<totfact> 0.10947774E+06</totfact>
</mgrwt>
</event>
<event>
 5    1  0.4710515E-007  0.2001125E+02  0.7818608E-02  0.1745105E+00
          4   -1    0    0  501    0  0.00000000000E+00  0.00000000000E+00  0.56058656344E+02  0.56076638194E+02  0.14200000000E+01 0.  1.
         -4   -1    0    0    0  501 -0.00000000000E+00 -0.00000000000E+00 -0.14823394978E+01  0.20527372912E+01  0.14200000000E+01 0. -1.
       1023    2    1    2    0    0  0.00000000000E+00  0.00000000000E+00  0.54576316847E+02  0.58129375485E+02  0.20011245182E+02 0.  0.
        -13    1    3    3    0    0 -0.94396671302E+01  0.33097667472E+01  0.27865040749E+02  0.29606309123E+02  0.10570000000E+00 0. -1.
         13    1    3    3    0    0  0.94396671302E+01 -0.33097667472E+01  0.26711276098E+02  0.28523066363E+02  0.10570000000E+00 0.  1.
<mgrwt>
<rscale>  0 0.20011245E+02</rscale>
<asrwt>0</asrwt>
<pdfrwt beam="1">  1        4 0.86696688E-02 0.20011245E+02</pdfrwt>
<pdfrwt beam="2">  1       -4 0.27331220E-03 0.20011245E+02</pdfrwt>
<totfact> 0.11178535E+06</totfact>
</mgrwt>
</event>
<event>
 5    1  0.4710515E-007  0.2000383E+02  0.7818608E-02  0.1745252E+00
          4   -1    0    0  501    0  0.00000000000E+00  0.00000000000E+00  0.47217565491E+01  0.49306576548E+01  0.14200000000E+01 0.  1.
         -4   -1    0    0    0  501 -0.00000000000E+00 -0.00000000000E+00 -0.20494140828E+02  0.20543276474E+02  0.14200000000E+01 0. -1.
       1023    2    1    2    0    0  0.00000000000E+00  0.00000000000E+00 -0.15772384279E+02  0.25473934129E+02  0.20003829987E+02 0.  0.
        -13    1    3    3    0    0  0.67174294980E+01 -0.74086699572E+01 -0.80415400816E+01  0.12833151950E+02  0.10570000000E+00 0.  1.
         13    1    3    3    0    0 -0.67174294980E+01  0.74086699572E+01 -0.77308441974E+01  0.12640782179E+02  0.10570000000E+00 0. -1.
<mgrwt>
<rscale>  0 0.20003830E+02</rscale>
<asrwt>0</asrwt>
<pdfrwt beam="1">  1        4 0.74627308E-03 0.20003830E+02</pdfrwt>
<pdfrwt beam="2">  1       -4 0.31727937E-02 0.20003830E+02</pdfrwt>
<totfact> 0.12694281E+06</totfact>
</mgrwt>
</event>
<event>
 4    1  0.4710515E-007  0.2002745E+02  0.7818608E-02  0.1744783E+00
         -4   -1    0    0    0  501 -0.00000000000E+00  0.00000000000E+00  0.73545409656E+02  0.73559116916E+02  0.14200000000E+01 0.  1.
          4   -1    0    0  501    0  0.00000000000E+00 -0.00000000000E+00 -0.97604414846E+00  0.17230966832E+01  0.14200000000E+01 0. -1.
        -13    1    1    2    0    0  0.27784847568E+00  0.10009243146E+02  0.36425226283E+02  0.37776585743E+02  0.10570000000E+00 0. -1.
         13    1    1    2    0    0 -0.27784847568E+00 -0.10009243146E+02  0.36144139225E+02  0.37505627857E+02  0.10570000000E+00 0.  1.
<mgrwt>
<rscale>  0 0.20027453E+02</rscale>
<asrwt>0</asrwt>
<pdfrwt beam="2">  1        4 0.20868063E-03 0.20027453E+02</pdfrwt>
<pdfrwt beam="1">  1       -4 0.11373198E-01 0.20027453E+02</pdfrwt>
<totfact> 0.10539123E+06</totfact>
</mgrwt>
</event>
<event>
 5    1  0.5090204E-007  0.2000175E+02  0.7818608E-02  0.1745293E+00
          4   -1    0    0  501    0  0.00000000000E+00  0.00000000000E+00  0.24031619671E+02  0.24073536176E+02  0.14200000000E+01 0.  1.
         -4   -1    0    0    0  501 -0.00000000000E+00 -0.00000000000E+00 -0.39937968414E+01  0.42387277820E+01  0.14200000000E+01 0. -1.
       1023    2    1    2    0    0  0.00000000000E+00  0.00000000000E+00  0.20037822830E+02  0.28312263958E+02  0.20001748591E+02 0.  0.
        -13    1    3    3    0    0  0.14772474370E+01  0.98903805974E+01  0.99247433000E+01  0.14089485101E+02  0.10570000000E+00 0. -1.
         13    1    3    3    0    0 -0.14772474370E+01 -0.98903805974E+01  0.10113079530E+02  0.14222778857E+02  0.10570000000E+00 0.  1.
<mgrwt>
<rscale>  0 0.20001749E+02</rscale>
<asrwt>0</asrwt>
<pdfrwt beam="1">  1        4 0.37192374E-02 0.20001749E+02</pdfrwt>
<pdfrwt beam="2">  1       -4 0.63649548E-03 0.20001749E+02</pdfrwt>
<totfact> 0.12542619E+06</totfact>
</mgrwt>
</event>
<event>
 5    1  0.4710515E-007  0.2000449E+02  0.7818608E-02  0.1745239E+00
          4   -1    0    0  501    0  0.00000000000E+00  0.00000000000E+00  0.25901075902E+02  0.25939971720E+02  0.14200000000E+01 0. -1.
         -4   -1    0    0    0  501 -0.00000000000E+00 -0.00000000000E+00 -0.36887444016E+01  0.39526238451E+01  0.14200000000E+01 0.  1.
       1023    2    1    2    0    0  0.00000000000E+00  0.00000000000E+00  0.22212331500E+02  0.29892595565E+02  0.20004489471E+02 0.  0.
        -13    1    3    3    0    0  0.12190192125E+01 -0.99265515147E+01  0.10947359153E+02  0.14828293150E+02  0.10570000000E+00 0.  1.
         13    1    3    3    0    0 -0.12190192125E+01  0.99265515147E+01  0.11264972347E+02  0.15064302416E+02  0.10570000000E+00 0. -1.
<mgrwt>
<rscale>  0 0.20004489E+02</rscale>
<asrwt>0</asrwt>
<pdfrwt beam="1">  1        4 0.40080714E-02 0.20004489E+02</pdfrwt>
<pdfrwt beam="2">  1       -4 0.59078953E-03 0.20004489E+02</pdfrwt>
<totfact> 0.12455671E+06</totfact>
</mgrwt>
</event>
<event>
 5    1  0.4710515E-007  0.2000365E+02  0.7818608E-02  0.1745256E+00
          4   -1    0    0  501    0  0.00000000000E+00  0.00000000000E+00  0.16207866691E+01  0.21548432487E+01  0.14200000000E+01 0. -1.
         -4   -1    0    0    0  501 -0.00000000000E+00 -0.00000000000E+00 -0.52445601849E+02  0.52464822055E+02  0.14200000000E+01 0.  1.
       1023    2    1    2    0    0  0.00000000000E+00  0.00000000000E+00 -0.50824815179E+02  0.54619665304E+02  0.20003649664E+02 0.  0.
        -13    1    3    3    0    0 -0.98879178206E+01  0.14983326998E+01 -0.25147567862E+02  0.27063393386E+02  0.10570000000E+00 0.  1.
         13    1    3    3    0    0  0.98879178206E+01 -0.14983326998E+01 -0.25677247318E+02  0.27556271918E+02  0.10570000000E+00 0. -1.
<mgrwt>
<rscale>  0 0.20003650E+02</rscale>
<asrwt>0</asrwt>
<pdfrwt beam="1">  1        4 0.29191159E-03 0.20003650E+02</pdfrwt>
<pdfrwt beam="2">  1       -4 0.81111128E-02 0.20003650E+02</pdfrwt>
<totfact> 0.11326025E+06</totfact>
</mgrwt>
</event>
<event>
 5    1  0.4710515E-007  0.2000254E+02  0.7818608E-02  0.1745278E+00
         -4   -1    0    0    0  501 -0.00000000000E+00  0.00000000000E+00  0.96621526095E+01  0.97659404591E+01  0.14200000000E+01 0. -1.
          4   -1    0    0  501    0  0.00000000000E+00 -0.00000000000E+00 -0.10143476643E+02  0.10242388316E+02  0.14200000000E+01 0.  1.
       1023    2    1    2    0    0  0.00000000000E+00  0.00000000000E+00 -0.48132403339E+00  0.20008328775E+02  0.20002538527E+02 0.  0.
        -13    1    3    3    0    0  0.99513506993E+01 -0.99069513852E+00 -0.18270739735E+00  0.10002770220E+02  0.10570000000E+00 0.  1.
         13    1    3    3    0    0 -0.99513506993E+01  0.99069513852E+00 -0.29861663605E+00  0.10005558554E+02  0.10570000000E+00 0. -1.
<mgrwt>
<rscale>  0 0.20002539E+02</rscale>
<asrwt>0</asrwt>
<pdfrwt beam="2">  1        4 0.15761271E-02 0.20002539E+02</pdfrwt>
<pdfrwt beam="1">  1       -4 0.15020773E-02 0.20002539E+02</pdfrwt>
<totfact> 0.13010178E+06</totfact>
</mgrwt>
</event>
<event>
 5    1  0.4710515E-007  0.2000354E+02  0.7818608E-02  0.1745258E+00
          4   -1    0    0  501    0  0.00000000000E+00  0.00000000000E+00  0.34740499994E+02  0.34769508766E+02  0.14200000000E+01 0.  1.
         -4   -1    0    0    0  501 -0.00000000000E+00 -0.00000000000E+00 -0.26722951960E+01  0.30261463307E+01  0.14200000000E+01 0. -1.
       1023    2    1    2    0    0  0.00000000000E+00  0.00000000000E+00  0.32068204798E+02  0.37795655097E+02  0.20003544317E+02 0.  0.
        -13    1    3    3    0    0 -0.85408339760E+01  0.52032652595E+01  0.16160278078E+02  0.19004882910E+02  0.10570000000E+00 0.  1.
         13    1    3    3    0    0  0.85408339760E+01 -0.52032652595E+01  0.15907926720E+02  0.18790772187E+02  0.10570000000E+00 0. -1.
<mgrwt>
<rscale>  0 0.20003544E+02</rscale>
<asrwt>0</asrwt>
<pdfrwt beam="1">  1        4 0.53741430E-02 0.20003544E+02</pdfrwt>
<pdfrwt beam="2">  1       -4 0.44057311E-03 0.20003544E+02</pdfrwt>
<totfact> 0.12062141E+06</totfact>
</mgrwt>
</event>
<event>
 5    1  0.4710515E-007  0.2000509E+02  0.7818608E-02  0.1745227E+00
          4   -1    0    0  501    0  0.00000000000E+00  0.00000000000E+00  0.56500787387E+02  0.56518628569E+02  0.14200000000E+01 0. -1.
         -4   -1    0    0    0  501 -0.00000000000E+00 -0.00000000000E+00 -0.14649945529E+01  0.20402472987E+01  0.14200000000E+01 0.  1.
       1023    2    1    2    0    0  0.00000000000E+00  0.00000000000E+00  0.55035792834E+02  0.58558875868E+02  0.20005085604E+02 0.  0.
        -13    1    3    3    0    0  0.41962552592E+01  0.90781077956E+01  0.27922344629E+02  0.29659553291E+02  0.10570000000E+00 0. -1.
         13    1    3    3    0    0 -0.41962552592E+01 -0.90781077956E+01  0.27113448205E+02  0.28899322577E+02  0.10570000000E+00 0.  1.
<mgrwt>
<rscale>  0 0.20005086E+02</rscale>
<asrwt>0</asrwt>
<pdfrwt beam="1">  1        4 0.87380512E-02 0.20005086E+02</pdfrwt>
<pdfrwt beam="2">  1       -4 0.27100639E-03 0.20005086E+02</pdfrwt>
<totfact> 0.11168764E+06</totfact>
</mgrwt>
</event>
<event>
 5    1  0.4710515E-007  0.2000823E+02  0.7818608E-02  0.1745164E+00
          4   -1    0    0  501    0  0.00000000000E+00  0.00000000000E+00  0.54273546284E+00  0.15201847857E+01  0.14200000000E+01 0. -1.
         -4   -1    0    0    0  501 -0.00000000000E+00 -0.00000000000E+00 -0.96044560394E+02  0.96055057032E+02  0.14200000000E+01 0.  1.
       1023    2    1    2    0    0  0.00000000000E+00  0.00000000000E+00 -0.95501824931E+02  0.97575241817E+02  0.20008229568E+02 0.  0.
        -13    1    3    3    0    0 -0.84974239246E+01 -0.52787232805E+01 -0.47737739577E+02  0.48774727936E+02  0.10570000000E+00 0.  1.
         13    1    3    3    0    0  0.84974239246E+01  0.52787232805E+01 -0.47764085354E+02  0.48800513881E+02  0.10570000000E+00 0. -1.
<mgrwt>
<rscale>  0 0.20008230E+02</rscale>
<asrwt>0</asrwt>
<pdfrwt beam="1">  1        4 0.15949368E-03 0.20008230E+02</pdfrwt>
<pdfrwt beam="2">  1       -4 0.14852075E-01 0.20008230E+02</pdfrwt>
<totfact> 0.98627458E+05</totfact>
</mgrwt>
</event>
<event>
 5    1  0.4710515E-007  0.2000707E+02  0.7818608E-02  0.1745187E+00
          4   -1    0    0  501    0  0.00000000000E+00  0.00000000000E+00  0.96623822884E+01  0.97661676971E+01  0.14200000000E+01 0. -1.
         -4   -1    0    0    0  501 -0.00000000000E+00 -0.00000000000E+00 -0.10147927278E+02  0.10246795989E+02  0.14200000000E+01 0.  1.
       1023    2    1    2    0    0  0.00000000000E+00  0.00000000000E+00 -0.48554498998E+00  0.20012963686E+02  0.20007072789E+02 0.  0.
        -13    1    3    3    0    0 -0.88914274597E+01  0.45823514185E+01 -0.30714289887E+00  0.10008043567E+02  0.10570000000E+00 0.  1.
         13    1    3    3    0    0  0.88914274597E+01 -0.45823514185E+01 -0.17840209111E+00  0.10004920119E+02  0.10570000000E+00 0. -1.
<mgrwt>
<rscale>  0 0.20007073E+02</rscale>
<asrwt>0</asrwt>
<pdfrwt beam="1">  1        4 0.15021091E-02 0.20007073E+02</pdfrwt>
<pdfrwt beam="2">  1       -4 0.15768084E-02 0.20007073E+02</pdfrwt>
<totfact> 0.13003883E+06</totfact>
</mgrwt>
</event>
<event>
 5    1  0.4710515E-007  0.2001124E+02  0.7818608E-02  0.1745105E+00
          4   -1    0    0  501    0  0.00000000000E+00  0.00000000000E+00  0.34499167102E+00  0.14613073780E+01  0.14200000000E+01 0. -1.
         -4   -1    0    0    0  501 -0.00000000000E+00 -0.00000000000E+00 -0.10972433513E+03  0.10973352323E+03  0.14200000000E+01 0.  1.
       1023    2    1    2    0    0  0.00000000000E+00  0.00000000000E+00 -0.10937934346E+03  0.11119483061E+03  0.20011236286E+02 0.  0.
        -13    1    3    3    0    0  0.16829327535E+01  0.98612156413E+01 -0.55574995813E+02  0.56468284627E+02  0.10570000000E+00 0.  1.
         13    1    3    3    0    0 -0.16829327535E+01 -0.98612156413E+01 -0.53804347648E+02  0.54726545980E+02  0.10570000000E+00 0. -1.
<mgrwt>
<rscale>  0 0.20011236E+02</rscale>
<asrwt>0</asrwt>
<pdfrwt beam="1">  1        4 0.13965294E-03 0.20011236E+02</pdfrwt>
<pdfrwt beam="2">  1       -4 0.16967234E-01 0.20011236E+02</pdfrwt>
<totfact> 0.94828500E+05</totfact>
</mgrwt>
</event>
<event>
 4    1  0.5305597E-007  0.2098363E+02  0.7818608E-02  0.1726446E+00
          4   -1    0    0  501    0  0.00000000000E+00  0.00000000000E+00  0.25694780603E+01  0.29357482014E+01  0.14200000000E+01 0. -1.
         -4   -1    0    0    0  501 -0.00000000000E+00 -0.00000000000E+00 -0.39610593862E+02  0.39636038476E+02  0.14200000000E+01 0.  1.
        -13    1    1    2    0    0  0.10205228158E+02 -0.13212115555E+01 -0.14375259940E+02  0.17679127596E+02  0.10570000000E+00 0. -1.
         13    1    1    2    0    0 -0.10205228158E+02  0.13212115555E+01 -0.22665855862E+02  0.24892659082E+02  0.10570000000E+00 0.  1.
<mgrwt>
<rscale>  0 0.20983631E+02</rscale>
<asrwt>0</asrwt>
<pdfrwt beam="1">  1        4 0.42543625E-03 0.20983631E+02</pdfrwt>
<pdfrwt beam="2">  1       -4 0.61240690E-02 0.20983631E+02</pdfrwt>
<totfact> 0.10737819E+06</totfact>
</mgrwt>
</event>
<event>
 4    1  0.4710515E-007  0.2058696E+02  0.7818608E-02  0.1733901E+00
         -4   -1    0    0    0  501 -0.00000000000E+00  0.00000000000E+00  0.13524030679E+01  0.19609676331E+01  0.14200000000E+01 0. -1.
          4   -1    0    0  501    0  0.00000000000E+00 -0.00000000000E+00 -0.63338479310E+02  0.63354394964E+02  0.14200000000E+01 0.  1.
        -13    1    1    2    0    0  0.93716629226E+01  0.37320070006E+01 -0.37486236204E+02  0.38819904938E+02  0.10570000000E+00 0.  1.
         13    1    1    2    0    0 -0.93716629226E+01 -0.37320070006E+01 -0.24499840038E+02  0.26495457659E+02  0.10570000000E+00 0. -1.
<mgrwt>
<rscale>  0 0.20586961E+02</rscale>
<asrwt>0</asrwt>
<pdfrwt beam="2">  1        4 0.97924165E-02 0.20586961E+02</pdfrwt>
<pdfrwt beam="1">  1       -4 0.25609900E-03 0.20586961E+02</pdfrwt>
<totfact> 0.10298868E+06</totfact>
</mgrwt>
</event>
<event>
 4    1  0.4710515E-007  0.2018541E+02  0.7818608E-02  0.1741666E+00
         -4   -1    0    0    0  501 -0.00000000000E+00  0.00000000000E+00  0.55475923422E+00  0.15245188775E+01  0.14200000000E+01 0.  1.
          4   -1    0    0  501    0  0.00000000000E+00 -0.00000000000E+00 -0.97001567685E+02  0.97011960775E+02  0.14200000000E+01 0. -1.
        -13    1    1    2    0    0  0.96601892881E+01  0.28816057359E+01 -0.50557688760E+02  0.51553020998E+02  0.10570000000E+00 0.  1.
         13    1    1    2    0    0 -0.96601892881E+01 -0.28816057359E+01 -0.45889119690E+02  0.46983458655E+02  0.10570000000E+00 0. -1.
<mgrwt>
<rscale>  0 0.20185415E+02</rscale>
<asrwt>0</asrwt>
<pdfrwt beam="2">  1        4 0.14998707E-01 0.20185415E+02</pdfrwt>
<pdfrwt beam="1">  1       -4 0.16074402E-03 0.20185415E+02</pdfrwt>
<totfact> 0.96632967E+05</totfact>
</mgrwt>
</event>
<event>
 5    1  0.4710515E-007  0.2000741E+02  0.7818608E-02  0.1745181E+00
          4   -1    0    0  501    0  0.00000000000E+00  0.00000000000E+00  0.50165059876E+01  0.52136102965E+01  0.14200000000E+01 0. -1.
         -4   -1    0    0    0  501 -0.00000000000E+00 -0.00000000000E+00 -0.19340976872E+02  0.19393034480E+02  0.14200000000E+01 0.  1.
       1023    2    1    2    0    0  0.00000000000E+00  0.00000000000E+00 -0.14324470884E+02  0.24606644777E+02  0.20007411153E+02 0.  0.
        -13    1    3    3    0    0  0.45071091883E+00 -0.99928175160E+01 -0.70904109231E+01  0.12261510583E+02  0.10570000000E+00 0. -1.
         13    1    3    3    0    0 -0.45071091883E+00  0.99928175160E+01 -0.72340599610E+01  0.12345134193E+02  0.10570000000E+00 0.  1.
<mgrwt>
<rscale>  0 0.20007411E+02</rscale>
<asrwt>0</asrwt>
<pdfrwt beam="1">  1        4 0.79093646E-03 0.20007411E+02</pdfrwt>
<pdfrwt beam="2">  1       -4 0.29947012E-02 0.20007411E+02</pdfrwt>
<totfact> 0.12737995E+06</totfact>
</mgrwt>
</event>
<event>
 5    1  0.4710515E-007  0.2000182E+02  0.7818608E-02  0.1745292E+00
          4   -1    0    0  501    0  0.00000000000E+00  0.00000000000E+00  0.45603802371E+01  0.47763446177E+01  0.14200000000E+01 0. -1.
         -4   -1    0    0    0  501 -0.00000000000E+00 -0.00000000000E+00 -0.21184411666E+02  0.21231949925E+02  0.14200000000E+01 0.  1.
       1023    2    1    2    0    0  0.00000000000E+00  0.00000000000E+00 -0.16624031429E+02  0.26008294543E+02  0.20001824019E+02 0.  0.
        -13    1    3    3    0    0 -0.67050768024E+01 -0.74195008151E+01 -0.83180114991E+01  0.13007979669E+02  0.10570000000E+00 0. -1.
         13    1    3    3    0    0  0.67050768024E+01  0.74195008151E+01 -0.83060199299E+01  0.13000314875E+02  0.10570000000E+00 0.  1.
<mgrwt>
<rscale>  0 0.20001824E+02</rscale>
<asrwt>0</asrwt>
<pdfrwt beam="1">  1        4 0.72186640E-03 0.20001824E+02</pdfrwt>
<pdfrwt beam="2">  1       -4 0.32794096E-02 0.20001824E+02</pdfrwt>
<totfact> 0.12667360E+06</totfact>
</mgrwt>
</event>
<event>
 5    1  0.4710515E-007  0.2000170E+02  0.7818608E-02  0.1745294E+00
          4   -1    0    0  501    0  0.00000000000E+00  0.00000000000E+00  0.13111392834E+02  0.13188063620E+02  0.14200000000E+01 0.  1.
         -4   -1    0    0    0  501 -0.00000000000E+00 -0.00000000000E+00 -0.74621958079E+01  0.75961020448E+01  0.14200000000E+01 0. -1.
       1023    2    1    2    0    0  0.00000000000E+00  0.00000000000E+00  0.56491970265E+01  0.20784165665E+02  0.20001702811E+02 0.  0.
        -13    1    3    3    0    0 -0.64073371628E+01  0.76780087250E+01  0.28332206424E+01  0.10394426353E+02  0.10570000000E+00 0. -1.
         13    1    3    3    0    0  0.64073371628E+01 -0.76780087250E+01  0.28159763841E+01  0.10389739313E+02  0.10570000000E+00 0.  1.
<mgrwt>
<rscale>  0 0.20001703E+02</rscale>
<asrwt>0</asrwt>
<pdfrwt beam="1">  1        4 0.20333356E-02 0.20001703E+02</pdfrwt>
<pdfrwt beam="2">  1       -4 0.11642284E-02 0.20001703E+02</pdfrwt>
<totfact> 0.12965263E+06</totfact>
</mgrwt>
</event>
<event>
 5    1  0.4744629E-007  0.2000386E+02  0.7818608E-02  0.1745251E+00
          4   -1    0    0  501    0  0.00000000000E+00  0.00000000000E+00  0.66474042502E+01  0.67973806180E+01  0.14200000000E+01 0. -1.
         -4   -1    0    0    0  501 -0.00000000000E+00 -0.00000000000E+00 -0.14696813517E+02  0.14765254063E+02  0.14200000000E+01 0.  1.
       1023    2    1    2    0    0  0.00000000000E+00  0.00000000000E+00 -0.80494092669E+01  0.21562634681E+02  0.20003855250E+02 0.  0.
        -13    1    3    3    0    0  0.98916925186E+01 -0.14767711577E+01 -0.39914844590E+01  0.10768916130E+02  0.10570000000E+00 0.  1.
         13    1    3    3    0    0 -0.98916925186E+01  0.14767711577E+01 -0.40579248079E+01  0.10793718552E+02  0.10570000000E+00 0. -1.
<mgrwt>
<rscale>  0 0.20003855E+02</rscale>
<asrwt>0</asrwt>
<pdfrwt beam="1">  1        4 0.10394789E-02 0.20003855E+02</pdfrwt>
<pdfrwt beam="2">  1       -4 0.22778495E-02 0.20003855E+02</pdfrwt>
<totfact> 0.12916622E+06</totfact>
</mgrwt>
</event>
<event>
 5    1  0.4710515E-007  0.2000356E+02  0.7818608E-02  0.1745257E+00
          4   -1    0    0  501    0  0.00000000000E+00  0.00000000000E+00  0.20530151382E+02  0.20579201047E+02  0.14200000000E+01 0. -1.
         -4   -1    0    0    0  501 -0.00000000000E+00 -0.00000000000E+00 -0.47129920343E+01  0.49222651204E+01  0.14200000000E+01 0.  1.
       1023    2    1    2    0    0  0.00000000000E+00  0.00000000000E+00  0.15817159347E+02  0.25501466168E+02  0.20003555856E+02 0.  0.
        -13    1    3    3    0    0  0.99877186713E+01 -0.51724635328E+00  0.79700001216E+01  0.12788828816E+02  0.10570000000E+00 0. -1.
         13    1    3    3    0    0 -0.99877186713E+01  0.51724635328E+00  0.78471592256E+01  0.12712637352E+02  0.10570000000E+00 0.  1.
<mgrwt>
<rscale>  0 0.20003556E+02</rscale>
<asrwt>0</asrwt>
<pdfrwt beam="1">  1        4 0.31783558E-02 0.20003556E+02</pdfrwt>
<pdfrwt beam="2">  1       -4 0.74494669E-03 0.20003556E+02</pdfrwt>
<totfact> 0.12693110E+06</totfact>
</mgrwt>
</event>
<event>
 4    1  0.4710515E-007  0.2002347E+02  0.7818608E-02  0.1744862E+00
          4   -1    0    0  501    0  0.00000000000E+00  0.00000000000E+00  0.11778232479E+03  0.11779088434E+03  0.14200000000E+01 0.  1.
         -4   -1    0    0    0  501 -0.00000000000E+00 -0.00000000000E+00 -0.24400060110E+00  0.14408109846E+01  0.14200000000E+01 0. -1.
        -13    1    1    2    0    0 -0.94320485243E+01  0.33542252311E+01  0.58193679217E+02  0.59048537997E+02  0.10570000000E+00 0. -1.
         13    1    1    2    0    0  0.94320485243E+01 -0.33542252311E+01  0.59344644972E+02  0.60183157325E+02  0.10570000000E+00 0.  1.
<mgrwt>
<rscale>  0 0.20023474E+02</rscale>
<asrwt>0</asrwt>
<pdfrwt beam="1">  1        4 0.18213085E-01 0.20023474E+02</pdfrwt>
<pdfrwt beam="2">  1       -4 0.13025927E-03 0.20023474E+02</pdfrwt>
<totfact> 0.92635568E+05</totfact>
</mgrwt>
</event>
<event>
 4    1  0.4710515E-007  0.2012898E+02  0.7818608E-02  0.1742775E+00
         -4   -1    0    0    0  501 -0.00000000000E+00  0.00000000000E+00  0.11454903964E+02  0.11542583109E+02  0.14200000000E+01 0. -1.
          4   -1    0    0  501    0  0.00000000000E+00 -0.00000000000E+00 -0.86634300806E+01  0.87790330197E+01  0.14200000000E+01 0.  1.
        -13    1    1    2    0    0  0.26011070564E+00 -0.10058982120E+02  0.12151746510E+01  0.10136005169E+02  0.10570000000E+00 0.  1.
         13    1    1    2    0    0 -0.26011070564E+00  0.10058982120E+02  0.15762992326E+01  0.10185610960E+02  0.10570000000E+00 0. -1.
<mgrwt>
<rscale>  0 0.20128978E+02</rscale>
<asrwt>0</asrwt>
<pdfrwt beam="2">  1        4 0.13484725E-02 0.20128978E+02</pdfrwt>
<pdfrwt beam="1">  1       -4 0.17779300E-02 0.20128978E+02</pdfrwt>
<totfact> 0.12825380E+06</totfact>
</mgrwt>
</event>
<event>
 4    1  0.4710515E-007  0.2020807E+02  0.7818608E-02  0.1741222E+00
         -4   -1    0    0    0  501 -0.00000000000E+00  0.00000000000E+00  0.14093418497E+02  0.14164774793E+02  0.14200000000E+01 0. -1.
          4   -1    0    0  501    0  0.00000000000E+00 -0.00000000000E+00 -0.70836245913E+01  0.72245510138E+01  0.14200000000E+01 0.  1.
        -13    1    1    2    0    0 -0.53255451627E+01  0.85859152033E+01  0.35378337865E+01  0.10705457092E+02  0.10570000000E+00 0. -1.
         13    1    1    2    0    0  0.53255451627E+01 -0.85859152033E+01  0.34719601195E+01  0.10683868715E+02  0.10570000000E+00 0.  1.
<mgrwt>
<rscale>  0 0.20208069E+02</rscale>
<asrwt>0</asrwt>
<pdfrwt beam="2">  1        4 0.11061178E-02 0.20208069E+02</pdfrwt>
<pdfrwt beam="1">  1       -4 0.21845477E-02 0.20208069E+02</pdfrwt>
<totfact> 0.12661316E+06</totfact>
</mgrwt>
</event>
<event>
 5    1  0.4710515E-007  0.2000183E+02  0.7818608E-02  0.1745292E+00
         -4   -1    0    0    0  501 -0.00000000000E+00  0.00000000000E+00  0.72405082394E+02  0.72419005492E+02  0.14200000000E+01 0.  1.
          4   -1    0    0  501    0  0.00000000000E+00 -0.00000000000E+00 -0.99859129793E+00  0.17359679088E+01  0.14200000000E+01 0. -1.
       1023    2    1    2    0    0  0.00000000000E+00  0.00000000000E+00  0.71406491096E+02  0.74154973401E+02  0.20001827653E+02 0.  0.
        -13    1    3    3    0    0  0.88778666696E+01  0.46031626121E+01  0.35845980128E+02  0.37214930962E+02  0.10570000000E+00 0. -1.
         13    1    3    3    0    0 -0.88778666696E+01 -0.46031626121E+01  0.35560510968E+02  0.36940042439E+02  0.10570000000E+00 0.  1.
<mgrwt>
<rscale>  0 0.20001828E+02</rscale>
<asrwt>0</asrwt>
<pdfrwt beam="2">  1        4 0.21142169E-03 0.20001828E+02</pdfrwt>
<pdfrwt beam="1">  1       -4 0.11197037E-01 0.20001828E+02</pdfrwt>
<totfact> 0.10604554E+06</totfact>
</mgrwt>
</event>
<event>
 5    1  0.4710515E-007  0.2000991E+02  0.7818608E-02  0.1745131E+00
         -4   -1    0    0    0  501 -0.00000000000E+00  0.00000000000E+00  0.93941812380E+00  0.17026175176E+01  0.14200000000E+01 0. -1.
          4   -1    0    0  501    0  0.00000000000E+00 -0.00000000000E+00 -0.75002361378E+02  0.75015802417E+02  0.14200000000E+01 0.  1.
       1023    2    1    2    0    0  0.00000000000E+00  0.00000000000E+00 -0.74062943254E+02  0.76718419934E+02  0.20009907391E+02 0.  0.
        -13    1    3    3    0    0 -0.31564937472E+01  0.94913251946E+01 -0.36272187844E+02  0.37626207492E+02  0.10570000000E+00 0. -1.
         13    1    3    3    0    0  0.31564937472E+01 -0.94913251946E+01 -0.37790755410E+02  0.39092212442E+02  0.10570000000E+00 0.  1.
<mgrwt>
<rscale>  0 0.20009907E+02</rscale>
<asrwt>0</asrwt>
<pdfrwt beam="2">  1        4 0.11598563E-01 0.20009907E+02</pdfrwt>
<pdfrwt beam="1">  1       -4 0.20426750E-03 0.20009907E+02</pdfrwt>
<totfact> 0.10509322E+06</totfact>
</mgrwt>
</event>
<event>
 4    1  0.4710515E-007  0.2005284E+02  0.7818608E-02  0.1744279E+00
          4   -1    0    0  501    0  0.00000000000E+00  0.00000000000E+00  0.63319539211E+01  0.64892249505E+01  0.14200000000E+01 0. -1.
         -4   -1    0    0    0  501 -0.00000000000E+00 -0.00000000000E+00 -0.15491582924E+02  0.15556527296E+02  0.14200000000E+01 0.  1.
        -13    1    1    2    0    0  0.71390199863E+01  0.70342344206E+01 -0.48745320455E+01  0.11145326168E+02  0.10570000000E+00 0. -1.
         13    1    1    2    0    0 -0.71390199863E+01 -0.70342344206E+01 -0.42850969577E+01  0.10900426078E+02  0.10570000000E+00 0.  1.
<mgrwt>
<rscale>  0 0.20052840E+02</rscale>
<asrwt>0</asrwt>
<pdfrwt beam="1">  1        4 0.99124025E-03 0.20052840E+02</pdfrwt>
<pdfrwt beam="2">  1       -4 0.24004139E-02 0.20052840E+02</pdfrwt>
<totfact> 0.12824352E+06</totfact>
</mgrwt>
</event>
<event>
 5    1  0.4803783E-007  0.2000756E+02  0.7818608E-02  0.1745178E+00
          4   -1    0    0  501    0  0.00000000000E+00  0.00000000000E+00  0.11547317059E+02  0.11634299775E+02  0.14200000000E+01 0.  1.
         -4   -1    0    0    0  501 -0.00000000000E+00 -0.00000000000E+00 -0.84878645441E+01  0.86058261962E+01  0.14200000000E+01 0. -1.
       1023    2    1    2    0    0  0.00000000000E+00  0.00000000000E+00  0.30594525150E+01  0.20240125971E+02  0.20007559812E+02 0.  0.
        -13    1    3    3    0    0 -0.90707614982E+01 -0.42105648074E+01  0.12884804263E+01  0.10083596801E+02  0.10570000000E+00 0. -1.
         13    1    3    3    0    0  0.90707614982E+01  0.42105648074E+01  0.17709720887E+01  0.10156529170E+02  0.10570000000E+00 0.  1.
<mgrwt>
<rscale>  0 0.20007560E+02</rscale>
<asrwt>0</asrwt>
<pdfrwt beam="1">  1        4 0.17922753E-02 0.20007560E+02</pdfrwt>
<pdfrwt beam="2">  1       -4 0.13215903E-02 0.20007560E+02</pdfrwt>
<totfact> 0.12989727E+06</totfact>
</mgrwt>
</event>
<event>
 5    1  0.4710515E-007  0.2000435E+02  0.7818608E-02  0.1745242E+00
          4   -1    0    0  501    0  0.00000000000E+00  0.00000000000E+00  0.61323671361E+01  0.62946268112E+01  0.14200000000E+01 0.  1.
         -4   -1    0    0    0  501 -0.00000000000E+00 -0.00000000000E+00 -0.15906704270E+02  0.15969960574E+02  0.14200000000E+01 0.  1.
       1023    2    1    2    0    0  0.00000000000E+00  0.00000000000E+00 -0.97743371340E+01  0.22264587385E+02  0.20004354152E+02 0.  0.
        -13    1    3    3    0    0  0.55611514358E+01  0.83125326782E+01 -0.49852690611E+01  0.11175360617E+02  0.10570000000E+00 0. -1.
         13    1    3    3    0    0 -0.55611514358E+01 -0.83125326782E+01 -0.47890680729E+01  0.11089226768E+02  0.10570000000E+00 0.  1.
<mgrwt>
<rscale>  0 0.20004354E+02</rscale>
<asrwt>0</asrwt>
<pdfrwt beam="1">  1        4 0.96078849E-03 0.20004354E+02</pdfrwt>
<pdfrwt beam="2">  1       -4 0.24645326E-02 0.20004354E+02</pdfrwt>
<totfact> 0.12875179E+06</totfact>
</mgrwt>
</event>
<event>
 4    1  0.4710515E-007  0.2004198E+02  0.7818608E-02  0.1744495E+00
         -4   -1    0    0    0  501 -0.00000000000E+00  0.00000000000E+00  0.60657775850E+02  0.60674394691E+02  0.14200000000E+01 0.  1.
          4   -1    0    0  501    0  0.00000000000E+00 -0.00000000000E+00 -0.13309994559E+01  0.19462681089E+01  0.14200000000E+01 0. -1.
        -13    1    1    2    0    0  0.90423213474E+01  0.42962625546E+01  0.28309970301E+02  0.30028104140E+02  0.10570000000E+00 0.  1.
         13    1    1    2    0    0 -0.90423213474E+01 -0.42962625546E+01  0.31016806093E+02  0.32592558660E+02  0.10570000000E+00 0. -1.
<mgrwt>
<rscale>  0 0.20041981E+02</rscale>
<asrwt>0</asrwt>
<pdfrwt beam="2">  1        4 0.25337586E-03 0.20041981E+02</pdfrwt>
<pdfrwt beam="1">  1       -4 0.93805729E-02 0.20041981E+02</pdfrwt>
<totfact> 0.10973004E+06</totfact>
</mgrwt>
</event>
<event>
 5    1  0.4869521E-007  0.2000244E+02  0.7818608E-02  0.1745280E+00
          4   -1    0    0  501    0  0.00000000000E+00  0.00000000000E+00  0.10097898939E+02  0.10197252717E+02  0.14200000000E+01 0. -1.
         -4   -1    0    0    0  501 -0.00000000000E+00 -0.00000000000E+00 -0.97057077575E+01  0.98090347677E+01  0.14200000000E+01 0.  1.
       1023    2    1    2    0    0  0.00000000000E+00  0.00000000000E+00  0.39219118131E+00  0.20006287485E+02  0.20002442976E+02 0.  0.
        -13    1    3    3    0    0 -0.99203136569E+01 -0.12650926633E+01  0.20937456517E+00  0.10003404055E+02  0.10570000000E+00 0.  1.
         13    1    3    3    0    0  0.99203136569E+01  0.12650926633E+01  0.18281661614E+00  0.10002883429E+02  0.10570000000E+00 0. -1.
<mgrwt>
<rscale>  0 0.20002443E+02</rscale>
<asrwt>0</asrwt>
<pdfrwt beam="1">  1        4 0.15691137E-02 0.20002443E+02</pdfrwt>
<pdfrwt beam="2">  1       -4 0.15087766E-02 0.20002443E+02</pdfrwt>
<totfact> 0.13010426E+06</totfact>
</mgrwt>
</event>
<event>
 5    1  0.4921271E-007  0.2000222E+02  0.7818608E-02  0.1745284E+00
         -4   -1    0    0    0  501 -0.00000000000E+00  0.00000000000E+00  0.40479785021E+02  0.40504683622E+02  0.14200000000E+01 0.  1.
          4   -1    0    0  501    0  0.00000000000E+00 -0.00000000000E+00 -0.22390371497E+01  0.26513557584E+01  0.14200000000E+01 0. -1.
       1023    2    1    2    0    0  0.00000000000E+00  0.00000000000E+00  0.38240747871E+02  0.43156039381E+02  0.20002223308E+02 0.  0.
        -13    1    3    3    0    0 -0.98283223440E+01 -0.18478223519E+01  0.19063523570E+02  0.21527644342E+02  0.10570000000E+00 0. -1.
         13    1    3    3    0    0  0.98283223440E+01  0.18478223519E+01  0.19177224301E+02  0.21628395039E+02  0.10570000000E+00 0.  1.
<mgrwt>
<rscale>  0 0.20002223E+02</rscale>
<asrwt>0</asrwt>
<pdfrwt beam="2">  1        4 0.37809935E-03 0.20002223E+02</pdfrwt>
<pdfrwt beam="1">  1       -4 0.62612913E-02 0.20002223E+02</pdfrwt>
<totfact> 0.11815472E+06</totfact>
</mgrwt>
</event>
<event>
 5    1  0.4710515E-007  0.2000662E+02  0.7818608E-02  0.1745196E+00
          4   -1    0    0  501    0  0.00000000000E+00  0.00000000000E+00  0.27572518693E+01  0.31014251355E+01  0.14200000000E+01 0. -1.
         -4   -1    0    0    0  501 -0.00000000000E+00 -0.00000000000E+00 -0.33800046752E+02  0.33829861963E+02  0.14200000000E+01 0.  1.
       1023    2    1    2    0    0  0.00000000000E+00  0.00000000000E+00 -0.31042794883E+02  0.36931287099E+02  0.20006620220E+02 0.  0.
        -13    1    3    3    0    0 -0.93935420734E+01 -0.34306046535E+01 -0.15923119011E+02  0.18803312807E+02  0.10570000000E+00 0.  1.
         13    1    3    3    0    0  0.93935420734E+01  0.34306046535E+01 -0.15119675872E+02  0.18127974292E+02  0.10570000000E+00 0. -1.
<mgrwt>
<rscale>  0 0.20006620E+02</rscale>
<asrwt>0</asrwt>
<pdfrwt beam="1">  1        4 0.45296096E-03 0.20006620E+02</pdfrwt>
<pdfrwt beam="2">  1       -4 0.52287753E-02 0.20006620E+02</pdfrwt>
<totfact> 0.12099788E+06</totfact>
</mgrwt>
</event>
<event>
 5    1  0.4710515E-007  0.2000293E+02  0.7818608E-02  0.1745270E+00
         -4   -1    0    0    0  501 -0.00000000000E+00  0.00000000000E+00  0.64760901557E+02  0.64776467722E+02  0.14200000000E+01 0. -1.
          4   -1    0    0  501    0  0.00000000000E+00 -0.00000000000E+00 -0.11990675835E+01  0.18585378849E+01  0.14200000000E+01 0.  1.
       1023    2    1    2    0    0  0.00000000000E+00  0.00000000000E+00  0.63561833974E+02  0.66635005607E+02  0.20002930638E+02 0.  0.
        -13    1    3    3    0    0  0.23940678992E+01  0.97096240213E+01  0.32110295956E+02  0.33631690987E+02  0.10570000000E+00 0.  1.
         13    1    3    3    0    0 -0.23940678992E+01 -0.97096240213E+01  0.31451538018E+02  0.33003314620E+02  0.10570000000E+00 0. -1.
<mgrwt>
<rscale>  0 0.20002931E+02</rscale>
<asrwt>0</asrwt>
<pdfrwt beam="2">  1        4 0.23639784E-03 0.20002931E+02</pdfrwt>
<pdfrwt beam="1">  1       -4 0.10015141E-01 0.20002931E+02</pdfrwt>
<totfact> 0.10868035E+06</totfact>
</mgrwt>
</event>
<event>
 4    1  0.4710515E-007  0.2026125E+02  0.7818608E-02  0.1740182E+00
         -4   -1    0    0    0  501 -0.00000000000E+00  0.00000000000E+00  0.48836670011E+02  0.48857309973E+02  0.14200000000E+01 0.  1.
          4   -1    0    0  501    0  0.00000000000E+00 -0.00000000000E+00 -0.18380363168E+01  0.23226660332E+01  0.14200000000E+01 0. -1.
        -13    1    1    2    0    0  0.88150071663E+01  0.49729885833E+01  0.22417390055E+02  0.24596453325E+02  0.10570000000E+00 0.  1.
         13    1    1    2    0    0 -0.88150071663E+01 -0.49729885833E+01  0.24581243640E+02  0.26583522681E+02  0.10570000000E+00 0. -1.
<mgrwt>
<rscale>  0 0.20261253E+02</rscale>
<asrwt>0</asrwt>
<pdfrwt beam="2">  1        4 0.32164175E-03 0.20261253E+02</pdfrwt>
<pdfrwt beam="1">  1       -4 0.75521999E-02 0.20261253E+02</pdfrwt>
<totfact> 0.11173877E+06</totfact>
</mgrwt>
</event>
<event>
 5    1  0.4747328E-007  0.2000352E+02  0.7818608E-02  0.1745258E+00
         -4   -1    0    0    0  501 -0.00000000000E+00  0.00000000000E+00  0.12919139469E+02  0.12996944434E+02  0.14200000000E+01 0. -1.
          4   -1    0    0  501    0  0.00000000000E+00 -0.00000000000E+00 -0.75759631781E+01  0.77078932320E+01  0.14200000000E+01 0.  1.
       1023    2    1    2    0    0  0.00000000000E+00  0.00000000000E+00  0.53431762913E+01  0.20704837666E+02  0.20003518938E+02 0.  0.
        -13    1    3    3    0    0  0.97043595764E+01  0.24169829597E+01  0.25812435434E+01  0.10329104130E+02  0.10570000000E+00 0. -1.
         13    1    3    3    0    0 -0.97043595764E+01 -0.24169829597E+01  0.27619327480E+01  0.10375733536E+02  0.10570000000E+00 0.  1.
<mgrwt>
<rscale>  0 0.20003519E+02</rscale>
<asrwt>0</asrwt>
<pdfrwt beam="2">  1        4 0.11816663E-02 0.20003519E+02</pdfrwt>
<pdfrwt beam="1">  1       -4 0.20036933E-02 0.20003519E+02</pdfrwt>
<totfact> 0.12967559E+06</totfact>
</mgrwt>
</event>
<event>
 5    1  0.4710515E-007  0.2000257E+02  0.7818608E-02  0.1745277E+00
         -4   -1    0    0    0  501 -0.00000000000E+00  0.00000000000E+00  0.17625178173E+01  0.22633755889E+01  0.14200000000E+01 0. -1.
          4   -1    0    0  501    0  0.00000000000E+00 -0.00000000000E+00 -0.49178811072E+02  0.49199307500E+02  0.14200000000E+01 0.  1.
       1023    2    1    2    0    0  0.00000000000E+00  0.00000000000E+00 -0.47416293255E+02  0.51462683089E+02  0.20002571951E+02 0.  0.
        -13    1    3    3    0    0 -0.56425985306E+01 -0.82568186988E+01 -0.23646427546E+02  0.25674475289E+02  0.10570000000E+00 0. -1.
         13    1    3    3    0    0  0.56425985306E+01  0.82568186988E+01 -0.23769865709E+02  0.25788207799E+02  0.10570000000E+00 0.  1.
<mgrwt>
<rscale>  0 0.20002572E+02</rscale>
<asrwt>0</asrwt>
<pdfrwt beam="2">  1        4 0.76060742E-02 0.20002572E+02</pdfrwt>
<pdfrwt beam="1">  1       -4 0.31126079E-03 0.20002572E+02</pdfrwt>
<totfact> 0.11456167E+06</totfact>
</mgrwt>
</event>
<event>
 5    1  0.4970170E-007  0.2000189E+02  0.7818608E-02  0.1745290E+00
         -4   -1    0    0    0  501 -0.00000000000E+00  0.00000000000E+00  0.33021918684E+01  0.35945613273E+01  0.14200000000E+01 0. -1.
          4   -1    0    0  501    0  0.00000000000E+00 -0.00000000000E+00 -0.28693965910E+02  0.28729080731E+02  0.14200000000E+01 0.  1.
       1023    2    1    2    0    0  0.00000000000E+00  0.00000000000E+00 -0.25391774042E+02  0.32323642059E+02  0.20001891084E+02 0.  0.
        -13    1    3    3    0    0  0.10000178624E+02  0.79282056119E-02 -0.12799412248E+02  0.16243145069E+02  0.10570000000E+00 0.  1.
         13    1    3    3    0    0 -0.10000178624E+02 -0.79282056119E-02 -0.12592361795E+02  0.16080496989E+02  0.10570000000E+00 0. -1.
<mgrwt>
<rscale>  0 0.20001891E+02</rscale>
<asrwt>0</asrwt>
<pdfrwt beam="2">  1        4 0.44396472E-02 0.20001891E+02</pdfrwt>
<pdfrwt beam="1">  1       -4 0.53322064E-03 0.20001891E+02</pdfrwt>
<totfact> 0.12333600E+06</totfact>
</mgrwt>
</event>
<event>
 5    1  0.4710515E-007  0.2000591E+02  0.7818608E-02  0.1745211E+00
         -4   -1    0    0    0  501 -0.00000000000E+00  0.00000000000E+00  0.91763272298E+02  0.91774258607E+02  0.14200000000E+01 0. -1.
          4   -1    0    0  501    0  0.00000000000E+00 -0.00000000000E+00 -0.61227367149E+00  0.15463761020E+01  0.14200000000E+01 0.  1.
       1023    2    1    2    0    0  0.00000000000E+00  0.00000000000E+00  0.91150998627E+02  0.93320634709E+02  0.20005906924E+02 0.  0.
        -13    1    3    3    0    0 -0.10001306606E+02 -0.14576339363E+00  0.45682347056E+02  0.46764680966E+02  0.10570000000E+00 0. -1.
         13    1    3    3    0    0  0.10001306606E+02  0.14576339363E+00  0.45468651571E+02  0.46555953743E+02  0.10570000000E+00 0.  1.
<mgrwt>
<rscale>  0 0.20005907E+02</rscale>
<asrwt>0</asrwt>
<pdfrwt beam="2">  1        4 0.16689511E-03 0.20005907E+02</pdfrwt>
<pdfrwt beam="1">  1       -4 0.14190124E-01 0.20005907E+02</pdfrwt>
<totfact> 0.99898189E+05</totfact>
</mgrwt>
</event>
<event>
 5    1  0.4710515E-007  0.2000672E+02  0.7818608E-02  0.1745194E+00
         -4   -1    0    0    0  501 -0.00000000000E+00  0.00000000000E+00  0.48927163404E+00  0.15019276720E+01  0.14200000000E+01 0. -1.
          4   -1    0    0  501    0  0.00000000000E+00 -0.00000000000E+00 -0.99489233300E+02  0.99499366543E+02  0.14200000000E+01 0.  1.
       1023    2    1    2    0    0  0.00000000000E+00  0.00000000000E+00 -0.98999961666E+02  0.10100129422E+03  0.20006724455E+02 0.  0.
        -13    1    3    3    0    0 -0.93101007034E+01  0.36564384479E+01 -0.49967224349E+02  0.50958632231E+02  0.10570000000E+00 0.  1.
         13    1    3    3    0    0  0.93101007034E+01 -0.36564384479E+01 -0.49032737317E+02  0.50042661984E+02  0.10570000000E+00 0. -1.
<mgrwt>
<rscale>  0 0.20006724E+02</rscale>
<asrwt>0</asrwt>
<pdfrwt beam="2">  1        4 0.15384704E-01 0.20006724E+02</pdfrwt>
<pdfrwt beam="1">  1       -4 0.15394874E-03 0.20006724E+02</pdfrwt>
<totfact> 0.97662798E+05</totfact>
</mgrwt>
</event>
<event>
 5    1  0.4710515E-007  0.2000128E+02  0.7818608E-02  0.1745303E+00
         -4   -1    0    0    0  501 -0.00000000000E+00  0.00000000000E+00  0.60154115583E+00  0.15421581508E+01  0.14200000000E+01 0.  1.
          4   -1    0    0  501    0  0.00000000000E+00 -0.00000000000E+00 -0.92360115418E+02  0.92371030741E+02  0.14200000000E+01 0. -1.
       1023    2    1    2    0    0  0.00000000000E+00  0.00000000000E+00 -0.91758574263E+02  0.93913188892E+02  0.20001277386E+02 0.  0.
        -13    1    3    3    0    0 -0.96761752891E+01  0.25243902467E+01 -0.45756179562E+02  0.46836311287E+02  0.10570000000E+00 0.  1.
         13    1    3    3    0    0  0.96761752891E+01 -0.25243902467E+01 -0.46002394700E+02  0.47076877605E+02  0.10570000000E+00 0. -1.
<mgrwt>
<rscale>  0 0.20001277E+02</rscale>
<asrwt>0</asrwt>
<pdfrwt beam="2">  1        4 0.14282437E-01 0.20001277E+02</pdfrwt>
<pdfrwt beam="1">  1       -4 0.16573966E-03 0.20001277E+02</pdfrwt>
<totfact> 0.99768351E+05</totfact>
</mgrwt>
</event>
<event>
 5    1  0.4710515E-007  0.2000274E+02  0.7818608E-02  0.1745274E+00
          4   -1    0    0  501    0  0.00000000000E+00  0.00000000000E+00  0.38929857722E+01  0.41438796100E+01  0.14200000000E+01 0. -1.
         -4   -1    0    0    0  501 -0.00000000000E+00 -0.00000000000E+00 -0.24620154082E+02  0.24661070273E+02  0.14200000000E+01 0.  1.
       1023    2    1    2    0    0  0.00000000000E+00  0.00000000000E+00 -0.20727168310E+02  0.28804949883E+02  0.20002740603E+02 0.  0.
        -13    1    3    3    0    0 -0.99284700899E+01 -0.11947697170E+01 -0.10535442025E+02  0.14526138653E+02  0.10570000000E+00 0.  1.
         13    1    3    3    0    0  0.99284700899E+01  0.11947697170E+01 -0.10191726285E+02  0.14278811230E+02  0.10570000000E+00 0. -1.
<mgrwt>
<rscale>  0 0.20002741E+02</rscale>
<asrwt>0</asrwt>
<pdfrwt beam="1">  1        4 0.62136783E-03 0.20002741E+02</pdfrwt>
<pdfrwt beam="2">  1       -4 0.38101629E-02 0.20002741E+02</pdfrwt>
<totfact> 0.12515149E+06</totfact>
</mgrwt>
</event>
<event>
 5    1  0.4945745E-007  0.2000169E+02  0.7818608E-02  0.1745294E+00
          4   -1    0    0  501    0  0.00000000000E+00  0.00000000000E+00  0.35394339935E+02  0.35422813263E+02  0.14200000000E+01 0. -1.
         -4   -1    0    0    0  501 -0.00000000000E+00 -0.00000000000E+00 -0.26158209938E+01  0.29763937024E+01  0.14200000000E+01 0.  1.
       1023    2    1    2    0    0  0.00000000000E+00  0.00000000000E+00  0.32778518942E+02  0.38399206965E+02  0.20001694717E+02 0.  0.
        -13    1    3    3    0    0  0.99183799094E+01 -0.12763472925E+01  0.16484342038E+02  0.19280768329E+02  0.10570000000E+00 0.  1.
         13    1    3    3    0    0 -0.99183799094E+01  0.12763472925E+01  0.16294176903E+02  0.19118438636E+02  0.10570000000E+00 0. -1.
<mgrwt>
<rscale>  0 0.20001695E+02</rscale>
<asrwt>0</asrwt>
<pdfrwt beam="1">  1        4 0.54752099E-02 0.20001695E+02</pdfrwt>
<pdfrwt beam="2">  1       -4 0.43236060E-03 0.20001695E+02</pdfrwt>
<totfact> 0.12035713E+06</totfact>
</mgrwt>
</event>
<event>
 4    1  0.5243400E-007  0.2033457E+02  0.7818608E-02  0.1738755E+00
          4   -1    0    0  501    0  0.00000000000E+00  0.00000000000E+00  0.64925107544E+00  0.15613862299E+01  0.14200000000E+01 0.  1.
         -4   -1    0    0    0  501 -0.00000000000E+00 -0.00000000000E+00 -0.92604083005E+02  0.92614969574E+02  0.14200000000E+01 0. -1.
        -13    1    1    2    0    0  0.63985045780E+01  0.77721022160E+01 -0.39401378702E+02  0.40667262630E+02  0.10570000000E+00 0.  1.
         13    1    1    2    0    0 -0.63985045780E+01 -0.77721022160E+01 -0.52553453228E+02  0.53509093174E+02  0.10570000000E+00 0. -1.
<mgrwt>
<rscale>  0 0.20334573E+02</rscale>
<asrwt>0</asrwt>
<pdfrwt beam="1">  1        4 0.17088652E-03 0.20334573E+02</pdfrwt>
<pdfrwt beam="2">  1       -4 0.14317778E-01 0.20334573E+02</pdfrwt>
<totfact> 0.96442830E+05</totfact>
</mgrwt>
</event>
<event>
 5    1  0.4710515E-007  0.2000957E+02  0.7818608E-02  0.1745138E+00
         -4   -1    0    0    0  501 -0.00000000000E+00  0.00000000000E+00  0.27091831730E+02  0.27129020375E+02  0.14200000000E+01 0. -1.
          4   -1    0    0  501    0  0.00000000000E+00 -0.00000000000E+00 -0.35169385295E+01  0.37927900838E+01  0.14200000000E+01 0.  1.
       1023    2    1    2    0    0  0.00000000000E+00  0.00000000000E+00  0.23574893201E+02  0.30921810459E+02  0.20009567027E+02 0.  0.
        -13    1    3    3    0    0 -0.87199533153E+01 -0.48959711382E+01  0.11360298929E+02  0.15135246396E+02  0.10570000000E+00 0. -1.
         13    1    3    3    0    0  0.87199533153E+01  0.48959711382E+01  0.12214594272E+02  0.15786564063E+02  0.10570000000E+00 0.  1.
<mgrwt>
<rscale>  0 0.20009567E+02</rscale>
<asrwt>0</asrwt>
<pdfrwt beam="2">  1        4 0.56514748E-03 0.20009567E+02</pdfrwt>
<pdfrwt beam="1">  1       -4 0.41920541E-02 0.20009567E+02</pdfrwt>
<totfact> 0.12395823E+06</totfact>
</mgrwt>
</event>
<event>
 5    1  0.4710515E-007  0.2000153E+02  0.7818608E-02  0.1745298E+00
         -4   -1    0    0    0  501 -0.00000000000E+00  0.00000000000E+00  0.36284833498E+01  0.38964459986E+01  0.14200000000E+01 0.  1.
          4   -1    0    0  501    0  0.00000000000E+00 -0.00000000000E+00 -0.26294581715E+02  0.26332896300E+02  0.14200000000E+01 0. -1.
       1023    2    1    2    0    0  0.00000000000E+00  0.00000000000E+00 -0.22666098365E+02  0.30229342299E+02  0.20001527960E+02 0.  0.
        -13    1    3    3    0    0 -0.69546414854E+01 -0.71857964490E+01 -0.11276521899E+02  0.15072286735E+02  0.10570000000E+00 0. -1.
         13    1    3    3    0    0  0.69546414854E+01  0.71857964490E+01 -0.11389576466E+02  0.15157055564E+02  0.10570000000E+00 0.  1.
<mgrwt>
<rscale>  0 0.20001528E+02</rscale>
<asrwt>0</asrwt>
<pdfrwt beam="2">  1        4 0.40688799E-02 0.20001528E+02</pdfrwt>
<pdfrwt beam="1">  1       -4 0.58178801E-03 0.20001528E+02</pdfrwt>
<totfact> 0.12441848E+06</totfact>
</mgrwt>
</event>
<event>
 4    1  0.4710515E-007  0.2008450E+02  0.7818608E-02  0.1743653E+00
         -4   -1    0    0    0  501 -0.00000000000E+00  0.00000000000E+00  0.18070445772E+02  0.18126152664E+02  0.14200000000E+01 0. -1.
          4   -1    0    0  501    0  0.00000000000E+00 -0.00000000000E+00 -0.54249399599E+01  0.56077066229E+01  0.14200000000E+01 0.  1.
        -13    1    1    2    0    0 -0.97806295478E+01  0.21727214602E+01  0.55263453631E+01  0.11442600162E+02  0.10570000000E+00 0.  1.
         13    1    1    2    0    0  0.97806295478E+01 -0.21727214602E+01  0.71191604485E+01  0.12291259125E+02  0.10570000000E+00 0. -1.
<mgrwt>
<rscale>  0 0.20084503E+02</rscale>
<asrwt>0</asrwt>
<pdfrwt beam="2">  1        4 0.85295025E-03 0.20084503E+02</pdfrwt>
<pdfrwt beam="1">  1       -4 0.27984127E-02 0.20084503E+02</pdfrwt>
<totfact> 0.12687269E+06</totfact>
</mgrwt>
</event>
<event>
 5    1  0.4710515E-007  0.2000170E+02  0.7818608E-02  0.1745294E+00
          4   -1    0    0  501    0  0.00000000000E+00  0.00000000000E+00  0.10275099000E+03  0.10276080161E+03  0.14200000000E+01 0. -1.
         -4   -1    0    0    0  501 -0.00000000000E+00 -0.00000000000E+00 -0.44031733048E+00  0.14867008278E+01  0.14200000000E+01 0.  1.
       1023    2    1    2    0    0  0.00000000000E+00  0.00000000000E+00  0.10231067267E+03  0.10424750243E+03  0.20001700450E+02 0.  0.
        -13    1    3    3    0    0 -0.47583380495E+00  0.99887215206E+01  0.50792094061E+02  0.51767257674E+02  0.10570000000E+00 0.  1.
         13    1    3    3    0    0  0.47583380495E+00 -0.99887215206E+01  0.51518578612E+02  0.52480244760E+02  0.10570000000E+00 0. -1.
<mgrwt>
<rscale>  0 0.20001700E+02</rscale>
<asrwt>0</asrwt>
<pdfrwt beam="1">  1        4 0.15889080E-01 0.20001700E+02</pdfrwt>
<pdfrwt beam="2">  1       -4 0.14898700E-03 0.20001700E+02</pdfrwt>
<totfact> 0.96803102E+05</totfact>
</mgrwt>
</event>
<event>
 5    1  0.4710515E-007  0.2000733E+02  0.7818608E-02  0.1745182E+00
          4   -1    0    0  501    0  0.00000000000E+00  0.00000000000E+00  0.29329098310E+02  0.29363453606E+02  0.14200000000E+01 0.  1.
         -4   -1    0    0    0  501 -0.00000000000E+00 -0.00000000000E+00 -0.32263069607E+01  0.35249761140E+01  0.14200000000E+01 0. -1.
       1023    2    1    2    0    0  0.00000000000E+00  0.00000000000E+00  0.26102791349E+02  0.32888429720E+02  0.20007325989E+02 0.  0.
        -13    1    3    3    0    0 -0.14333160719E+01 -0.98997221483E+01  0.13144489277E+02  0.16518101115E+02  0.10570000000E+00 0.  1.
         13    1    3    3    0    0  0.14333160719E+01  0.98997221483E+01  0.12958302072E+02  0.16370328605E+02  0.10570000000E+00 0. -1.
<mgrwt>
<rscale>  0 0.20007326E+02</rscale>
<asrwt>0</asrwt>
<pdfrwt beam="1">  1        4 0.45377862E-02 0.20007326E+02</pdfrwt>
<pdfrwt beam="2">  1       -4 0.52197218E-03 0.20007326E+02</pdfrwt>
<totfact> 0.12298189E+06</totfact>
</mgrwt>
</event>
<event>
 5    1  0.5019252E-007  0.2000338E+02  0.7818608E-02  0.1745261E+00
          4   -1    0    0  501    0  0.00000000000E+00  0.00000000000E+00  0.72043741737E+00  0.15923033858E+01  0.14200000000E+01 0. -1.
         -4   -1    0    0    0  501 -0.00000000000E+00 -0.00000000000E+00 -0.85626773039E+02  0.85638546584E+02  0.14200000000E+01 0.  1.
       1023    2    1    2    0    0  0.00000000000E+00  0.00000000000E+00 -0.84906335622E+02  0.87230849970E+02  0.20003383659E+02 0.  0.
        -13    1    3    3    0    0 -0.99814210466E+01 -0.61523171524E+00 -0.42994167585E+02  0.44142008280E+02  0.10570000000E+00 0.  1.
         13    1    3    3    0    0  0.99814210466E+01  0.61523171524E+00 -0.41912168036E+02  0.43088841690E+02  0.10570000000E+00 0. -1.
<mgrwt>
<rscale>  0 0.20003384E+02</rscale>
<asrwt>0</asrwt>
<pdfrwt beam="1">  1        4 0.17880886E-03 0.20003384E+02</pdfrwt>
<pdfrwt beam="2">  1       -4 0.13241317E-01 0.20003384E+02</pdfrwt>
<totfact> 0.10177431E+06</totfact>
</mgrwt>
</event>
<event>
 5    1  0.4710515E-007  0.2000467E+02  0.7818608E-02  0.1745235E+00
          4   -1    0    0  501    0  0.00000000000E+00  0.00000000000E+00  0.78006233027E+00  0.16201534616E+01  0.14200000000E+01 0. -1.
         -4   -1    0    0    0  501 -0.00000000000E+00 -0.00000000000E+00 -0.82516456931E+02  0.82528674195E+02  0.14200000000E+01 0.  1.
       1023    2    1    2    0    0  0.00000000000E+00  0.00000000000E+00 -0.81736394600E+02  0.84148827657E+02  0.20004674297E+02 0.  0.
        -13    1    3    3    0    0 -0.94143519760E+01  0.33743165849E+01 -0.41456205335E+02  0.42645564468E+02  0.10570000000E+00 0.  1.
         13    1    3    3    0    0  0.94143519760E+01 -0.33743165849E+01 -0.40280189266E+02  0.41503263189E+02  0.10570000000E+00 0. -1.
<mgrwt>
<rscale>  0 0.20004674E+02</rscale>
<asrwt>0</asrwt>
<pdfrwt beam="1">  1        4 0.18557184E-03 0.20004674E+02</pdfrwt>
<pdfrwt beam="2">  1       -4 0.12760397E-01 0.20004674E+02</pdfrwt>
<totfact> 0.10272802E+06</totfact>
</mgrwt>
</event>
<event>
 4    1  0.4710515E-007  0.2004229E+02  0.7818608E-02  0.1744488E+00
          4   -1    0    0  501    0  0.00000000000E+00  0.00000000000E+00  0.27414725751E+02  0.27451476973E+02  0.14200000000E+01 0. -1.
         -4   -1    0    0    0  501 -0.00000000000E+00 -0.00000000000E+00 -0.34847119387E+01  0.37629266928E+01  0.14200000000E+01 0.  1.
        -13    1    1    2    0    0 -0.61828145194E+01 -0.78834049599E+01  0.11665765427E+02  0.15377793230E+02  0.10570000000E+00 0. -1.
         13    1    1    2    0    0  0.61828145194E+01  0.78834049599E+01  0.12264248386E+02  0.15836610436E+02  0.10570000000E+00 0.  1.
<mgrwt>
<rscale>  0 0.20042291E+02</rscale>
<asrwt>0</asrwt>
<pdfrwt beam="1">  1        4 0.42418782E-02 0.20042291E+02</pdfrwt>
<pdfrwt beam="2">  1       -4 0.56033769E-03 0.20042291E+02</pdfrwt>
<totfact> 0.12339716E+06</totfact>
</mgrwt>
</event>
<event>
 5    1  0.4710515E-007  0.2000278E+02  0.7818608E-02  0.1745273E+00
         -4   -1    0    0    0  501 -0.00000000000E+00  0.00000000000E+00  0.15164656642E+01  0.20775148882E+01  0.14200000000E+01 0.  1.
          4   -1    0    0  501    0  0.00000000000E+00 -0.00000000000E+00 -0.55092455934E+02  0.55110753042E+02  0.14200000000E+01 0. -1.
       1023    2    1    2    0    0  0.00000000000E+00  0.00000000000E+00 -0.53575990270E+02  0.57188267930E+02  0.20002781193E+02 0.  0.
        -13    1    3    3    0    0 -0.68027160200E+01 -0.73300592028E+01 -0.27072868595E+02  0.28861013490E+02  0.10570000000E+00 0.  1.
         13    1    3    3    0    0  0.68027160200E+01  0.73300592028E+01 -0.26503121674E+02  0.28327254440E+02  0.10570000000E+00 0. -1.
<mgrwt>
<rscale>  0 0.20002781E+02</rscale>
<asrwt>0</asrwt>
<pdfrwt beam="2">  1        4 0.85203263E-02 0.20002781E+02</pdfrwt>
<pdfrwt beam="1">  1       -4 0.27786755E-03 0.20002781E+02</pdfrwt>
<totfact> 0.11224886E+06</totfact>
</mgrwt>
</event>
<event>
 5    1  0.4710515E-007  0.2000482E+02  0.7818608E-02  0.1745232E+00
          4   -1    0    0  501    0  0.00000000000E+00  0.00000000000E+00  0.56670653124E+02  0.56688440846E+02  0.14200000000E+01 0. -1.
         -4   -1    0    0    0  501 -0.00000000000E+00 -0.00000000000E+00 -0.14588238493E+01  0.20358209704E+01  0.14200000000E+01 0.  1.
       1023    2    1    2    0    0  0.00000000000E+00  0.00000000000E+00  0.55211829275E+02  0.58724261816E+02  0.20004820268E+02 0.  0.
        -13    1    3    3    0    0 -0.46094245003E+01 -0.88744692439E+01  0.28147492897E+02  0.29871316132E+02  0.10570000000E+00 0.  1.
         13    1    3    3    0    0  0.46094245003E+01  0.88744692439E+01  0.27064336378E+02  0.28852945684E+02  0.10570000000E+00 0. -1.
<mgrwt>
<rscale>  0 0.20004820E+02</rscale>
<asrwt>0</asrwt>
<pdfrwt beam="1">  1        4 0.87643125E-02 0.20004820E+02</pdfrwt>
<pdfrwt beam="2">  1       -4 0.27018719E-03 0.20004820E+02</pdfrwt>
<totfact> 0.11162649E+06</totfact>
</mgrwt>
</event>
<event>
 5    1  0.5154675E-007  0.2000349E+02  0.7818608E-02  0.1745259E+00
         -4   -1    0    0    0  501 -0.00000000000E+00  0.00000000000E+00  0.38091954424E+01  0.40652638191E+01  0.14200000000E+01 0. -1.
          4   -1    0    0  501    0  0.00000000000E+00 -0.00000000000E+00 -0.25130679017E+02  0.25170765341E+02  0.14200000000E+01 0.  1.
       1023    2    1    2    0    0  0.00000000000E+00  0.00000000000E+00 -0.21321483574E+02  0.29236029160E+02  0.20003493176E+02 0.  0.
        -13    1    3    3    0    0 -0.99846343929E+01 -0.56390698483E+00 -0.10826401913E+02  0.14738828513E+02  0.10570000000E+00 0. -1.
         13    1    3    3    0    0  0.99846343929E+01  0.56390698483E+00 -0.10495081661E+02  0.14497200647E+02  0.10570000000E+00 0.  1.
<mgrwt>
<rscale>  0 0.20003493E+02</rscale>
<asrwt>0</asrwt>
<pdfrwt beam="2">  1        4 0.38890393E-02 0.20003493E+02</pdfrwt>
<pdfrwt beam="1">  1       -4 0.60881121E-03 0.20003493E+02</pdfrwt>
<totfact> 0.12491402E+06</totfact>
</mgrwt>
</event>
<event>
 4    1  0.4710515E-007  0.2054359E+02  0.7818608E-02  0.1734729E+00
         -4   -1    0    0    0  501 -0.00000000000E+00  0.00000000000E+00  0.11221933750E+01  0.18098944640E+01  0.14200000000E+01 0. -1.
          4   -1    0    0  501    0  0.00000000000E+00 -0.00000000000E+00 -0.71272602584E+02  0.71286746868E+02  0.14200000000E+01 0.  1.
        -13    1    1    2    0    0  0.96888616641E+01 -0.34036378567E+01 -0.34365343405E+02  0.35867071122E+02  0.10570000000E+00 0. -1.
         13    1    1    2    0    0 -0.96888616641E+01  0.34036378567E+01 -0.35785065803E+02  0.37229570210E+02  0.10570000000E+00 0.  1.
<mgrwt>
<rscale>  0 0.20543589E+02</rscale>
<asrwt>0</asrwt>
<pdfrwt beam="2">  1        4 0.11019001E-01 0.20543589E+02</pdfrwt>
<pdfrwt beam="1">  1       -4 0.22663330E-03 0.20543589E+02</pdfrwt>
<totfact> 0.10082206E+06</totfact>
</mgrwt>
</event>
<event>
 5    1  0.4710515E-007  0.2000434E+02  0.7818608E-02  0.1745242E+00
         -4   -1    0    0    0  501 -0.00000000000E+00  0.00000000000E+00  0.48713994498E+02  0.48734686415E+02  0.14200000000E+01 0.  1.
          4   -1    0    0  501    0  0.00000000000E+00 -0.00000000000E+00 -0.17844903051E+01  0.22805274936E+01  0.14200000000E+01 0. -1.
       1023    2    1    2    0    0  0.00000000000E+00  0.00000000000E+00  0.46929504193E+02  0.51015213909E+02  0.20004341687E+02 0.  0.
        -13    1    3    3    0    0  0.20939008485E+01  0.97799330842E+01  0.23533993815E+02  0.25571303237E+02  0.10570000000E+00 0.  1.
         13    1    3    3    0    0 -0.20939008485E+01 -0.97799330842E+01  0.23395510379E+02  0.25443910672E+02  0.10570000000E+00 0. -1.
<mgrwt>
<rscale>  0 0.20004342E+02</rscale>
<asrwt>0</asrwt>
<pdfrwt beam="2">  1        4 0.31428543E-03 0.20004342E+02</pdfrwt>
<pdfrwt beam="1">  1       -4 0.75342076E-02 0.20004342E+02</pdfrwt>
<totfact> 0.11472708E+06</totfact>
</mgrwt>
</event>
<event>
 5    1  0.4710515E-007  0.2000278E+02  0.7818608E-02  0.1745273E+00
          4   -1    0    0  501    0  0.00000000000E+00  0.00000000000E+00  0.67458661106E+00  0.15720900406E+01  0.14200000000E+01 0. -1.
         -4   -1    0    0    0  501 -0.00000000000E+00 -0.00000000000E+00 -0.88139599928E+02  0.88151037859E+02  0.14200000000E+01 0.  1.
       1023    2    1    2    0    0  0.00000000000E+00  0.00000000000E+00 -0.87465013317E+02  0.89723127899E+02  0.20002777942E+02 0.  0.
        -13    1    3    3    0    0  0.99493613624E+01 -0.10063388757E+01 -0.44265123103E+02  0.45380775724E+02  0.10570000000E+00 0. -1.
         13    1    3    3    0    0 -0.99493613624E+01  0.10063388757E+01 -0.43199890214E+02  0.44342352175E+02  0.10570000000E+00 0.  1.
<mgrwt>
<rscale>  0 0.20002778E+02</rscale>
<asrwt>0</asrwt>
<pdfrwt beam="1">  1        4 0.17370119E-03 0.20002778E+02</pdfrwt>
<pdfrwt beam="2">  1       -4 0.13629852E-01 0.20002778E+02</pdfrwt>
<totfact> 0.10101344E+06</totfact>
</mgrwt>
</event>
<event>
 5    1  0.4788426E-007  0.2000207E+02  0.7818608E-02  0.1745287E+00
         -4   -1    0    0    0  501 -0.00000000000E+00  0.00000000000E+00  0.18686748643E+01  0.23469865250E+01  0.14200000000E+01 0. -1.
          4   -1    0    0  501    0  0.00000000000E+00 -0.00000000000E+00 -0.46961701841E+02  0.46983165494E+02  0.14200000000E+01 0.  1.
       1023    2    1    2    0    0  0.00000000000E+00  0.00000000000E+00 -0.45093026977E+02  0.49330152019E+02  0.20002070299E+02 0.  0.
        -13    1    3    3    0    0 -0.97912402271E+01 -0.20326439300E+01 -0.22306069158E+02  0.24445284214E+02  0.10570000000E+00 0.  1.
         13    1    3    3    0    0  0.97912402271E+01  0.20326439300E+01 -0.22786957819E+02  0.24884867805E+02  0.10570000000E+00 0. -1.
<mgrwt>
<rscale>  0 0.20002070E+02</rscale>
<asrwt>0</asrwt>
<pdfrwt beam="2">  1        4 0.72633207E-02 0.20002070E+02</pdfrwt>
<pdfrwt beam="1">  1       -4 0.32593273E-03 0.20002070E+02</pdfrwt>
<totfact> 0.11546068E+06</totfact>
</mgrwt>
</event>
<event>
 5    1  0.4710515E-007  0.2000158E+02  0.7818608E-02  0.1745297E+00
         -4   -1    0    0    0  501 -0.00000000000E+00  0.00000000000E+00  0.16465849948E+01  0.21743141781E+01  0.14200000000E+01 0.  1.
          4   -1    0    0  501    0  0.00000000000E+00 -0.00000000000E+00 -0.51813188525E+02  0.51832643239E+02  0.14200000000E+01 0. -1.
       1023    2    1    2    0    0  0.00000000000E+00  0.00000000000E+00 -0.50166603530E+02  0.54006957417E+02  0.20001583430E+02 0.  0.
        -13    1    3    3    0    0 -0.32320914734E-01  0.10000049065E+02 -0.25221944736E+02  0.27132262985E+02  0.10570000000E+00 0.  1.
         13    1    3    3    0    0  0.32320914734E-01 -0.10000049065E+02 -0.24944658794E+02  0.26874694432E+02  0.10570000000E+00 0. -1.
<mgrwt>
<rscale>  0 0.20001583E+02</rscale>
<asrwt>0</asrwt>
<pdfrwt beam="2">  1        4 0.80133498E-02 0.20001583E+02</pdfrwt>
<pdfrwt beam="1">  1       -4 0.29541188E-03 0.20001583E+02</pdfrwt>
<totfact> 0.11353106E+06</totfact>
</mgrwt>
</event>
<event>
 5    1  0.4710515E-007  0.2000196E+02  0.7818608E-02  0.1745289E+00
         -4   -1    0    0    0  501 -0.00000000000E+00  0.00000000000E+00  0.76152182051E+00  0.16113086244E+01  0.14200000000E+01 0. -1.
          4   -1    0    0  501    0  0.00000000000E+00 -0.00000000000E+00 -0.83446064892E+02  0.83458146073E+02  0.14200000000E+01 0.  1.
       1023    2    1    2    0    0  0.00000000000E+00  0.00000000000E+00 -0.82684543072E+02  0.85069454698E+02  0.20001961394E+02 0.  0.
        -13    1    3    3    0    0 -0.89822586464E+01  0.43953520633E+01 -0.40953581881E+02  0.42156934560E+02  0.10570000000E+00 0. -1.
         13    1    3    3    0    0  0.89822586464E+01 -0.43953520633E+01 -0.41730961191E+02  0.42912520137E+02  0.10570000000E+00 0.  1.
<mgrwt>
<rscale>  0 0.20001961E+02</rscale>
<asrwt>0</asrwt>
<pdfrwt beam="2">  1        4 0.12904149E-01 0.20001961E+02</pdfrwt>
<pdfrwt beam="1">  1       -4 0.18345481E-03 0.20001961E+02</pdfrwt>
<totfact> 0.10246502E+06</totfact>
</mgrwt>
</event>
<event>
 5    1  0.5000514E-007  0.2000331E+02  0.7818608E-02  0.1745262E+00
          4   -1    0    0  501    0  0.00000000000E+00  0.00000000000E+00  0.85616236898E+01  0.86785828455E+01  0.14200000000E+01 0.  1.
         -4   -1    0    0    0  501 -0.00000000000E+00 -0.00000000000E+00 -0.11443485150E+02  0.11531251120E+02  0.14200000000E+01 0. -1.
       1023    2    1    2    0    0  0.00000000000E+00  0.00000000000E+00 -0.28818614604E+01  0.20209833965E+02  0.20003306312E+02 0.  0.
        -13    1    3    3    0    0  0.98989599659E+01 -0.14187105038E+01 -0.15829000961E+01  0.10125161387E+02  0.10570000000E+00 0.  1.
         13    1    3    3    0    0 -0.98989599659E+01  0.14187105038E+01 -0.12989613643E+01  0.10084672579E+02  0.10570000000E+00 0. -1.
<mgrwt>
<rscale>  0 0.20003306E+02</rscale>
<asrwt>0</asrwt>
<pdfrwt beam="1">  1        4 0.13329210E-02 0.20003306E+02</pdfrwt>
<pdfrwt beam="2">  1       -4 0.17762843E-02 0.20003306E+02</pdfrwt>
<totfact> 0.12997171E+06</totfact>
</mgrwt>
</event>
<event>
 5    1  0.4710515E-007  0.2000181E+02  0.7818608E-02  0.1745292E+00
          4   -1    0    0  501    0  0.00000000000E+00  0.00000000000E+00  0.53678729905E+01  0.55525183874E+01  0.14200000000E+01 0.  1.
         -4   -1    0    0    0  501 -0.00000000000E+00 -0.00000000000E+00 -0.18104769344E+02  0.18160370949E+02  0.14200000000E+01 0. -1.
       1023    2    1    2    0    0  0.00000000000E+00  0.00000000000E+00 -0.12736896354E+02  0.23712889337E+02  0.20001814717E+02 0.  0.
        -13    1    3    3    0    0  0.78530597856E+01 -0.61914736647E+01 -0.64225347167E+01  0.11885496153E+02  0.10570000000E+00 0. -1.
         13    1    3    3    0    0 -0.78530597856E+01  0.61914736647E+01 -0.63143616373E+01  0.11827393183E+02  0.10570000000E+00 0.  1.
<mgrwt>
<rscale>  0 0.20001815E+02</rscale>
<asrwt>0</asrwt>
<pdfrwt beam="1">  1        4 0.84430716E-03 0.20001815E+02</pdfrwt>
<pdfrwt beam="2">  1       -4 0.28038296E-02 0.20001815E+02</pdfrwt>
<totfact> 0.12795623E+06</totfact>
</mgrwt>
</event>
<event>
 5    1  0.4710515E-007  0.2000293E+02  0.7818608E-02  0.1745270E+00
         -4   -1    0    0    0  501 -0.00000000000E+00  0.00000000000E+00  0.10111267499E+03  0.10112264555E+03  0.14200000000E+01 0. -1.
          4   -1    0    0  501    0  0.00000000000E+00 -0.00000000000E+00 -0.46445375937E+00  0.14940272068E+01  0.14200000000E+01 0.  1.
       1023    2    1    2    0    0  0.00000000000E+00  0.00000000000E+00  0.10064822123E+03  0.10261667276E+03  0.20002927070E+02 0.  0.
        -13    1    3    3    0    0  0.98942795986E+01  0.14559256060E+01  0.50118125720E+02  0.51106302804E+02  0.10570000000E+00 0.  1.
         13    1    3    3    0    0 -0.98942795986E+01 -0.14559256060E+01  0.50530095509E+02  0.51510369953E+02  0.10570000000E+00 0. -1.
<mgrwt>
<rscale>  0 0.20002927E+02</rscale>
<asrwt>0</asrwt>
<pdfrwt beam="2">  1        4 0.15141933E-03 0.20002927E+02</pdfrwt>
<pdfrwt beam="1">  1       -4 0.15635763E-01 0.20002927E+02</pdfrwt>
<totfact> 0.97245299E+05</totfact>
</mgrwt>
</event>
<event>
 5    1  0.4710515E-007  0.2000511E+02  0.7818608E-02  0.1745227E+00
         -4   -1    0    0    0  501 -0.00000000000E+00  0.00000000000E+00  0.89350310190E+01  0.90471641585E+01  0.14200000000E+01 0. -1.
          4   -1    0    0  501    0  0.00000000000E+00 -0.00000000000E+00 -0.10969613522E+02  0.11061140123E+02  0.14200000000E+01 0.  1.
       1023    2    1    2    0    0  0.00000000000E+00  0.00000000000E+00 -0.20345825032E+01  0.20108304282E+02  0.20005108726E+02 0.  0.
        -13    1    3    3    0    0 -0.83299965020E+01 -0.55360720632E+01 -0.96236801849E+00  0.10048594942E+02  0.10570000000E+00 0. -1.
         13    1    3    3    0    0  0.83299965020E+01  0.55360720632E+01 -0.10722144847E+01  0.10059709340E+02  0.10570000000E+00 0.  1.
<mgrwt>
<rscale>  0 0.20005109E+02</rscale>
<asrwt>0</asrwt>
<pdfrwt beam="2">  1        4 0.17032990E-02 0.20005109E+02</pdfrwt>
<pdfrwt beam="1">  1       -4 0.13902863E-02 0.20005109E+02</pdfrwt>
<totfact> 0.13000838E+06</totfact>
</mgrwt>
</event>
<event>
 5    1  0.4995069E-007  0.2000267E+02  0.7818608E-02  0.1745275E+00
          4   -1    0    0  501    0  0.00000000000E+00  0.00000000000E+00  0.25885922871E+02  0.25924841425E+02  0.14200000000E+01 0.  1.
         -4   -1    0    0    0  501 -0.00000000000E+00 -0.00000000000E+00 -0.36903276596E+01  0.39541014447E+01  0.14200000000E+01 0. -1.
       1023    2    1    2    0    0  0.00000000000E+00  0.00000000000E+00  0.22195595211E+02  0.29878942869E+02  0.20002669327E+02 0.  0.
        -13    1    3    3    0    0  0.22355906543E+01  0.97476720888E+01  0.11062899089E+02  0.14913547045E+02  0.10570000000E+00 0.  1.
         13    1    3    3    0    0 -0.22355906543E+01 -0.97476720888E+01  0.11132696123E+02  0.14965395824E+02  0.10570000000E+00 0. -1.
<mgrwt>
<rscale>  0 0.20002669E+02</rscale>
<asrwt>0</asrwt>
<pdfrwt beam="1">  1        4 0.40057338E-02 0.20002669E+02</pdfrwt>
<pdfrwt beam="2">  1       -4 0.59102673E-03 0.20002669E+02</pdfrwt>
<totfact> 0.12458689E+06</totfact>
</mgrwt>
</event>
<event>
 5    1  0.4710515E-007  0.2000618E+02  0.7818608E-02  0.1745205E+00
          4   -1    0    0  501    0  0.00000000000E+00  0.00000000000E+00  0.88754947070E+01  0.89883706139E+01  0.14200000000E+01 0.  1.
         -4   -1    0    0    0  501 -0.00000000000E+00 -0.00000000000E+00 -0.11044084092E+02  0.11134998582E+02  0.14200000000E+01 0. -1.
       1023    2    1    2    0    0  0.00000000000E+00  0.00000000000E+00 -0.21685893850E+01  0.20123369196E+02  0.20006179243E+02 0.  0.
        -13    1    3    3    0    0 -0.90438234479E+01 -0.42727059498E+01 -0.11468748329E+01  0.10068428530E+02  0.10570000000E+00 0.  1.
         13    1    3    3    0    0  0.90438234479E+01  0.42727059498E+01 -0.10217145521E+01  0.10054940666E+02  0.10570000000E+00 0. -1.
<mgrwt>
<rscale>  0 0.20006179E+02</rscale>
<asrwt>0</asrwt>
<pdfrwt beam="1">  1        4 0.13811369E-02 0.20006179E+02</pdfrwt>
<pdfrwt beam="2">  1       -4 0.17147660E-02 0.20006179E+02</pdfrwt>
<totfact> 0.12998521E+06</totfact>
</mgrwt>
</event>
<event>
 4    1  0.4710515E-007  0.2002366E+02  0.7818608E-02  0.1744858E+00
         -4   -1    0    0    0  501 -0.00000000000E+00  0.00000000000E+00  0.49959928476E+02  0.49980104575E+02  0.14200000000E+01 0. -1.
          4   -1    0    0  501    0  0.00000000000E+00 -0.00000000000E+00 -0.17318475258E+01  0.22395749268E+01  0.14200000000E+01 0.  1.
        -13    1    1    2    0    0 -0.88272699518E+01  0.47036456004E+01  0.25222426555E+02  0.27133502364E+02  0.10570000000E+00 0.  1.
         13    1    1    2    0    0  0.88272699518E+01 -0.47036456004E+01  0.23005654395E+02  0.25086177138E+02  0.10570000000E+00 0. -1.
<mgrwt>
<rscale>  0 0.20023664E+02</rscale>
<asrwt>0</asrwt>
<pdfrwt beam="2">  1        4 0.30704605E-03 0.20023664E+02</pdfrwt>
<pdfrwt beam="1">  1       -4 0.77267507E-02 0.20023664E+02</pdfrwt>
<totfact> 0.11400648E+06</totfact>
</mgrwt>
</event>
<event>
 4    1  0.4710515E-007  0.2008771E+02  0.7818608E-02  0.1743589E+00
         -4   -1    0    0    0  501 -0.00000000000E+00  0.00000000000E+00  0.38337988160E+00  0.14708433409E+01  0.14200000000E+01 0. -1.
          4   -1    0    0  501    0  0.00000000000E+00 -0.00000000000E+00 -0.10771516469E+03  0.10772452416E+03  0.14200000000E+01 0.  1.
        -13    1    1    2    0    0 -0.56385185378E+01 -0.82810779725E+01 -0.49826930605E+02  0.50824239588E+02  0.10570000000E+00 0. -1.
         13    1    1    2    0    0  0.56385185378E+01  0.82810779725E+01 -0.57504854205E+02  0.58371127908E+02  0.10570000000E+00 0.  1.
<mgrwt>
<rscale>  0 0.20087714E+02</rscale>
<asrwt>0</asrwt>
<pdfrwt beam="2">  1        4 0.16655925E-01 0.20087714E+02</pdfrwt>
<pdfrwt beam="1">  1       -4 0.14335260E-03 0.20087714E+02</pdfrwt>
<totfact> 0.94639769E+05</totfact>
</mgrwt>
</event>
<event>
 5    1  0.4710515E-007  0.2000828E+02  0.7818608E-02  0.1745163E+00
         -4   -1    0    0    0  501 -0.00000000000E+00  0.00000000000E+00  0.11442256815E+03  0.11443137901E+03  0.14200000000E+01 0.  1.
          4   -1    0    0  501    0  0.00000000000E+00 -0.00000000000E+00 -0.28358158790E+00  0.14480395426E+01  0.14200000000E+01 0. -1.
       1023    2    1    2    0    0  0.00000000000E+00  0.00000000000E+00  0.11413898656E+03  0.11587941855E+03  0.20008283049E+02 0.  0.
        -13    1    3    3    0    0  0.82040657192E+01 -0.57240682410E+01  0.57041355903E+02  0.57911994502E+02  0.10570000000E+00 0. -1.
         13    1    3    3    0    0 -0.82040657192E+01  0.57240682410E+01  0.57097630660E+02  0.57967424051E+02  0.10570000000E+00 0.  1.
<mgrwt>
<rscale>  0 0.20008283E+02</rscale>
<asrwt>0</asrwt>
<pdfrwt beam="2">  1        4 0.13387939E-03 0.20008283E+02</pdfrwt>
<pdfrwt beam="1">  1       -4 0.17693723E-01 0.20008283E+02</pdfrwt>
<totfact> 0.93631279E+05</totfact>
</mgrwt>
</event>
<event>
 5    1  0.4710515E-007  0.2000942E+02  0.7818608E-02  0.1745141E+00
         -4   -1    0    0    0  501 -0.00000000000E+00  0.00000000000E+00  0.15073318794E+02  0.15140057446E+02  0.14200000000E+01 0. -1.
          4   -1    0    0  501    0  0.00000000000E+00 -0.00000000000E+00 -0.64820587940E+01  0.66357732186E+01  0.14200000000E+01 0.  1.
       1023    2    1    2    0    0  0.00000000000E+00  0.00000000000E+00  0.85912599996E+01  0.21775830664E+02  0.20009424098E+02 0.  0.
        -13    1    3    3    0    0 -0.52335604422E+01  0.85259191950E+01  0.43396706346E+01  0.10905290768E+02  0.10570000000E+00 0. -1.
         13    1    3    3    0    0  0.52335604422E+01 -0.85259191950E+01  0.42515893650E+01  0.10870539896E+02  0.10570000000E+00 0.  1.
<mgrwt>
<rscale>  0 0.20009424E+02</rscale>
<asrwt>0</asrwt>
<pdfrwt beam="2">  1        4 0.10141978E-02 0.20009424E+02</pdfrwt>
<pdfrwt beam="1">  1       -4 0.23359300E-02 0.20009424E+02</pdfrwt>
<totfact> 0.12896861E+06</totfact>
</mgrwt>
</event>
<event>
 5    1  0.4710515E-007  0.2001179E+02  0.7818608E-02  0.1745094E+00
         -4   -1    0    0    0  501 -0.00000000000E+00  0.00000000000E+00  0.83359765807E+01  0.84560573291E+01  0.14200000000E+01 0.  1.
          4   -1    0    0  501    0  0.00000000000E+00 -0.00000000000E+00 -0.11761361060E+02  0.11846772302E+02  0.14200000000E+01 0. -1.
       1023    2    1    2    0    0  0.00000000000E+00  0.00000000000E+00 -0.34253844794E+01  0.20302829631E+02  0.20011787332E+02 0.  0.
        -13    1    3    3    0    0  0.10000853590E+02 -0.29896615801E+00 -0.17297372664E+01  0.10154290561E+02  0.10570000000E+00 0.  1.
         13    1    3    3    0    0 -0.10000853590E+02  0.29896615801E+00 -0.16956472129E+01  0.10148539070E+02  0.10570000000E+00 0. -1.
<mgrwt>
<rscale>  0 0.20011787E+02</rscale>
<asrwt>0</asrwt>
<pdfrwt beam="2">  1        4 0.18252472E-02 0.20011787E+02</pdfrwt>
<pdfrwt beam="1">  1       -4 0.12982650E-02 0.20011787E+02</pdfrwt>
<totfact> 0.12980399E+06</totfact>
</mgrwt>
</event>
<event>
 5    1  0.4710515E-007  0.2000157E+02  0.7818608E-02  0.1745297E+00
         -4   -1    0    0    0  501 -0.00000000000E+00  0.00000000000E+00  0.89019598244E+02  0.89030923119E+02  0.14200000000E+01 0.  1.
          4   -1    0    0  501    0  0.00000000000E+00 -0.00000000000E+00 -0.65881271457E+00  0.15653862759E+01  0.14200000000E+01 0. -1.
       1023    2    1    2    0    0  0.00000000000E+00  0.00000000000E+00  0.88360785529E+02  0.90596309395E+02  0.20001571356E+02 0.  0.
        -13    1    3    3    0    0  0.98492424604E+01 -0.17311737067E+01  0.44173614121E+02  0.45291543322E+02  0.10570000000E+00 0.  1.
         13    1    3    3    0    0 -0.98492424604E+01  0.17311737067E+01  0.44187171408E+02  0.45304766074E+02  0.10570000000E+00 0. -1.
<mgrwt>
<rscale>  0 0.20001571E+02</rscale>
<asrwt>0</asrwt>
<pdfrwt beam="2">  1        4 0.17196337E-03 0.20001571E+02</pdfrwt>
<pdfrwt beam="1">  1       -4 0.13765931E-01 0.20001571E+02</pdfrwt>
<totfact> 0.10075999E+06</totfact>
</mgrwt>
</event>
<event>
 4    1  0.4710515E-007  0.2001487E+02  0.7818608E-02  0.1745033E+00
          4   -1    0    0  501    0  0.00000000000E+00  0.00000000000E+00  0.26229968737E+01  0.29827022311E+01  0.14200000000E+01 0.  1.
         -4   -1    0    0    0  501 -0.00000000000E+00 -0.00000000000E+00 -0.35356176321E+02  0.35384680358E+02  0.14200000000E+01 0. -1.
        -13    1    1    2    0    0  0.68756725247E+00  0.99815662237E+01 -0.16017479519E+02  0.18885847496E+02  0.10570000000E+00 0.  1.
         13    1    1    2    0    0 -0.68756725247E+00 -0.99815662237E+01 -0.16715699927E+02  0.19481535092E+02  0.10570000000E+00 0. -1.
<mgrwt>
<rscale>  0 0.20014870E+02</rscale>
<asrwt>0</asrwt>
<pdfrwt beam="1">  1        4 0.43340027E-03 0.20014870E+02</pdfrwt>
<pdfrwt beam="2">  1       -4 0.54692737E-02 0.20014870E+02</pdfrwt>
<totfact> 0.12021178E+06</totfact>
</mgrwt>
</event>
<event>
 5    1  0.4710515E-007  0.2000326E+02  0.7818608E-02  0.1745263E+00
          4   -1    0    0  501    0  0.00000000000E+00  0.00000000000E+00  0.93097050463E+00  0.16979711660E+01  0.14200000000E+01 0. -1.
         -4   -1    0    0    0  501 -0.00000000000E+00 -0.00000000000E+00 -0.75325381822E+02  0.75338765232E+02  0.14200000000E+01 0.  1.
       1023    2    1    2    0    0  0.00000000000E+00  0.00000000000E+00 -0.74394411317E+02  0.77036736398E+02  0.20003257723E+02 0.  0.
        -13    1    3    3    0    0  0.95756671319E+01  0.28824576021E+01 -0.37734232575E+02  0.39036975336E+02  0.10570000000E+00 0.  1.
         13    1    3    3    0    0 -0.95756671319E+01 -0.28824576021E+01 -0.36660178742E+02  0.37999761061E+02  0.10570000000E+00 0. -1.
<mgrwt>
<rscale>  0 0.20003258E+02</rscale>
<asrwt>0</asrwt>
<pdfrwt beam="1">  1        4 0.20325583E-03 0.20003258E+02</pdfrwt>
<pdfrwt beam="2">  1       -4 0.11648546E-01 0.20003258E+02</pdfrwt>
<totfact> 0.10505675E+06</totfact>
</mgrwt>
</event>
<event>
 5    1  0.4710515E-007  0.2000424E+02  0.7818608E-02  0.1745244E+00
         -4   -1    0    0    0  501 -0.00000000000E+00  0.00000000000E+00  0.72422769060E+02  0.72436688758E+02  0.14200000000E+01 0. -1.
          4   -1    0    0  501    0  0.00000000000E+00 -0.00000000000E+00 -0.99859091717E+00  0.17359676898E+01  0.14200000000E+01 0.  1.
       1023    2    1    2    0    0  0.00000000000E+00  0.00000000000E+00  0.71424178142E+02  0.74172656448E+02  0.20004243081E+02 0.  0.
        -13    1    3    3    0    0  0.10912839844E+01  0.99418126610E+01  0.35612383401E+02  0.36990317162E+02  0.10570000000E+00 0.  1.
         13    1    3    3    0    0 -0.10912839844E+01 -0.99418126610E+01  0.35811794741E+02  0.37182339286E+02  0.10570000000E+00 0. -1.
<mgrwt>
<rscale>  0 0.20004243E+02</rscale>
<asrwt>0</asrwt>
<pdfrwt beam="2">  1        4 0.21142140E-03 0.20004243E+02</pdfrwt>
<pdfrwt beam="1">  1       -4 0.11199757E-01 0.20004243E+02</pdfrwt>
<totfact> 0.10601383E+06</totfact>
</mgrwt>
</event>
<event>
 5    1  0.4710515E-007  0.2000164E+02  0.7818608E-02  0.1745295E+00
          4   -1    0    0  501    0  0.00000000000E+00  0.00000000000E+00  0.30369630959E+02  0.30402810472E+02  0.14200000000E+01 0.  1.
         -4   -1    0    0    0  501 -0.00000000000E+00 -0.00000000000E+00 -0.31035262778E+01  0.34129569814E+01  0.14200000000E+01 0. -1.
       1023    2    1    2    0    0  0.00000000000E+00  0.00000000000E+00  0.27266104681E+02  0.33815767453E+02  0.20001641532E+02 0.  0.
        -13    1    3    3    0    0  0.68689166084E+01 -0.72676749390E+01  0.13524414326E+02  0.16820287445E+02  0.10570000000E+00 0.  1.
         13    1    3    3    0    0 -0.68689166084E+01  0.72676749390E+01  0.13741690355E+02  0.16995480008E+02  0.10570000000E+00 0. -1.
<mgrwt>
<rscale>  0 0.20001642E+02</rscale>
<asrwt>0</asrwt>
<pdfrwt beam="1">  1        4 0.46986057E-02 0.20001642E+02</pdfrwt>
<pdfrwt beam="2">  1       -4 0.50382020E-03 0.20001642E+02</pdfrwt>
<totfact> 0.12258701E+06</totfact>
</mgrwt>
</event>
<event>
 5    1  0.4710515E-007  0.2000206E+02  0.7818608E-02  0.1745287E+00
          4   -1    0    0  501    0  0.00000000000E+00  0.00000000000E+00  0.31828147041E+02  0.31859807659E+02  0.14200000000E+01 0.  1.
         -4   -1    0    0    0  501 -0.00000000000E+00 -0.00000000000E+00 -0.29470844836E+01  0.32713463518E+01  0.14200000000E+01 0. -1.
       1023    2    1    2    0    0  0.00000000000E+00  0.00000000000E+00  0.28881062558E+02  0.35131154011E+02  0.20002055086E+02 0.  0.
        -13    1    3    3    0    0  0.69825919762E+01  0.71590945258E+01  0.14462348214E+02  0.17583512547E+02  0.10570000000E+00 0.  1.
         13    1    3    3    0    0 -0.69825919762E+01 -0.71590945258E+01  0.14418714343E+02  0.17547641464E+02  0.10570000000E+00 0. -1.
<mgrwt>
<rscale>  0 0.20002055E+02</rscale>
<asrwt>0</asrwt>
<pdfrwt beam="1">  1        4 0.49240165E-02 0.20002055E+02</pdfrwt>
<pdfrwt beam="2">  1       -4 0.48077628E-03 0.20002055E+02</pdfrwt>
<totfact> 0.12192991E+06</totfact>
</mgrwt>
</event>
<event>
 5    1  0.4710515E-007  0.2000404E+02  0.7818608E-02  0.1745248E+00
         -4   -1    0    0    0  501 -0.00000000000E+00  0.00000000000E+00  0.66795529161E+02  0.66810621281E+02  0.14200000000E+01 0.  1.
          4   -1    0    0  501    0  0.00000000000E+00 -0.00000000000E+00 -0.11423566639E+01  0.18224650196E+01  0.14200000000E+01 0. -1.
       1023    2    1    2    0    0  0.00000000000E+00  0.00000000000E+00  0.65653172497E+02  0.68633086300E+02  0.20004036496E+02 0.  0.
        -13    1    3    3    0    0  0.46812531439E-01 -0.10001153412E+02  0.33041824335E+02  0.34522436021E+02  0.10570000000E+00 0.  1.
         13    1    3    3    0    0 -0.46812531439E-01  0.10001153412E+02  0.32611348163E+02  0.34110650279E+02  0.10570000000E+00 0. -1.
<mgrwt>
<rscale>  0 0.20004036E+02</rscale>
<asrwt>0</asrwt>
<pdfrwt beam="2">  1        4 0.22922406E-03 0.20004036E+02</pdfrwt>
<pdfrwt beam="1">  1       -4 0.10329716E-01 0.20004036E+02</pdfrwt>
<totfact> 0.10794949E+06</totfact>
</mgrwt>
</event>
<event>
 5    1  0.4710515E-007  0.2000208E+02  0.7818608E-02  0.1745287E+00
         -4   -1    0    0    0  501 -0.00000000000E+00  0.00000000000E+00  0.41109728867E+00  0.14783101775E+01  0.14200000000E+01 0. -1.
          4   -1    0    0  501    0  0.00000000000E+00 -0.00000000000E+00 -0.10480057627E+03  0.10481019600E+03  0.14200000000E+01 0.  1.
       1023    2    1    2    0    0  0.00000000000E+00  0.00000000000E+00 -0.10438947898E+03  0.10628850618E+03  0.20002080502E+02 0.  0.
        -13    1    3    3    0    0  0.96889649422E+01  0.24763291475E+01 -0.52392563575E+02  0.53338542707E+02  0.10570000000E+00 0.  1.
         13    1    3    3    0    0 -0.96889649422E+01 -0.24763291475E+01 -0.51996915401E+02  0.52949963470E+02  0.10570000000E+00 0. -1.
<mgrwt>
<rscale>  0 0.20002081E+02</rscale>
<asrwt>0</asrwt>
<pdfrwt beam="2">  1        4 0.16205990E-01 0.20002081E+02</pdfrwt>
<pdfrwt beam="1">  1       -4 0.14607910E-03 0.20002081E+02</pdfrwt>
<totfact> 0.96237310E+05</totfact>
</mgrwt>
</event>
<event>
 5    1  0.4710515E-007  0.2000329E+02  0.7818608E-02  0.1745263E+00
         -4   -1    0    0    0  501 -0.00000000000E+00  0.00000000000E+00  0.65852621436E+01  0.67366221134E+01  0.14200000000E+01 0.  1.
          4   -1    0    0  501    0  0.00000000000E+00 -0.00000000000E+00 -0.14832171408E+02  0.14899990224E+02  0.14200000000E+01 0. -1.
       1023    2    1    2    0    0  0.00000000000E+00  0.00000000000E+00 -0.82469092641E+01  0.21636612337E+02  0.20003286755E+02 0.  0.
        -13    1    3    3    0    0 -0.94857600722E+01  0.31685450650E+01 -0.40707326475E+01  0.10798210905E+02  0.10570000000E+00 0. -1.
         13    1    3    3    0    0  0.94857600722E+01 -0.31685450650E+01 -0.41761766166E+01  0.10838401432E+02  0.10570000000E+00 0.  1.
<mgrwt>
<rscale>  0 0.20003287E+02</rscale>
<asrwt>0</asrwt>
<pdfrwt beam="2">  1        4 0.22987324E-02 0.20003287E+02</pdfrwt>
<pdfrwt beam="1">  1       -4 0.10299772E-02 0.20003287E+02</pdfrwt>
<totfact> 0.12913051E+06</totfact>
</mgrwt>
</event>
<event>
 5    1  0.4710515E-007  0.2000227E+02  0.7818608E-02  0.1745283E+00
         -4   -1    0    0    0  501 -0.00000000000E+00  0.00000000000E+00  0.60215968577E+00  0.15423995226E+01  0.14200000000E+01 0. -1.
          4   -1    0    0  501    0  0.00000000000E+00 -0.00000000000E+00 -0.92332359833E+02  0.92343278436E+02  0.14200000000E+01 0.  1.
       1023    2    1    2    0    0  0.00000000000E+00  0.00000000000E+00 -0.91730200148E+02  0.93885677959E+02  0.20002272539E+02 0.  0.
        -13    1    3    3    0    0  0.78980417632E+01  0.61337046291E+01 -0.46338169026E+02  0.47405046961E+02  0.10570000000E+00 0.  1.
         13    1    3    3    0    0 -0.78980417632E+01 -0.61337046291E+01 -0.45392031121E+02  0.46480630998E+02  0.10570000000E+00 0. -1.
<mgrwt>
<rscale>  0 0.20002273E+02</rscale>
<asrwt>0</asrwt>
<pdfrwt beam="2">  1        4 0.14278138E-01 0.20002273E+02</pdfrwt>
<pdfrwt beam="1">  1       -4 0.16580606E-03 0.20002273E+02</pdfrwt>
<totfact> 0.99766595E+05</totfact>
</mgrwt>
</event>
<event>
 5    1  0.4746956E-007  0.2000217E+02  0.7818608E-02  0.1745285E+00
         -4   -1    0    0    0  501 -0.00000000000E+00  0.00000000000E+00  0.37309912491E+02  0.37336925022E+02  0.14200000000E+01 0. -1.
          4   -1    0    0  501    0  0.00000000000E+00 -0.00000000000E+00 -0.24627574532E+01  0.28428109809E+01  0.14200000000E+01 0.  1.
       1023    2    1    2    0    0  0.00000000000E+00  0.00000000000E+00  0.34847155038E+02  0.40179736003E+02  0.20002174158E+02 0.  0.
        -13    1    3    3    0    0  0.47421903868E+00  0.99888610205E+01  0.17240106644E+02  0.19930747045E+02  0.10570000000E+00 0.  1.
         13    1    3    3    0    0 -0.47421903868E+00 -0.99888610205E+01  0.17607048394E+02  0.20248988958E+02  0.10570000000E+00 0. -1.
<mgrwt>
<rscale>  0 0.20002174E+02</rscale>
<asrwt>0</asrwt>
<pdfrwt beam="2">  1        4 0.41019857E-03 0.20002174E+02</pdfrwt>
<pdfrwt beam="1">  1       -4 0.57712988E-02 0.20002174E+02</pdfrwt>
<totfact> 0.11951622E+06</totfact>
</mgrwt>
</event>
<event>
 4    1  0.4710515E-007  0.2001410E+02  0.7818608E-02  0.1745048E+00
          4   -1    0    0  501    0  0.00000000000E+00  0.00000000000E+00  0.29461309820E+02  0.29495511121E+02  0.14200000000E+01 0. -1.
         -4   -1    0    0    0  501 -0.00000000000E+00 -0.00000000000E+00 -0.32129054248E+01  0.35127142310E+01  0.14200000000E+01 0.  1.
        -13    1    1    2    0    0 -0.73910780686E+01 -0.67453069270E+01  0.13038840915E+02  0.16436232703E+02  0.10570000000E+00 0. -1.
         13    1    1    2    0    0  0.73910780686E+01  0.67453069270E+01  0.13209563480E+02  0.16571992649E+02  0.10570000000E+00 0.  1.
<mgrwt>
<rscale>  0 0.20014100E+02</rscale>
<asrwt>0</asrwt>
<pdfrwt beam="1">  1        4 0.45582024E-02 0.20014100E+02</pdfrwt>
<pdfrwt beam="2">  1       -4 0.51998622E-03 0.20014100E+02</pdfrwt>
<totfact> 0.12283703E+06</totfact>
</mgrwt>
</event>
<event>
 4    1  0.4710515E-007  0.2013295E+02  0.7818608E-02  0.1742697E+00
          4   -1    0    0  501    0  0.00000000000E+00  0.00000000000E+00  0.69323084949E+01  0.70762490819E+01  0.14200000000E+01 0. -1.
         -4   -1    0    0    0  501 -0.00000000000E+00 -0.00000000000E+00 -0.14287932853E+02  0.14358322507E+02  0.14200000000E+01 0.  1.
        -13    1    1    2    0    0 -0.26891417947E-01 -0.10065821600E+02 -0.36401371434E+01  0.10704356989E+02  0.10570000000E+00 0.  1.
         13    1    1    2    0    0  0.26891417947E-01  0.10065821600E+02 -0.37154872150E+01  0.10730214600E+02  0.10570000000E+00 0. -1.
<mgrwt>
<rscale>  0 0.20132949E+02</rscale>
<asrwt>0</asrwt>
<pdfrwt beam="1">  1        4 0.10829959E-02 0.20132949E+02</pdfrwt>
<pdfrwt beam="2">  1       -4 0.22146305E-02 0.20132949E+02</pdfrwt>
<totfact> 0.12755478E+06</totfact>
</mgrwt>
</event>
<event>
 4    1  0.4710515E-007  0.2007755E+02  0.7818608E-02  0.1743790E+00
          4   -1    0    0  501    0  0.00000000000E+00  0.00000000000E+00  0.96049301952E+02  0.96059798071E+02  0.14200000000E+01 0.  1.
         -4   -1    0    0    0  501 -0.00000000000E+00 -0.00000000000E+00 -0.55329684287E+00  0.15239873347E+01  0.14200000000E+01 0. -1.
        -13    1    1    2    0    0 -0.87155021037E+01 -0.49764435863E+01  0.48731010893E+02  0.49753869827E+02  0.10570000000E+00 0. -1.
         13    1    1    2    0    0  0.87155021037E+01  0.49764435863E+01  0.46764994216E+02  0.47829915578E+02  0.10570000000E+00 0.  1.
<mgrwt>
<rscale>  0 0.20077554E+02</rscale>
<asrwt>0</asrwt>
<pdfrwt beam="1">  1        4 0.14852293E-01 0.20077554E+02</pdfrwt>
<pdfrwt beam="2">  1       -4 0.16059847E-03 0.20077554E+02</pdfrwt>
<totfact> 0.97946098E+05</totfact>
</mgrwt>
</event>
<event>
 4    1  0.4710515E-007  0.2001285E+02  0.7818608E-02  0.1745073E+00
         -4   -1    0    0    0  501 -0.00000000000E+00  0.00000000000E+00  0.10742907022E+03  0.10743845461E+03  0.14200000000E+01 0. -1.
          4   -1    0    0  501    0  0.00000000000E+00 -0.00000000000E+00 -0.37620033382E+00  0.14689883223E+01  0.14200000000E+01 0. -1.
        -13    1    1    2    0    0  0.89776163117E+01  0.44165744710E+01  0.52890725834E+02  0.53828837777E+02  0.10570000000E+00 0.  1.
         13    1    1    2    0    0 -0.89776163117E+01 -0.44165744710E+01  0.54162144056E+02  0.55078605156E+02  0.10570000000E+00 0. -1.
<mgrwt>
<rscale>  0 0.20012850E+02</rscale>
<asrwt>0</asrwt>
<pdfrwt beam="2">  1        4 0.14265942E-03 0.20012850E+02</pdfrwt>
<pdfrwt beam="1">  1       -4 0.16612336E-01 0.20012850E+02</pdfrwt>
<totfact> 0.95424028E+05</totfact>
</mgrwt>
</event>
<event>
 5    1  0.4710515E-007  0.2000203E+02  0.7818608E-02  0.1745288E+00
         -4   -1    0    0    0  501 -0.00000000000E+00  0.00000000000E+00  0.26307688952E+00  0.14441639276E+01  0.14200000000E+01 0. -1.
          4   -1    0    0  501    0  0.00000000000E+00 -0.00000000000E+00 -0.11598339442E+03  0.11599208672E+03  0.14200000000E+01 0.  1.
       1023    2    1    2    0    0  0.00000000000E+00  0.00000000000E+00 -0.11572031753E+03  0.11743625065E+03  0.20002026806E+02 0.  0.
        -13    1    3    3    0    0 -0.20457594593E+01  0.97887042930E+01 -0.57435434232E+02  0.58299606700E+02  0.10570000000E+00 0. -1.
         13    1    3    3    0    0  0.20457594593E+01 -0.97887042930E+01 -0.58284883299E+02  0.59136643945E+02  0.10570000000E+00 0.  1.
<mgrwt>
<rscale>  0 0.20002027E+02</rscale>
<asrwt>0</asrwt>
<pdfrwt beam="2">  1        4 0.17935108E-01 0.20002027E+02</pdfrwt>
<pdfrwt beam="1">  1       -4 0.13199495E-03 0.20002027E+02</pdfrwt>
<totfact> 0.93289804E+05</totfact>
</mgrwt>
</event>
<event>
 5    1  0.4710515E-007  0.2000218E+02  0.7818608E-02  0.1745285E+00
          4   -1    0    0  501    0  0.00000000000E+00  0.00000000000E+00  0.13122599535E+02  0.13199205225E+02  0.14200000000E+01 0. -1.
         -4   -1    0    0    0  501 -0.00000000000E+00 -0.00000000000E+00 -0.74561121884E+01  0.75901257543E+01  0.14200000000E+01 0.  1.
       1023    2    1    2    0    0  0.00000000000E+00  0.00000000000E+00  0.56664873469E+01  0.20789330979E+02  0.20002179974E+02 0.  0.
        -13    1    3    3    0    0  0.75961551708E+01 -0.65044718566E+01  0.28020470694E+01  0.10386162322E+02  0.10570000000E+00 0. -1.
         13    1    3    3    0    0 -0.75961551708E+01  0.65044718566E+01  0.28644402775E+01  0.10403168657E+02  0.10570000000E+00 0.  1.
<mgrwt>
<rscale>  0 0.20002180E+02</rscale>
<asrwt>0</asrwt>
<pdfrwt beam="1">  1        4 0.20350629E-02 0.20002180E+02</pdfrwt>
<pdfrwt beam="2">  1       -4 0.11632957E-02 0.20002180E+02</pdfrwt>
<totfact> 0.12964325E+06</totfact>
</mgrwt>
</event>
<event>
 5    1  0.5220426E-007  0.2000282E+02  0.7818608E-02  0.1745272E+00
         -4   -1    0    0    0  501 -0.00000000000E+00  0.00000000000E+00  0.11571081478E+02  0.11657886883E+02  0.14200000000E+01 0. -1.
          4   -1    0    0  501    0  0.00000000000E+00 -0.00000000000E+00 -0.84662079072E+01  0.85844671546E+01  0.14200000000E+01 0.  1.
       1023    2    1    2    0    0  0.00000000000E+00  0.00000000000E+00  0.31048735707E+01  0.20242354037E+02  0.20002816229E+02 0.  0.
        -13    1    3    3    0    0  0.27220819933E+01 -0.96226792542E+01  0.14448367811E+01  0.10104672791E+02  0.10570000000E+00 0.  1.
         13    1    3    3    0    0 -0.27220819933E+01  0.96226792542E+01  0.16600367895E+01  0.10137681246E+02  0.10570000000E+00 0. -1.
<mgrwt>
<rscale>  0 0.20002816E+02</rscale>
<asrwt>0</asrwt>
<pdfrwt beam="2">  1        4 0.13182677E-02 0.20002816E+02</pdfrwt>
<pdfrwt beam="1">  1       -4 0.17959406E-02 0.20002816E+02</pdfrwt>
<totfact> 0.12995883E+06</totfact>
</mgrwt>
</event>
<event>
 5    1  0.4710515E-007  0.2000933E+02  0.7818608E-02  0.1745143E+00
          4   -1    0    0  501    0  0.00000000000E+00  0.00000000000E+00  0.41837746053E+01  0.44181862736E+01  0.14200000000E+01 0. -1.
         -4   -1    0    0    0  501 -0.00000000000E+00 -0.00000000000E+00 -0.23015318479E+02  0.23059082477E+02  0.14200000000E+01 0.  1.
       1023    2    1    2    0    0  0.00000000000E+00  0.00000000000E+00 -0.18831543874E+02  0.27477268751E+02  0.20009329158E+02 0.  0.
        -13    1    3    3    0    0 -0.52448043846E+01  0.85185190907E+01 -0.92854943180E+01  0.13649348620E+02  0.10570000000E+00 0. -1.
         13    1    3    3    0    0  0.52448043846E+01 -0.85185190907E+01 -0.95460495558E+01  0.13827920131E+02  0.10570000000E+00 0.  1.
<mgrwt>
<rscale>  0 0.20009329E+02</rscale>
<asrwt>0</asrwt>
<pdfrwt beam="1">  1        4 0.66505577E-03 0.20009329E+02</pdfrwt>
<pdfrwt beam="2">  1       -4 0.35622163E-02 0.20009329E+02</pdfrwt>
<totfact> 0.12577723E+06</totfact>
</mgrwt>
</event>
<event>
 4    1  0.4710515E-007  0.2011188E+02  0.7818608E-02  0.1743112E+00
          4   -1    0    0  501    0  0.00000000000E+00  0.00000000000E+00  0.77022064441E+02  0.77035153084E+02  0.14200000000E+01 0. -1.
         -4   -1    0    0    0  501 -0.00000000000E+00 -0.00000000000E+00 -0.91179278342E+00  0.16875325419E+01  0.14200000000E+01 0.  1.
        -13    1    1    2    0    0 -0.33556600400E+01 -0.94441269071E+01  0.41232149924E+02  0.42432927629E+02  0.10570000000E+00 0. -1.
         13    1    1    2    0    0  0.33556600400E+01  0.94441269071E+01  0.34878121733E+02  0.36289757997E+02  0.10570000000E+00 0.  1.
<mgrwt>
<rscale>  0 0.20111882E+02</rscale>
<asrwt>0</asrwt>
<pdfrwt beam="1">  1        4 0.11910231E-01 0.20111882E+02</pdfrwt>
<pdfrwt beam="2">  1       -4 0.20095486E-03 0.20111882E+02</pdfrwt>
<totfact> 0.10336885E+06</totfact>
</mgrwt>
</event>
<event>
 5    1  0.4710515E-007  0.2000379E+02  0.7818608E-02  0.1745253E+00
         -4   -1    0    0    0  501 -0.00000000000E+00  0.00000000000E+00  0.69152111672E+02  0.69166689589E+02  0.14200000000E+01 0. -1.
          4   -1    0    0  501    0  0.00000000000E+00 -0.00000000000E+00 -0.10798098275E+01  0.17839252405E+01  0.14200000000E+01 0.  1.
       1023    2    1    2    0    0  0.00000000000E+00  0.00000000000E+00  0.68072301844E+02  0.70950614829E+02  0.20003786299E+02 0.  0.
        -13    1    3    3    0    0  0.96092930671E+01 -0.27679466757E+01  0.33457110201E+02  0.34919757123E+02  0.10570000000E+00 0.  1.
         13    1    3    3    0    0 -0.96092930671E+01  0.27679466757E+01  0.34615191643E+02  0.36030857706E+02  0.10570000000E+00 0. -1.
<mgrwt>
<rscale>  0 0.20003786E+02</rscale>
<asrwt>0</asrwt>
<pdfrwt beam="2">  1        4 0.22140877E-03 0.20003786E+02</pdfrwt>
<pdfrwt beam="1">  1       -4 0.10694067E-01 0.20003786E+02</pdfrwt>
<totfact> 0.10713299E+06</totfact>
</mgrwt>
</event>
<event>
 5    1  0.4777859E-007  0.2000187E+02  0.7818608E-02  0.1745291E+00
          4   -1    0    0  501    0  0.00000000000E+00  0.00000000000E+00  0.51316816195E+02  0.51336459017E+02  0.14200000000E+01 0. -1.
         -4   -1    0    0    0  501 -0.00000000000E+00 -0.00000000000E+00 -0.16676479903E+01  0.21903081563E+01  0.14200000000E+01 0.  1.
       1023    2    1    2    0    0  0.00000000000E+00  0.00000000000E+00  0.49649168205E+02  0.53526767173E+02  0.20001872427E+02 0.  0.
        -13    1    3    3    0    0  0.98617929205E+01 -0.16584353335E+01  0.24949683620E+02  0.26879420615E+02  0.10570000000E+00 0.  1.
         13    1    3    3    0    0 -0.98617929205E+01  0.16584353335E+01  0.24699484585E+02  0.26647346558E+02  0.10570000000E+00 0. -1.
<mgrwt>
<rscale>  0 0.20001872E+02</rscale>
<asrwt>0</asrwt>
<pdfrwt beam="1">  1        4 0.79366103E-02 0.20001872E+02</pdfrwt>
<pdfrwt beam="2">  1       -4 0.29827685E-03 0.20001872E+02</pdfrwt>
<totfact> 0.11372250E+06</totfact>
</mgrwt>
</event>
<event>
 4    1  0.4710515E-007  0.2002215E+02  0.7818608E-02  0.1744888E+00
         -4   -1    0    0    0  501 -0.00000000000E+00  0.00000000000E+00  0.10951507280E+02  0.11043183948E+02  0.14200000000E+01 0.  1.
          4   -1    0    0  501    0  0.00000000000E+00 -0.00000000000E+00 -0.89654631890E+01  0.90772204002E+01  0.14200000000E+01 0. -1.
        -13    1    1    2    0    0  0.28165149027E+01  0.96054959322E+01  0.88250867871E+00  0.10049293625E+02  0.10570000000E+00 0.  1.
         13    1    1    2    0    0 -0.28165149027E+01 -0.96054959322E+01  0.11035354124E+01  0.10071110723E+02  0.10570000000E+00 0. -1.
<mgrwt>
<rscale>  0 0.20022145E+02</rscale>
<asrwt>0</asrwt>
<pdfrwt beam="2">  1        4 0.13949508E-02 0.20022145E+02</pdfrwt>
<pdfrwt beam="1">  1       -4 0.17004960E-02 0.20022145E+02</pdfrwt>
<totfact> 0.12977540E+06</totfact>
</mgrwt>
</event>
<event>
 4    1  0.4710515E-007  0.2001488E+02  0.7818608E-02  0.1745032E+00
          4   -1    0    0  501    0  0.00000000000E+00  0.00000000000E+00  0.32588166920E+02  0.32619089859E+02  0.14200000000E+01 0.  1.
         -4   -1    0    0    0  501 -0.00000000000E+00 -0.00000000000E+00 -0.28749239106E+01  0.32064914614E+01  0.14200000000E+01 0. -1.
        -13    1    1    2    0    0 -0.64344317361E+01  0.76638396381E+01  0.14922252776E+02  0.17967224331E+02  0.10570000000E+00 0.  1.
         13    1    1    2    0    0  0.64344317361E+01 -0.76638396381E+01  0.14790990233E+02  0.17858356989E+02  0.10570000000E+00 0. -1.
<mgrwt>
<rscale>  0 0.20014881E+02</rscale>
<asrwt>0</asrwt>
<pdfrwt beam="1">  1        4 0.50414482E-02 0.20014881E+02</pdfrwt>
<pdfrwt beam="2">  1       -4 0.47017986E-03 0.20014881E+02</pdfrwt>
<totfact> 0.12143187E+06</totfact>
</mgrwt>
</event>
<event>
 5    1  0.4710515E-007  0.2000768E+02  0.7818608E-02  0.1745175E+00
          4   -1    0    0  501    0  0.00000000000E+00  0.00000000000E+00  0.56430230960E+02  0.56448094443E+02  0.14200000000E+01 0. -1.
         -4   -1    0    0    0  501 -0.00000000000E+00 -0.00000000000E+00 -0.14680795647E+01  0.20424636125E+01  0.14200000000E+01 0.  1.
       1023    2    1    2    0    0  0.00000000000E+00  0.00000000000E+00  0.54962151396E+02  0.58490558056E+02  0.20007680915E+02 0.  0.
        -13    1    3    3    0    0  0.39174976099E+01 -0.92042395676E+01  0.27396454960E+02  0.29165762984E+02  0.10570000000E+00 0.  1.
         13    1    3    3    0    0 -0.39174976099E+01  0.92042395676E+01  0.27565696435E+02  0.29324795072E+02  0.10570000000E+00 0. -1.
<mgrwt>
<rscale>  0 0.20007681E+02</rscale>
<asrwt>0</asrwt>
<pdfrwt beam="1">  1        4 0.87271297E-02 0.20007681E+02</pdfrwt>
<pdfrwt beam="2">  1       -4 0.27141595E-03 0.20007681E+02</pdfrwt>
<totfact> 0.11168500E+06</totfact>
</mgrwt>
</event>
<event>
 5    1  0.4710515E-007  0.2000381E+02  0.7818608E-02  0.1745252E+00
         -4   -1    0    0    0  501 -0.00000000000E+00  0.00000000000E+00  0.91890386037E+02  0.91901357150E+02  0.14200000000E+01 0. -1.
          4   -1    0    0  501    0  0.00000000000E+00 -0.00000000000E+00 -0.60980693183E+00  0.15454010787E+01  0.14200000000E+01 0.  1.
       1023    2    1    2    0    0  0.00000000000E+00  0.00000000000E+00  0.91280579106E+02  0.93446758229E+02  0.20003812179E+02 0.  0.
        -13    1    3    3    0    0 -0.79152267515E+01 -0.61116986824E+01  0.44927566520E+02  0.46027177637E+02  0.10570000000E+00 0. -1.
         13    1    3    3    0    0  0.79152267515E+01  0.61116986824E+01  0.46353012585E+02  0.47419580592E+02  0.10570000000E+00 0.  1.
<mgrwt>
<rscale>  0 0.20003812E+02</rscale>
<asrwt>0</asrwt>
<pdfrwt beam="2">  1        4 0.16662915E-03 0.20003812E+02</pdfrwt>
<pdfrwt beam="1">  1       -4 0.14209796E-01 0.20003812E+02</pdfrwt>
<totfact> 0.99881561E+05</totfact>
</mgrwt>
</event>
<event>
 5    1  0.4710515E-007  0.2000541E+02  0.7818608E-02  0.1745221E+00
          4   -1    0    0  501    0  0.00000000000E+00  0.00000000000E+00  0.37584236422E+02  0.37611051932E+02  0.14200000000E+01 0.  1.
         -4   -1    0    0    0  501 -0.00000000000E+00 -0.00000000000E+00 -0.24429354281E+01  0.28256562965E+01  0.14200000000E+01 0.  1.
       1023    2    1    2    0    0  0.00000000000E+00  0.00000000000E+00  0.35141300994E+02  0.40436708229E+02  0.20005407689E+02 0.  0.
        -13    1    3    3    0    0  0.21770853681E+01  0.97621710222E+01  0.17685490063E+02  0.20318154814E+02  0.10570000000E+00 0. -1.
         13    1    3    3    0    0 -0.21770853681E+01 -0.97621710222E+01  0.17455810931E+02  0.20118553415E+02  0.10570000000E+00 0.  1.
<mgrwt>
<rscale>  0 0.20005408E+02</rscale>
<asrwt>0</asrwt>
<pdfrwt beam="1">  1        4 0.58136922E-02 0.20005408E+02</pdfrwt>
<pdfrwt beam="2">  1       -4 0.40733907E-03 0.20005408E+02</pdfrwt>
<totfact> 0.11935799E+06</totfact>
</mgrwt>
</event>
<event>
 4    1  0.4710515E-007  0.2025482E+02  0.7818608E-02  0.1740308E+00
          4   -1    0    0  501    0  0.00000000000E+00  0.00000000000E+00  0.12257023021E+02  0.12339003742E+02  0.14200000000E+01 0.  1.
         -4   -1    0    0    0  501 -0.00000000000E+00 -0.00000000000E+00 -0.81966858095E+01  0.83187774498E+01  0.14200000000E+01 0. -1.
        -13    1    1    2    0    0  0.86554784834E+01 -0.52473294128E+01  0.17053194922E+01  0.10265040711E+02  0.10570000000E+00 0.  1.
         13    1    1    2    0    0 -0.86554784834E+01  0.52473294128E+01  0.23550177194E+01  0.10392740480E+02  0.10570000000E+00 0. -1.
<mgrwt>
<rscale>  0 0.20254816E+02</rscale>
<asrwt>0</asrwt>
<pdfrwt beam="1">  1        4 0.19013937E-02 0.20254816E+02</pdfrwt>
<pdfrwt beam="2">  1       -4 0.12767265E-02 0.20254816E+02</pdfrwt>
<totfact> 0.12643361E+06</totfact>
</mgrwt>
</event>
<event>
 4    1  0.4710515E-007  0.2002372E+02  0.7818608E-02  0.1744857E+00
          4   -1    0    0  501    0  0.00000000000E+00  0.00000000000E+00  0.88823510969E+00  0.16749213743E+01  0.14200000000E+01 0.  1.
         -4   -1    0    0    0  501 -0.00000000000E+00 -0.00000000000E+00 -0.77418763594E+02  0.77431785182E+02  0.14200000000E+01 0. -1.
        -13    1    1    2    0    0 -0.78762088006E+01 -0.61686912793E+01 -0.36793847911E+02  0.38129854887E+02  0.10570000000E+00 0. -1.
         13    1    1    2    0    0  0.78762088006E+01  0.61686912793E+01 -0.39736680574E+02  0.40976851669E+02  0.10570000000E+00 0.  1.
<mgrwt>
<rscale>  0 0.20023717E+02</rscale>
<asrwt>0</asrwt>
<pdfrwt beam="1">  1        4 0.19816760E-03 0.20023717E+02</pdfrwt>
<pdfrwt beam="2">  1       -4 0.11972091E-01 0.20023717E+02</pdfrwt>
<totfact> 0.10415704E+06</totfact>
</mgrwt>
</event>
<event>
 5    1  0.4710515E-007  0.2000165E+02  0.7818608E-02  0.1745295E+00
         -4   -1    0    0    0  501 -0.00000000000E+00  0.00000000000E+00  0.80962040493E+01  0.82197883189E+01  0.14200000000E+01 0. -1.
          4   -1    0    0  501    0  0.00000000000E+00 -0.00000000000E+00 -0.12094496778E+02  0.12177571692E+02  0.14200000000E+01 0.  1.
       1023    2    1    2    0    0  0.00000000000E+00  0.00000000000E+00 -0.39982927290E+01  0.20397360011E+02  0.20001648699E+02 0.  0.
        -13    1    3    3    0    0  0.78535738108E+01 -0.61905384008E+01 -0.20630591241E+01  0.10211208192E+02  0.10570000000E+00 0. -1.
         13    1    3    3    0    0 -0.78535738108E+01  0.61905384008E+01 -0.19352336049E+01  0.10186151819E+02  0.10570000000E+00 0.  1.
<mgrwt>
<rscale>  0 0.20001649E+02</rscale>
<asrwt>0</asrwt>
<pdfrwt beam="2">  1        4 0.18765887E-02 0.20001649E+02</pdfrwt>
<pdfrwt beam="1">  1       -4 0.12614667E-02 0.20001649E+02</pdfrwt>
<totfact> 0.12988220E+06</totfact>
</mgrwt>
</event>
<event>
 4    1  0.4710515E-007  0.2014974E+02  0.7818608E-02  0.1742367E+00
          4   -1    0    0  501    0  0.00000000000E+00  0.00000000000E+00  0.24849612357E+02  0.24890151351E+02  0.14200000000E+01 0.  1.
         -4   -1    0    0    0  501 -0.00000000000E+00 -0.00000000000E+00 -0.39159662623E+01  0.41654761754E+01  0.14200000000E+01 0. -1.
        -13    1    1    2    0    0 -0.41303122003E+01  0.91799171580E+01  0.98874074741E+01  0.14110363459E+02  0.10570000000E+00 0.  1.
         13    1    1    2    0    0  0.41303122003E+01 -0.91799171580E+01  0.11046238621E+02  0.14945264068E+02  0.10570000000E+00 0. -1.
<mgrwt>
<rscale>  0 0.20149738E+02</rscale>
<asrwt>0</asrwt>
<pdfrwt beam="1">  1        4 0.38453288E-02 0.20149738E+02</pdfrwt>
<pdfrwt beam="2">  1       -4 0.62476779E-03 0.20149738E+02</pdfrwt>
<totfact> 0.12316994E+06</totfact>
</mgrwt>
</event>
<event>
 5    1  0.4710515E-007  0.2000518E+02  0.7818608E-02  0.1745225E+00
         -4   -1    0    0    0  501 -0.00000000000E+00  0.00000000000E+00  0.39298962486E+02  0.39324608739E+02  0.14200000000E+01 0.  1.
          4   -1    0    0  501    0  0.00000000000E+00 -0.00000000000E+00 -0.23192829919E+01  0.27194620049E+01  0.14200000000E+01 0. -1.
       1023    2    1    2    0    0  0.00000000000E+00  0.00000000000E+00  0.36979679494E+02  0.42044070744E+02  0.20005179060E+02 0.  0.
        -13    1    3    3    0    0 -0.16581775983E+01  0.98634061378E+01  0.18352165325E+02  0.20900944433E+02  0.10570000000E+00 0. -1.
         13    1    3    3    0    0  0.16581775983E+01 -0.98634061378E+01  0.18627514169E+02  0.21143126311E+02  0.10570000000E+00 0.  1.
<mgrwt>
<rscale>  0 0.20005179E+02</rscale>
<asrwt>0</asrwt>
<pdfrwt beam="2">  1        4 0.38956857E-03 0.20005179E+02</pdfrwt>
<pdfrwt beam="1">  1       -4 0.60787499E-02 0.20005179E+02</pdfrwt>
<totfact> 0.11862303E+06</totfact>
</mgrwt>
</event>
<event>
 4    1  0.4710515E-007  0.2012636E+02  0.7818608E-02  0.1742827E+00
          4   -1    0    0  501    0  0.00000000000E+00  0.00000000000E+00  0.32086318907E+02  0.32117725029E+02  0.14200000000E+01 0. -1.
         -4   -1    0    0    0  501 -0.00000000000E+00 -0.00000000000E+00 -0.29616592069E+01  0.32844824947E+01  0.14200000000E+01 0.  1.
        -13    1    1    2    0    0  0.87814134486E+01  0.48675845941E+01  0.13382556561E+02  0.16730528818E+02  0.10570000000E+00 0. -1.
         13    1    1    2    0    0 -0.87814134486E+01 -0.48675845941E+01  0.15742103140E+02  0.18671678706E+02  0.10570000000E+00 0.  1.
<mgrwt>
<rscale>  0 0.20126363E+02</rscale>
<asrwt>0</asrwt>
<pdfrwt beam="1">  1        4 0.49636053E-02 0.20126363E+02</pdfrwt>
<pdfrwt beam="2">  1       -4 0.48288828E-03 0.20126363E+02</pdfrwt>
<totfact> 0.12027513E+06</totfact>
</mgrwt>
</event>
<event>
 5    1  0.4832255E-007  0.2000311E+02  0.7818608E-02  0.1745266E+00
         -4   -1    0    0    0  501 -0.00000000000E+00  0.00000000000E+00  0.15440075262E+02  0.15505235377E+02  0.14200000000E+01 0. -1.
          4   -1    0    0  501    0  0.00000000000E+00 -0.00000000000E+00 -0.63209291129E+01  0.64784677857E+01  0.14200000000E+01 0.  1.
       1023    2    1    2    0    0  0.00000000000E+00  0.00000000000E+00  0.91191461486E+01  0.21983703162E+02  0.20003109214E+02 0.  0.
        -13    1    3    3    0    0  0.13142206027E+01 -0.99141601051E+01  0.46108358168E+01  0.11013116080E+02  0.10570000000E+00 0. -1.
         13    1    3    3    0    0 -0.13142206027E+01  0.99141601051E+01  0.45083103318E+01  0.10970587082E+02  0.10570000000E+00 0.  1.
<mgrwt>
<rscale>  0 0.20003109E+02</rscale>
<asrwt>0</asrwt>
<pdfrwt beam="2">  1        4 0.98958131E-03 0.20003109E+02</pdfrwt>
<pdfrwt beam="1">  1       -4 0.23925269E-02 0.20003109E+02</pdfrwt>
<totfact> 0.12893082E+06</totfact>
</mgrwt>
</event>
<event>
 4    1  0.4710515E-007  0.2008831E+02  0.7818608E-02  0.1743578E+00
          4   -1    0    0  501    0  0.00000000000E+00  0.00000000000E+00  0.10434281986E+02  0.10530462505E+02  0.14200000000E+01 0. -1.
         -4   -1    0    0    0  501 -0.00000000000E+00 -0.00000000000E+00 -0.94749223318E+01  0.95807386559E+01  0.14200000000E+01 0.  1.
        -13    1    1    2    0    0  0.49041988047E+01 -0.87335727943E+01  0.12203731269E+01  0.10090933690E+02  0.10570000000E+00 0.  1.
         13    1    1    2    0    0 -0.49041988047E+01  0.87335727943E+01 -0.26101347261E+00  0.10020267471E+02  0.10570000000E+00 0. -1.
<mgrwt>
<rscale>  0 0.20088306E+02</rscale>
<asrwt>0</asrwt>
<pdfrwt beam="1">  1        4 0.16208124E-02 0.20088306E+02</pdfrwt>
<pdfrwt beam="2">  1       -4 0.14732186E-02 0.20088306E+02</pdfrwt>
<totfact> 0.12890891E+06</totfact>
</mgrwt>
</event>
<event>
 4    1  0.4710515E-007  0.2002434E+02  0.7818608E-02  0.1744844E+00
         -4   -1    0    0    0  501 -0.00000000000E+00  0.00000000000E+00  0.26633914765E+01  0.30182866261E+01  0.14200000000E+01 0. -1.
          4   -1    0    0  501    0  0.00000000000E+00 -0.00000000000E+00 -0.34916370903E+02  0.34945233681E+02  0.14200000000E+01 0.  1.
        -13    1    1    2    0    0 -0.87315003666E+01 -0.48979452272E+01 -0.16015788706E+02  0.18887710991E+02  0.10570000000E+00 0.  1.
         13    1    1    2    0    0  0.87315003666E+01  0.48979452272E+01 -0.16237190720E+02  0.19075809316E+02  0.10570000000E+00 0. -1.
<mgrwt>
<rscale>  0 0.20024340E+02</rscale>
<asrwt>0</asrwt>
<pdfrwt beam="2">  1        4 0.54012689E-02 0.20024340E+02</pdfrwt>
<pdfrwt beam="1">  1       -4 0.43927240E-03 0.20024340E+02</pdfrwt>
<totfact> 0.12028796E+06</totfact>
</mgrwt>
</event>
<event>
 5    1  0.4710515E-007  0.2000294E+02  0.7818608E-02  0.1745270E+00
          4   -1    0    0  501    0  0.00000000000E+00  0.00000000000E+00  0.52849588842E+01  0.54724026174E+01  0.14200000000E+01 0. -1.
         -4   -1    0    0    0  501 -0.00000000000E+00 -0.00000000000E+00 -0.18382084312E+02  0.18436849613E+02  0.14200000000E+01 0.  1.
       1023    2    1    2    0    0  0.00000000000E+00  0.00000000000E+00 -0.13097125428E+02  0.23909252231E+02  0.20002940978E+02 0.  0.
        -13    1    3    3    0    0 -0.56108445770E+01  0.82784574703E+01 -0.64748367230E+01  0.11914240137E+02  0.10570000000E+00 0.  1.
         13    1    3    3    0    0  0.56108445770E+01 -0.82784574703E+01 -0.66222887053E+01  0.11995012094E+02  0.10570000000E+00 0. -1.
<mgrwt>
<rscale>  0 0.20002941E+02</rscale>
<asrwt>0</asrwt>
<pdfrwt beam="1">  1        4 0.83170207E-03 0.20002941E+02</pdfrwt>
<pdfrwt beam="2">  1       -4 0.28466444E-02 0.20002941E+02</pdfrwt>
<totfact> 0.12783052E+06</totfact>
</mgrwt>
</event>
<event>
 5    1  0.4710515E-007  0.2000283E+02  0.7818608E-02  0.1745272E+00
         -4   -1    0    0    0  501 -0.00000000000E+00  0.00000000000E+00  0.53602044671E+01  0.55451052225E+01  0.14200000000E+01 0. -1.
          4   -1    0    0  501    0  0.00000000000E+00 -0.00000000000E+00 -0.18131751207E+02  0.18187270324E+02  0.14200000000E+01 0.  1.
       1023    2    1    2    0    0  0.00000000000E+00  0.00000000000E+00 -0.12771546740E+02  0.23732375547E+02  0.20002830873E+02 0.  0.
        -13    1    3    3    0    0 -0.15057854689E+01  0.98865416619E+01 -0.62935476278E+01  0.11816556611E+02  0.10570000000E+00 0.  1.
         13    1    3    3    0    0  0.15057854689E+01 -0.98865416619E+01 -0.64779991122E+01  0.11915818935E+02  0.10570000000E+00 0. -1.
<mgrwt>
<rscale>  0 0.20002831E+02</rscale>
<asrwt>0</asrwt>
<pdfrwt beam="2">  1        4 0.28079940E-02 0.20002831E+02</pdfrwt>
<pdfrwt beam="1">  1       -4 0.84314069E-03 0.20002831E+02</pdfrwt>
<totfact> 0.12793195E+06</totfact>
</mgrwt>
</event>
<event>
 4    1  0.4710515E-007  0.2002316E+02  0.7818608E-02  0.1744868E+00
         -4   -1    0    0    0  501 -0.00000000000E+00  0.00000000000E+00  0.73238716184E+01  0.74602610868E+01  0.14200000000E+01 0.  1.
          4   -1    0    0  501    0  0.00000000000E+00 -0.00000000000E+00 -0.13385080573E+02  0.13460192493E+02  0.14200000000E+01 0. -1.
        -13    1    1    2    0    0 -0.97606332229E+01 -0.21774676861E+01 -0.35085786013E+01  0.10598708541E+02  0.10570000000E+00 0. -1.
         13    1    1    2    0    0  0.97606332229E+01  0.21774676861E+01 -0.25526303530E+01  0.10321745039E+02  0.10570000000E+00 0.  1.
<mgrwt>
<rscale>  0 0.20023165E+02</rscale>
<asrwt>0</asrwt>
<pdfrwt beam="2">  1        4 0.20755125E-02 0.20023165E+02</pdfrwt>
<pdfrwt beam="1">  1       -4 0.11430188E-02 0.20023165E+02</pdfrwt>
<totfact> 0.12928873E+06</totfact>
</mgrwt>
</event>
<event>
 4    1  0.4710515E-007  0.2003053E+02  0.7818608E-02  0.1744722E+00
         -4   -1    0    0    0  501 -0.00000000000E+00  0.00000000000E+00  0.75783149694E+02  0.75796452276E+02  0.14200000000E+01 0.  1.
          4   -1    0    0  501    0  0.00000000000E+00 -0.00000000000E+00 -0.92536387271E+00  0.16949036247E+01  0.14200000000E+01 0. -1.
        -13    1    1    2    0    0  0.85351866741E+01  0.52378216969E+01  0.37819131714E+02  0.39122654355E+02  0.10570000000E+00 0. -1.
         13    1    1    2    0    0 -0.85351866741E+01 -0.52378216969E+01  0.37038654108E+02  0.38368701546E+02  0.10570000000E+00 0.  1.
<mgrwt>
<rscale>  0 0.20030530E+02</rscale>
<asrwt>0</asrwt>
<pdfrwt beam="2">  1        4 0.20258227E-03 0.20030530E+02</pdfrwt>
<pdfrwt beam="1">  1       -4 0.11719167E-01 0.20030530E+02</pdfrwt>
<totfact> 0.10461910E+06</totfact>
</mgrwt>
</event>
<event>
 5    1  0.4710515E-007  0.2000402E+02  0.7818608E-02  0.1745248E+00
         -4   -1    0    0    0  501 -0.00000000000E+00  0.00000000000E+00  0.13428837301E+02  0.13503705834E+02  0.14200000000E+01 0.  1.
          4   -1    0    0  501    0  0.00000000000E+00 -0.00000000000E+00 -0.72853400547E+01  0.74224375856E+01  0.14200000000E+01 0. -1.
       1023    2    1    2    0    0  0.00000000000E+00  0.00000000000E+00  0.61434972466E+01  0.20926143420E+02  0.20004022596E+02 0.  0.
        -13    1    3    3    0    0 -0.24948057051E+01 -0.96848899342E+01  0.29787167297E+01  0.10435759406E+02  0.10570000000E+00 0. -1.
         13    1    3    3    0    0  0.24948057051E+01  0.96848899342E+01  0.31647805169E+01  0.10490384014E+02  0.10570000000E+00 0.  1.
<mgrwt>
<rscale>  0 0.20004023E+02</rscale>
<asrwt>0</asrwt>
<pdfrwt beam="2">  1        4 0.11371266E-02 0.20004023E+02</pdfrwt>
<pdfrwt beam="1">  1       -4 0.20822801E-02 0.20004023E+02</pdfrwt>
<totfact> 0.12953796E+06</totfact>
</mgrwt>
</event>
<event>
 5    1  0.4710515E-007  0.2000377E+02  0.7818608E-02  0.1745253E+00
          4   -1    0    0  501    0  0.00000000000E+00  0.00000000000E+00  0.17200665655E+02  0.17259180137E+02  0.14200000000E+01 0. -1.
         -4   -1    0    0    0  501 -0.00000000000E+00 -0.00000000000E+00 -0.56596723040E+01  0.58350913094E+01  0.14200000000E+01 0.  1.
       1023    2    1    2    0    0  0.00000000000E+00  0.00000000000E+00  0.11540993351E+02  0.23094271446E+02  0.20003770797E+02 0.  0.
        -13    1    3    3    0    0  0.11971149861E+01  0.99293013958E+01  0.58273903988E+01  0.11575567453E+02  0.10570000000E+00 0.  1.
         13    1    3    3    0    0 -0.11971149861E+01 -0.99293013958E+01  0.57136029527E+01  0.11518703993E+02  0.10570000000E+00 0. -1.
<mgrwt>
<rscale>  0 0.20003771E+02</rscale>
<asrwt>0</asrwt>
<pdfrwt beam="1">  1        4 0.26642511E-02 0.20003771E+02</pdfrwt>
<pdfrwt beam="2">  1       -4 0.88871371E-03 0.20003771E+02</pdfrwt>
<totfact> 0.12828255E+06</totfact>
</mgrwt>
</event>
<event>
 5    1  0.4710515E-007  0.2000177E+02  0.7818608E-02  0.1745293E+00
          4   -1    0    0  501    0  0.00000000000E+00  0.00000000000E+00  0.56277697268E+02  0.56295609152E+02  0.14200000000E+01 0. -1.
         -4   -1    0    0    0  501 -0.00000000000E+00 -0.00000000000E+00 -0.14723901353E+01  0.20455641546E+01  0.14200000000E+01 0.  1.
       1023    2    1    2    0    0  0.00000000000E+00  0.00000000000E+00  0.54805307132E+02  0.58341173306E+02  0.20001770244E+02 0.  0.
        -13    1    3    3    0    0 -0.91859496191E+01  0.39520429654E+01  0.27172674919E+02  0.28954546253E+02  0.10570000000E+00 0. -1.
         13    1    3    3    0    0  0.91859496191E+01 -0.39520429654E+01  0.27632632214E+02  0.29386627053E+02  0.10570000000E+00 0.  1.
<mgrwt>
<rscale>  0 0.20001770E+02</rscale>
<asrwt>0</asrwt>
<pdfrwt beam="1">  1        4 0.87035757E-02 0.20001770E+02</pdfrwt>
<pdfrwt beam="2">  1       -4 0.27198970E-03 0.20001770E+02</pdfrwt>
<totfact> 0.11180951E+06</totfact>
</mgrwt>
</event>
<event>
 4    1  0.4710515E-007  0.2001793E+02  0.7818608E-02  0.1744972E+00
         -4   -1    0    0    0  501 -0.00000000000E+00  0.00000000000E+00  0.56389890557E+01  0.58150320352E+01  0.14200000000E+01 0.  1.
          4   -1    0    0  501    0  0.00000000000E+00 -0.00000000000E+00 -0.17286840873E+02  0.17345064640E+02  0.14200000000E+01 0. -1.
        -13    1    1    2    0    0  0.10007217846E+02 -0.13749321113E+00 -0.57427678675E+01  0.11539231719E+02  0.10570000000E+00 0.  1.
         13    1    1    2    0    0 -0.10007217846E+02  0.13749321113E+00 -0.59050839497E+01  0.11620864956E+02  0.10570000000E+00 0. -1.
<mgrwt>
<rscale>  0 0.20017933E+02</rscale>
<asrwt>0</asrwt>
<pdfrwt beam="2">  1        4 0.26775345E-02 0.20017933E+02</pdfrwt>
<pdfrwt beam="1">  1       -4 0.88555730E-03 0.20017933E+02</pdfrwt>
<totfact> 0.12806008E+06</totfact>
</mgrwt>
</event>
<event>
 5    1  0.4710515E-007  0.2000558E+02  0.7818608E-02  0.1745217E+00
         -4   -1    0    0    0  501 -0.00000000000E+00  0.00000000000E+00  0.10435951285E+03  0.10436917324E+03  0.14200000000E+01 0. -1.
          4   -1    0    0  501    0  0.00000000000E+00 -0.00000000000E+00 -0.41785793913E+00  0.14802044647E+01  0.14200000000E+01 0.  1.
       1023    2    1    2    0    0  0.00000000000E+00  0.00000000000E+00  0.10394165491E+03  0.10584937770E+03  0.20005577581E+02 0.  0.
        -13    1    3    3    0    0  0.22171075048E+00  0.99976551528E+01  0.53059627051E+02  0.53993865017E+02  0.10570000000E+00 0.  1.
         13    1    3    3    0    0 -0.22171075048E+00 -0.99976551528E+01  0.50882027860E+02  0.51855512685E+02  0.10570000000E+00 0. -1.
<mgrwt>
<rscale>  0 0.20005578E+02</rscale>
<asrwt>0</asrwt>
<pdfrwt beam="2">  1        4 0.14674791E-03 0.20005578E+02</pdfrwt>
<pdfrwt beam="1">  1       -4 0.16137772E-01 0.20005578E+02</pdfrwt>
<totfact> 0.96324079E+05</totfact>
</mgrwt>
</event>
<event>
 4    1  0.4710515E-007  0.2011833E+02  0.7818608E-02  0.1742985E+00
          4   -1    0    0  501    0  0.00000000000E+00  0.00000000000E+00  0.32669342749E+01  0.35621986970E+01  0.14200000000E+01 0. -1.
         -4   -1    0    0    0  501 -0.00000000000E+00 -0.00000000000E+00 -0.29320672983E+02  0.29355038140E+02  0.14200000000E+01 0.  1.
        -13    1    1    2    0    0  0.66907243336E+01 -0.74810344153E+01 -0.14117055635E+02  0.17321492439E+02  0.10570000000E+00 0. -1.
         13    1    1    2    0    0 -0.66907243336E+01  0.74810344153E+01 -0.11936683074E+02  0.15595744398E+02  0.10570000000E+00 0.  1.
<mgrwt>
<rscale>  0 0.20118329E+02</rscale>
<asrwt>0</asrwt>
<pdfrwt beam="1">  1        4 0.52796141E-03 0.20118329E+02</pdfrwt>
<pdfrwt beam="2">  1       -4 0.45362287E-02 0.20118329E+02</pdfrwt>
<totfact> 0.12159317E+06</totfact>
</mgrwt>
</event>
<event>
 5    1  0.4710515E-007  0.2001200E+02  0.7818608E-02  0.1745090E+00
          4   -1    0    0  501    0  0.00000000000E+00  0.00000000000E+00  0.12699518672E+01  0.19050400902E+01  0.14200000000E+01 0.  1.
         -4   -1    0    0    0  501 -0.00000000000E+00 -0.00000000000E+00 -0.62423100761E+02  0.62439249744E+02  0.14200000000E+01 0. -1.
       1023    2    1    2    0    0  0.00000000000E+00  0.00000000000E+00 -0.61153148894E+02  0.64344289835E+02  0.20011996769E+02 0.  0.
        -13    1    3    3    0    0 -0.90667879032E+01  0.42310723851E+01 -0.30529454772E+02  0.32127362132E+02  0.10570000000E+00 0.  1.
         13    1    3    3    0    0  0.90667879032E+01 -0.42310723851E+01 -0.30623694122E+02  0.32216927702E+02  0.10570000000E+00 0. -1.
<mgrwt>
<rscale>  0 0.20011997E+02</rscale>
<asrwt>0</asrwt>
<pdfrwt beam="1">  1        4 0.24547243E-03 0.20011997E+02</pdfrwt>
<pdfrwt beam="2">  1       -4 0.96536472E-02 0.20011997E+02</pdfrwt>
<totfact> 0.10941958E+06</totfact>
</mgrwt>
</event>
<event>
 5    1  0.4710515E-007  0.2000175E+02  0.7818608E-02  0.1745293E+00
         -4   -1    0    0    0  501 -0.00000000000E+00  0.00000000000E+00  0.11280160313E+01  0.18135104540E+01  0.14200000000E+01 0.  1.
          4   -1    0    0  501    0  0.00000000000E+00 -0.00000000000E+00 -0.67309099990E+02  0.67324076982E+02  0.14200000000E+01 0. -1.
       1023    2    1    2    0    0  0.00000000000E+00  0.00000000000E+00 -0.66181083958E+02  0.69137587436E+02  0.20001752986E+02 0.  0.
        -13    1    3    3    0    0 -0.96921973844E+01 -0.24620012407E+01 -0.33363105490E+02  0.34829701702E+02  0.10570000000E+00 0. -1.
         13    1    3    3    0    0  0.96921973844E+01  0.24620012407E+01 -0.32817978469E+02  0.34307885733E+02  0.10570000000E+00 0.  1.
<mgrwt>
<rscale>  0 0.20001753E+02</rscale>
<asrwt>0</asrwt>
<pdfrwt beam="2">  1        4 0.10409126E-01 0.20001753E+02</pdfrwt>
<pdfrwt beam="1">  1       -4 0.22742340E-03 0.20001753E+02</pdfrwt>
<totfact> 0.10779456E+06</totfact>
</mgrwt>
</event>
<event>
 5    1  0.4710515E-007  0.2000120E+02  0.7818608E-02  0.1745304E+00
          4   -1    0    0  501    0  0.00000000000E+00  0.00000000000E+00  0.42048135293E+01  0.44381141058E+01  0.14200000000E+01 0. -1.
         -4   -1    0    0    0  501 -0.00000000000E+00 -0.00000000000E+00 -0.22887174686E+02  0.22931183247E+02  0.14200000000E+01 0.  1.
       1023    2    1    2    0    0  0.00000000000E+00  0.00000000000E+00 -0.18682361156E+02  0.27369297352E+02  0.20001195444E+02 0.  0.
        -13    1    3    3    0    0  0.71959493476E+00 -0.99741016045E+01 -0.93633559583E+01  0.13699785654E+02  0.10570000000E+00 0. -1.
         13    1    3    3    0    0 -0.71959493476E+00  0.99741016045E+01 -0.93190051980E+01  0.13669511698E+02  0.10570000000E+00 0.  1.
<mgrwt>
<rscale>  0 0.20001195E+02</rscale>
<asrwt>0</asrwt>
<pdfrwt beam="1">  1        4 0.66822588E-03 0.20001195E+02</pdfrwt>
<pdfrwt beam="2">  1       -4 0.35424352E-02 0.20001195E+02</pdfrwt>
<totfact> 0.12593960E+06</totfact>
</mgrwt>
</event>
<event>
 5    1  0.4710515E-007  0.2000180E+02  0.7818608E-02  0.1745292E+00
          4   -1    0    0  501    0  0.00000000000E+00  0.00000000000E+00  0.90803785842E+02  0.90814888225E+02  0.14200000000E+01 0.  1.
         -4   -1    0    0    0  501 -0.00000000000E+00 -0.00000000000E+00 -0.62791662778E+00  0.15526362393E+01  0.14200000000E+01 0. -1.
       1023    2    1    2    0    0  0.00000000000E+00  0.00000000000E+00  0.90175869214E+02  0.92367524464E+02  0.20001804594E+02 0.  0.
        -13    1    3    3    0    0  0.99320772460E+01  0.11644501173E+01  0.44768935159E+02  0.45872331859E+02  0.10570000000E+00 0.  1.
         13    1    3    3    0    0 -0.99320772460E+01 -0.11644501173E+01  0.45406934056E+02  0.46495192605E+02  0.10570000000E+00 0. -1.
<mgrwt>
<rscale>  0 0.20001805E+02</rscale>
<asrwt>0</asrwt>
<pdfrwt beam="1">  1        4 0.14041802E-01 0.20001805E+02</pdfrwt>
<pdfrwt beam="2">  1       -4 0.16858883E-03 0.20001805E+02</pdfrwt>
<totfact> 0.10022373E+06</totfact>
</mgrwt>
</event>
<event>
 4    1  0.4710515E-007  0.2027099E+02  0.7818608E-02  0.1739992E+00
         -4   -1    0    0    0  501 -0.00000000000E+00  0.00000000000E+00  0.64257286643E+01  0.65807589887E+01  0.14200000000E+01 0.  1.
          4   -1    0    0  501    0  0.00000000000E+00 -0.00000000000E+00 -0.15608813034E+02  0.15673271654E+02  0.14200000000E+01 0. -1.
        -13    1    1    2    0    0  0.54038804741E+01  0.85698158568E+01 -0.48889090685E+01  0.11249723213E+02  0.10570000000E+00 0.  1.
         13    1    1    2    0    0 -0.54038804741E+01 -0.85698158568E+01 -0.42941753014E+01  0.11004307430E+02  0.10570000000E+00 0. -1.
<mgrwt>
<rscale>  0 0.20270985E+02</rscale>
<asrwt>0</asrwt>
<pdfrwt beam="2">  1        4 0.24182396E-02 0.20270985E+02</pdfrwt>
<pdfrwt beam="1">  1       -4 0.10054574E-02 0.20270985E+02</pdfrwt>
<totfact> 0.12531937E+06</totfact>
</mgrwt>
</event>
<event>
 4    1  0.4710515E-007  0.2008488E+02  0.7818608E-02  0.1743645E+00
         -4   -1    0    0    0  501 -0.00000000000E+00  0.00000000000E+00  0.31907011383E+02  0.31938593824E+02  0.14200000000E+01 0.  1.
          4   -1    0    0  501    0  0.00000000000E+00 -0.00000000000E+00 -0.29663608540E+01  0.32887226573E+01  0.14200000000E+01 0. -1.
        -13    1    1    2    0    0  0.57945707109E+01  0.81842270585E+01  0.13540831783E+02  0.16850042141E+02  0.10570000000E+00 0. -1.
         13    1    1    2    0    0 -0.57945707109E+01 -0.81842270585E+01  0.15399818746E+02  0.18377274340E+02  0.10570000000E+00 0.  1.
<mgrwt>
<rscale>  0 0.20084884E+02</rscale>
<asrwt>0</asrwt>
<pdfrwt beam="2">  1        4 0.48358971E-03 0.20084884E+02</pdfrwt>
<pdfrwt beam="1">  1       -4 0.49359973E-02 0.20084884E+02</pdfrwt>
<totfact> 0.12086504E+06</totfact>
</mgrwt>
</event>
<event>
 5    1  0.4710515E-007  0.2000593E+02  0.7818608E-02  0.1745210E+00
          4   -1    0    0  501    0  0.00000000000E+00  0.00000000000E+00  0.30437205523E+01  0.33586656280E+01  0.14200000000E+01 0. -1.
         -4   -1    0    0    0  501 -0.00000000000E+00 -0.00000000000E+00 -0.30924835110E+02  0.30957419573E+02  0.14200000000E+01 0.  1.
       1023    2    1    2    0    0  0.00000000000E+00  0.00000000000E+00 -0.27881114558E+02  0.34316085201E+02  0.20005927984E+02 0.  0.
        -13    1    3    3    0    0 -0.36355884927E+01 -0.93169080685E+01 -0.14216269360E+02  0.17382053005E+02  0.10570000000E+00 0. -1.
         13    1    3    3    0    0  0.36355884927E+01  0.93169080685E+01 -0.13664845198E+02  0.16934032196E+02  0.10570000000E+00 0.  1.
<mgrwt>
<rscale>  0 0.20005928E+02</rscale>
<asrwt>0</asrwt>
<pdfrwt beam="1">  1        4 0.49499776E-03 0.20005928E+02</pdfrwt>
<pdfrwt beam="2">  1       -4 0.47843998E-02 0.20005928E+02</pdfrwt>
<totfact> 0.12228466E+06</totfact>
</mgrwt>
</event>
<event>
 5    1  0.4710515E-007  0.2000301E+02  0.7818608E-02  0.1745268E+00
          4   -1    0    0  501    0  0.00000000000E+00  0.00000000000E+00  0.46807235207E+02  0.46828769658E+02  0.14200000000E+01 0.  1.
         -4   -1    0    0    0  501 -0.00000000000E+00 -0.00000000000E+00 -0.18766367435E+01  0.23533307178E+01  0.14200000000E+01 0. -1.
       1023    2    1    2    0    0  0.00000000000E+00  0.00000000000E+00  0.44930598463E+02  0.49182100376E+02  0.20003007752E+02 0.  0.
        -13    1    3    3    0    0  0.75582230858E+01 -0.65491931003E+01  0.22503454289E+02  0.24625906967E+02  0.10570000000E+00 0. -1.
         13    1    3    3    0    0 -0.75582230858E+01  0.65491931003E+01  0.22427144174E+02  0.24556193410E+02  0.10570000000E+00 0.  1.
<mgrwt>
<rscale>  0 0.20003008E+02</rscale>
<asrwt>0</asrwt>
<pdfrwt beam="1">  1        4 0.72394385E-02 0.20003008E+02</pdfrwt>
<pdfrwt beam="2">  1       -4 0.32703860E-03 0.20003008E+02</pdfrwt>
<totfact> 0.11551246E+06</totfact>
</mgrwt>
</event>
<event>
 5    1  0.4710515E-007  0.2000195E+02  0.7818608E-02  0.1745289E+00
         -4   -1    0    0    0  501 -0.00000000000E+00  0.00000000000E+00  0.73458999405E+02  0.73472722786E+02  0.14200000000E+01 0.  1.
          4   -1    0    0  501    0  0.00000000000E+00 -0.00000000000E+00 -0.97363434312E+00  0.17217327999E+01  0.14200000000E+01 0. -1.
       1023    2    1    2    0    0  0.00000000000E+00  0.00000000000E+00  0.72485365062E+02  0.75194455586E+02  0.20001949972E+02 0.  0.
        -13    1    3    3    0    0  0.38451921921E+01  0.92313036504E+01  0.36530417074E+02  0.37874595894E+02  0.10570000000E+00 0.  1.
         13    1    3    3    0    0 -0.38451921921E+01 -0.92313036504E+01  0.35954947988E+02  0.37319859692E+02  0.10570000000E+00 0. -1.
<mgrwt>
<rscale>  0 0.20001950E+02</rscale>
<asrwt>0</asrwt>
<pdfrwt beam="2">  1        4 0.20839152E-03 0.20001950E+02</pdfrwt>
<pdfrwt beam="1">  1       -4 0.11359989E-01 0.20001950E+02</pdfrwt>
<totfact> 0.10569050E+06</totfact>
</mgrwt>
</event>
<event>
 5    1  0.4710515E-007  0.2000193E+02  0.7818608E-02  0.1745290E+00
          4   -1    0    0  501    0  0.00000000000E+00  0.00000000000E+00  0.99720166568E+00  0.17351689146E+01  0.14200000000E+01 0. -1.
         -4   -1    0    0    0  501 -0.00000000000E+00 -0.00000000000E+00 -0.72463815318E+02  0.72477727134E+02  0.14200000000E+01 0.  1.
       1023    2    1    2    0    0  0.00000000000E+00  0.00000000000E+00 -0.71466613653E+02  0.74212896049E+02  0.20001926730E+02 0.  0.
        -13    1    3    3    0    0  0.65552783401E+01  0.75520741665E+01 -0.35544212915E+02  0.36924351620E+02  0.10570000000E+00 0.  1.
         13    1    3    3    0    0 -0.65552783401E+01 -0.75520741665E+01 -0.35922400738E+02  0.37288544428E+02  0.10570000000E+00 0. -1.
<mgrwt>
<rscale>  0 0.20001927E+02</rscale>
<asrwt>0</asrwt>
<pdfrwt beam="1">  1        4 0.21125255E-03 0.20001927E+02</pdfrwt>
<pdfrwt beam="2">  1       -4 0.11206113E-01 0.20001927E+02</pdfrwt>
<totfact> 0.10602471E+06</totfact>
</mgrwt>
</event>
<event>
 4    1  0.4710515E-007  0.2002871E+02  0.7818608E-02  0.1744758E+00
          4   -1    0    0  501    0  0.00000000000E+00  0.00000000000E+00  0.37889727706E+02  0.37916327164E+02  0.14200000000E+01 0.  1.
         -4   -1    0    0    0  501 -0.00000000000E+00 -0.00000000000E+00 -0.24267627574E+01  0.28116858788E+01  0.14200000000E+01 0. -1.
        -13    1    1    2    0    0  0.43348522793E+01  0.90235686829E+01  0.17231798758E+02  0.19928918610E+02  0.10570000000E+00 0. -1.
         13    1    1    2    0    0 -0.43348522793E+01 -0.90235686829E+01  0.18231166191E+02  0.20799094433E+02  0.10570000000E+00 0.  1.
<mgrwt>
<rscale>  0 0.20028708E+02</rscale>
<asrwt>0</asrwt>
<pdfrwt beam="1">  1        4 0.58608438E-02 0.20028708E+02</pdfrwt>
<pdfrwt beam="2">  1       -4 0.40500374E-03 0.20028708E+02</pdfrwt>
<totfact> 0.11894278E+06</totfact>
</mgrwt>
</event>
<event>
 4    1  0.4710515E-007  0.2028508E+02  0.7818608E-02  0.1739718E+00
          4   -1    0    0  501    0  0.00000000000E+00  0.00000000000E+00  0.23471281875E+02  0.23514197261E+02  0.14200000000E+01 0. -1.
         -4   -1    0    0    0  501 -0.00000000000E+00 -0.00000000000E+00 -0.42195606399E+01  0.44520884980E+01  0.14200000000E+01 0.  1.
        -13    1    1    2    0    0 -0.65177411427E+01 -0.77630901089E+01  0.91615928368E+01  0.13663545420E+02  0.10570000000E+00 0.  1.
         13    1    1    2    0    0  0.65177411427E+01  0.77630901089E+01  0.10090128398E+02  0.14302740340E+02  0.10570000000E+00 0. -1.
<mgrwt>
<rscale>  0 0.20285077E+02</rscale>
<asrwt>0</asrwt>
<pdfrwt beam="1">  1        4 0.36321544E-02 0.20285077E+02</pdfrwt>
<pdfrwt beam="2">  1       -4 0.67035111E-03 0.20285077E+02</pdfrwt>
<totfact> 0.12205907E+06</totfact>
</mgrwt>
</event>
<event>
 4    1  0.4710515E-007  0.2048923E+02  0.7818608E-02  0.1735771E+00
          4   -1    0    0  501    0  0.00000000000E+00  0.00000000000E+00  0.64661728673E+01  0.66202561544E+01  0.14200000000E+01 0.  1.
         -4   -1    0    0    0  501 -0.00000000000E+00 -0.00000000000E+00 -0.15853646775E+02  0.15917113937E+02  0.14200000000E+01 0. -1.
        -13    1    1    2    0    0  0.68233943397E+01 -0.76280666770E+01 -0.42082410520E+01  0.11066461801E+02  0.10570000000E+00 0.  1.
         13    1    1    2    0    0 -0.68233943397E+01  0.76280666770E+01 -0.51792328562E+01  0.11470908291E+02  0.10570000000E+00 0. -1.
<mgrwt>
<rscale>  0 0.20489226E+02</rscale>
<asrwt>0</asrwt>
<pdfrwt beam="1">  1        4 0.10115305E-02 0.20489226E+02</pdfrwt>
<pdfrwt beam="2">  1       -4 0.24557572E-02 0.20489226E+02</pdfrwt>
<totfact> 0.12242974E+06</totfact>
</mgrwt>
</event>
<event>
 5    1  0.4710515E-007  0.2000176E+02  0.7818608E-02  0.1745293E+00
          4   -1    0    0  501    0  0.00000000000E+00  0.00000000000E+00  0.83336735713E+01  0.84537870327E+01  0.14200000000E+01 0. -1.
         -4   -1    0    0    0  501 -0.00000000000E+00 -0.00000000000E+00 -0.11752596364E+02  0.11838070843E+02  0.14200000000E+01 0.  1.
       1023    2    1    2    0    0  0.00000000000E+00  0.00000000000E+00 -0.34189227922E+01  0.20291857876E+02  0.20001761497E+02 0.  0.
        -13    1    3    3    0    0  0.92108122844E+01  0.38945235170E+01 -0.17177589216E+01  0.10147326966E+02  0.10570000000E+00 0. -1.
         13    1    3    3    0    0 -0.92108122844E+01 -0.38945235170E+01 -0.17011638706E+01  0.10144530909E+02  0.10570000000E+00 0.  1.
<mgrwt>
<rscale>  0 0.20001761E+02</rscale>
<asrwt>0</asrwt>
<pdfrwt beam="1">  1        4 0.12979181E-02 0.20001761E+02</pdfrwt>
<pdfrwt beam="2">  1       -4 0.18239062E-02 0.20001761E+02</pdfrwt>
<totfact> 0.12994336E+06</totfact>
</mgrwt>
</event>
<event>
 5    1  0.4710515E-007  0.2000555E+02  0.7818608E-02  0.1745218E+00
          4   -1    0    0  501    0  0.00000000000E+00  0.00000000000E+00  0.12027194780E+02  0.12110731368E+02  0.14200000000E+01 0.  1.
         -4   -1    0    0    0  501 -0.00000000000E+00 -0.00000000000E+00 -0.81451436460E+01  0.82679964329E+01  0.14200000000E+01 0. -1.
       1023    2    1    2    0    0  0.00000000000E+00  0.00000000000E+00  0.38820511339E+01  0.20378727801E+02  0.20005554873E+02 0.  0.
        -13    1    3    3    0    0  0.92545119381E+01  0.37942772623E+01  0.19848726602E+01  0.10197716564E+02  0.10570000000E+00 0. -1.
         13    1    3    3    0    0 -0.92545119381E+01 -0.37942772623E+01  0.18971784736E+01  0.10181011237E+02  0.10570000000E+00 0.  1.
<mgrwt>
<rscale>  0 0.20005555E+02</rscale>
<asrwt>0</asrwt>
<pdfrwt beam="1">  1        4 0.18662138E-02 0.20005555E+02</pdfrwt>
<pdfrwt beam="2">  1       -4 0.12689751E-02 0.20005555E+02</pdfrwt>
<totfact> 0.12984149E+06</totfact>
</mgrwt>
</event>
<event>
 5    1  0.4710515E-007  0.2000602E+02  0.7818608E-02  0.1745208E+00
          4   -1    0    0  501    0  0.00000000000E+00  0.00000000000E+00  0.18170609946E+01  0.23061029158E+01  0.14200000000E+01 0.  1.
         -4   -1    0    0    0  501 -0.00000000000E+00 -0.00000000000E+00 -0.48034886693E+02  0.48055871021E+02  0.14200000000E+01 0. -1.
       1023    2    1    2    0    0  0.00000000000E+00  0.00000000000E+00 -0.46217825699E+02  0.50361973937E+02  0.20006024256E+02 0.  0.
        -13    1    3    3    0    0 -0.76795214068E+01  0.64084509178E+01 -0.23300411885E+02  0.25356728076E+02  0.10570000000E+00 0.  1.
         13    1    3    3    0    0  0.76795214068E+01 -0.64084509178E+01 -0.22917413814E+02  0.25005245862E+02  0.10570000000E+00 0. -1.
<mgrwt>
<rscale>  0 0.20006024E+02</rscale>
<asrwt>0</asrwt>
<pdfrwt beam="1">  1        4 0.31878067E-03 0.20006024E+02</pdfrwt>
<pdfrwt beam="2">  1       -4 0.74292145E-02 0.20006024E+02</pdfrwt>
<totfact> 0.11498033E+06</totfact>
</mgrwt>
</event>
<event>
 5    1  0.4922947E-007  0.2000316E+02  0.7818608E-02  0.1745265E+00
          4   -1    0    0  501    0  0.00000000000E+00  0.00000000000E+00  0.18376720795E+02  0.18431502033E+02  0.14200000000E+01 0. -1.
         -4   -1    0    0    0  501 -0.00000000000E+00 -0.00000000000E+00 -0.52866727912E+01  0.54740578368E+01  0.14200000000E+01 0.  1.
       1023    2    1    2    0    0  0.00000000000E+00  0.00000000000E+00  0.13090048004E+02  0.23905559870E+02  0.20003160649E+02 0.  0.
        -13    1    3    3    0    0  0.45685146470E+01  0.88963730514E+01  0.66172942483E+01  0.11992353197E+02  0.10570000000E+00 0.  1.
         13    1    3    3    0    0 -0.45685146470E+01 -0.88963730514E+01  0.64727537559E+01  0.11913206673E+02  0.10570000000E+00 0. -1.
<mgrwt>
<rscale>  0 0.20003161E+02</rscale>
<asrwt>0</asrwt>
<pdfrwt beam="1">  1        4 0.28458160E-02 0.20003161E+02</pdfrwt>
<pdfrwt beam="2">  1       -4 0.83196246E-03 0.20003161E+02</pdfrwt>
<totfact> 0.12782974E+06</totfact>
</mgrwt>
</event>
<event>
 5    1  0.4710515E-007  0.2000409E+02  0.7818608E-02  0.1745247E+00
          4   -1    0    0  501    0  0.00000000000E+00  0.00000000000E+00  0.25621985089E+01  0.29293789784E+01  0.14200000000E+01 0. -1.
         -4   -1    0    0    0  501 -0.00000000000E+00 -0.00000000000E+00 -0.36052223600E+02  0.36080177750E+02  0.14200000000E+01 0.  1.
       1023    2    1    2    0    0  0.00000000000E+00  0.00000000000E+00 -0.33490025091E+02  0.39009556729E+02  0.20004092971E+02 0.  0.
        -13    1    3    3    0    0  0.14940103633E+01  0.98890989686E+01 -0.16858988378E+02  0.19602627553E+02  0.10570000000E+00 0.  1.
         13    1    3    3    0    0 -0.14940103633E+01 -0.98890989686E+01 -0.16631036713E+02  0.19406929175E+02  0.10570000000E+00 0. -1.
<mgrwt>
<rscale>  0 0.20004093E+02</rscale>
<asrwt>0</asrwt>
<pdfrwt beam="1">  1        4 0.42457938E-03 0.20004093E+02</pdfrwt>
<pdfrwt beam="2">  1       -4 0.55768906E-02 0.20004093E+02</pdfrwt>
<totfact> 0.12003986E+06</totfact>
</mgrwt>
</event>
<event>
 4    1  0.4710515E-007  0.2023795E+02  0.7818608E-02  0.1740637E+00
          4   -1    0    0  501    0  0.00000000000E+00  0.00000000000E+00  0.20530371903E+01  0.24962695577E+01  0.14200000000E+01 0.  1.
         -4   -1    0    0    0  501 -0.00000000000E+00 -0.00000000000E+00 -0.44559413285E+02  0.44582033515E+02  0.14200000000E+01 0. -1.
        -13    1    1    2    0    0 -0.29587999852E+01  0.96653625321E+01 -0.22316027540E+02  0.24498775232E+02  0.10570000000E+00 0. -1.
         13    1    1    2    0    0  0.29587999852E+01 -0.96653625321E+01 -0.20190348555E+02  0.22579527840E+02  0.10570000000E+00 0.  1.
<mgrwt>
<rscale>  0 0.20237950E+02</rscale>
<asrwt>0</asrwt>
<pdfrwt beam="1">  1        4 0.35168672E-03 0.20237950E+02</pdfrwt>
<pdfrwt beam="2">  1       -4 0.68911285E-02 0.20237950E+02</pdfrwt>
<totfact> 0.11369608E+06</totfact>
</mgrwt>
</event>
<event>
 4    1  0.4710515E-007  0.2004587E+02  0.7818608E-02  0.1744417E+00
          4   -1    0    0  501    0  0.00000000000E+00  0.00000000000E+00  0.17186712272E+01  0.22294014415E+01  0.14200000000E+01 0.  1.
         -4   -1    0    0    0  501 -0.00000000000E+00 -0.00000000000E+00 -0.50368248784E+02  0.50388261386E+02  0.14200000000E+01 0. -1.
        -13    1    1    2    0    0  0.96298550208E+01 -0.27494946192E+01 -0.23293847866E+02  0.25355637426E+02  0.10570000000E+00 0.  1.
         13    1    1    2    0    0 -0.96298550208E+01  0.27494946192E+01 -0.25355729690E+02  0.27262025402E+02  0.10570000000E+00 0. -1.
<mgrwt>
<rscale>  0 0.20045874E+02</rscale>
<asrwt>0</asrwt>
<pdfrwt beam="1">  1        4 0.30523737E-03 0.20045874E+02</pdfrwt>
<pdfrwt beam="2">  1       -4 0.77897867E-02 0.20045874E+02</pdfrwt>
<totfact> 0.11358915E+06</totfact>
</mgrwt>
</event>
<event>
 5    1  0.4710515E-007  0.2000941E+02  0.7818608E-02  0.1745141E+00
         -4   -1    0    0    0  501 -0.00000000000E+00  0.00000000000E+00  0.47649837243E+02  0.47670991067E+02  0.14200000000E+01 0.  1.
          4   -1    0    0  501    0  0.00000000000E+00 -0.00000000000E+00 -0.18364662973E+01  0.23214238004E+01  0.14200000000E+01 0. -1.
       1023    2    1    2    0    0  0.00000000000E+00  0.00000000000E+00  0.45813370946E+02  0.49992414868E+02  0.20009412456E+02 0.  0.
        -13    1    3    3    0    0 -0.65708507590E+01  0.75436236734E+01  0.22969713606E+02  0.25053966821E+02  0.10570000000E+00 0.  1.
         13    1    3    3    0    0  0.65708507590E+01 -0.75436236734E+01  0.22843657340E+02  0.24938448046E+02  0.10570000000E+00 0. -1.
<mgrwt>
<rscale>  0 0.20009412E+02</rscale>
<asrwt>0</asrwt>
<pdfrwt beam="2">  1        4 0.32146492E-03 0.20009412E+02</pdfrwt>
<pdfrwt beam="1">  1       -4 0.73696757E-02 0.20009412E+02</pdfrwt>
<totfact> 0.11509604E+06</totfact>
</mgrwt>
</event>
<event>
 5    1  0.4710515E-007  0.2000164E+02  0.7818608E-02  0.1745296E+00
          4   -1    0    0  501    0  0.00000000000E+00  0.00000000000E+00  0.88517303101E+02  0.88528692231E+02  0.14200000000E+01 0. -1.
         -4   -1    0    0    0  501 -0.00000000000E+00 -0.00000000000E+00 -0.66769030020E+00  0.15691431856E+01  0.14200000000E+01 0.  1.
       1023    2    1    2    0    0  0.00000000000E+00  0.00000000000E+00  0.87849612800E+02  0.90097835417E+02  0.20001636874E+02 0.  0.
        -13    1    3    3    0    0 -0.68859325178E+01 -0.72518345348E+01  0.43947847625E+02  0.45071383983E+02  0.10570000000E+00 0. -1.
         13    1    3    3    0    0  0.68859325178E+01  0.72518345348E+01  0.43901765175E+02  0.45026451434E+02  0.10570000000E+00 0.  1.
<mgrwt>
<rscale>  0 0.20001637E+02</rscale>
<asrwt>0</asrwt>
<pdfrwt beam="1">  1        4 0.13688271E-01 0.20001637E+02</pdfrwt>
<pdfrwt beam="2">  1       -4 0.17294013E-03 0.20001637E+02</pdfrwt>
<totfact> 0.10091075E+06</totfact>
</mgrwt>
</event>
<event>
 5    1  0.4710515E-007  0.2000155E+02  0.7818608E-02  0.1745297E+00
         -4   -1    0    0    0  501 -0.00000000000E+00  0.00000000000E+00  0.14187334880E+01  0.20072878991E+01  0.14200000000E+01 0.  1.
          4   -1    0    0  501    0  0.00000000000E+00 -0.00000000000E+00 -0.57787034218E+02  0.57804478406E+02  0.14200000000E+01 0. -1.
       1023    2    1    2    0    0  0.00000000000E+00  0.00000000000E+00 -0.56368300730E+02  0.59811766305E+02  0.20001551472E+02 0.  0.
        -13    1    3    3    0    0  0.58316011459E+01 -0.81237575459E+01 -0.28293379866E+02  0.30008824124E+02  0.10570000000E+00 0. -1.
         13    1    3    3    0    0 -0.58316011459E+01  0.81237575459E+01 -0.28074920864E+02  0.29802942181E+02  0.10570000000E+00 0.  1.
<mgrwt>
<rscale>  0 0.20001551E+02</rscale>
<asrwt>0</asrwt>
<pdfrwt beam="2">  1        4 0.89369267E-02 0.20001551E+02</pdfrwt>
<pdfrwt beam="1">  1       -4 0.26488201E-03 0.20001551E+02</pdfrwt>
<totfact> 0.11124352E+06</totfact>
</mgrwt>
</event>
<event>
 5    1  0.5104523E-007  0.2000343E+02  0.7818608E-02  0.1745260E+00
         -4   -1    0    0    0  501 -0.00000000000E+00  0.00000000000E+00  0.72083418595E+01  0.73468763678E+01  0.14200000000E+01 0.  1.
          4   -1    0    0  501    0  0.00000000000E+00 -0.00000000000E+00 -0.13569552836E+02  0.13643649225E+02  0.14200000000E+01 0. -1.
       1023    2    1    2    0    0  0.00000000000E+00  0.00000000000E+00 -0.63612109769E+01  0.20990525593E+02  0.20003428695E+02 0.  0.
        -13    1    3    3    0    0 -0.99950267124E+01 -0.34444576143E+00 -0.31149433995E+01  0.10475363800E+02  0.10570000000E+00 0.  1.
         13    1    3    3    0    0  0.99950267124E+01  0.34444576143E+00 -0.32462675774E+01  0.10515161793E+02  0.10570000000E+00 0. -1.
<mgrwt>
<rscale>  0 0.20003429E+02</rscale>
<asrwt>0</asrwt>
<pdfrwt beam="2">  1        4 0.21039797E-02 0.20003429E+02</pdfrwt>
<pdfrwt beam="1">  1       -4 0.11253319E-02 0.20003429E+02</pdfrwt>
<totfact> 0.12950779E+06</totfact>
</mgrwt>
</event>
<event>
 5    1  0.4710515E-007  0.2000678E+02  0.7818608E-02  0.1745193E+00
          4   -1    0    0  501    0  0.00000000000E+00  0.00000000000E+00  0.35939473926E+01  0.38643056117E+01  0.14200000000E+01 0. -1.
         -4   -1    0    0    0  501 -0.00000000000E+00 -0.00000000000E+00 -0.26544102929E+02  0.26582057864E+02  0.14200000000E+01 0.  1.
       1023    2    1    2    0    0  0.00000000000E+00  0.00000000000E+00 -0.22950155536E+02  0.30446363476E+02  0.20006784094E+02 0.  0.
        -13    1    3    3    0    0 -0.87830351868E+01 -0.47865946005E+01 -0.11385240005E+02  0.15155462957E+02  0.10570000000E+00 0. -1.
         13    1    3    3    0    0  0.87830351868E+01  0.47865946005E+01 -0.11564915531E+02  0.15290900519E+02  0.10570000000E+00 0.  1.
<mgrwt>
<rscale>  0 0.20006784E+02</rscale>
<asrwt>0</asrwt>
<pdfrwt beam="1">  1        4 0.57663140E-03 0.20006784E+02</pdfrwt>
<pdfrwt beam="2">  1       -4 0.41074244E-02 0.20006784E+02</pdfrwt>
<totfact> 0.12423928E+06</totfact>
</mgrwt>
</event>
<event>
 5    1  0.4710515E-007  0.2000181E+02  0.7818608E-02  0.1745292E+00
          4   -1    0    0  501    0  0.00000000000E+00  0.00000000000E+00  0.57539504248E+00  0.15321486400E+01  0.14200000000E+01 0. -1.
         -4   -1    0    0    0  501 -0.00000000000E+00 -0.00000000000E+00 -0.93949858079E+02  0.93960588723E+02  0.14200000000E+01 0.  1.
       1023    2    1    2    0    0  0.00000000000E+00  0.00000000000E+00 -0.93374463037E+02  0.95492737363E+02  0.20001813458E+02 0.  0.
        -13    1    3    3    0    0 -0.67205201742E+01 -0.74053302065E+01 -0.46933278235E+02  0.47986957449E+02  0.10570000000E+00 0.  1.
         13    1    3    3    0    0  0.67205201742E+01  0.74053302065E+01 -0.46441184802E+02  0.47505779914E+02  0.10570000000E+00 0. -1.
<mgrwt>
<rscale>  0 0.20001813E+02</rscale>
<asrwt>0</asrwt>
<pdfrwt beam="1">  1        4 0.16294425E-03 0.20001813E+02</pdfrwt>
<pdfrwt beam="2">  1       -4 0.14528240E-01 0.20001813E+02</pdfrwt>
<totfact> 0.99297223E+05</totfact>
</mgrwt>
</event>
<event>
 5    1  0.4710515E-007  0.2000372E+02  0.7818608E-02  0.1745254E+00
         -4   -1    0    0    0  501 -0.00000000000E+00  0.00000000000E+00  0.46144862738E+01  0.48280310243E+01  0.14200000000E+01 0. -1.
          4   -1    0    0  501    0  0.00000000000E+00 -0.00000000000E+00 -0.20950546177E+02  0.20998613885E+02  0.14200000000E+01 0.  1.
       1023    2    1    2    0    0  0.00000000000E+00  0.00000000000E+00 -0.16336059903E+02  0.25826644910E+02  0.20003718008E+02 0.  0.
        -13    1    3    3    0    0 -0.99549212366E+01  0.96079142314E+00 -0.82317275169E+01  0.12953612909E+02  0.10570000000E+00 0.  1.
         13    1    3    3    0    0  0.99549212366E+01 -0.96079142314E+00 -0.81043323861E+01  0.12873032001E+02  0.10570000000E+00 0. -1.
<mgrwt>
<rscale>  0 0.20003718E+02</rscale>
<asrwt>0</asrwt>
<pdfrwt beam="2">  1        4 0.32432850E-02 0.20003718E+02</pdfrwt>
<pdfrwt beam="1">  1       -4 0.73004501E-03 0.20003718E+02</pdfrwt>
<totfact> 0.12674925E+06</totfact>
</mgrwt>
</event>
<event>
 4    1  0.4710515E-007  0.2004167E+02  0.7818608E-02  0.1744501E+00
         -4   -1    0    0    0  501 -0.00000000000E+00  0.00000000000E+00  0.20318066566E+01  0.24788380927E+01  0.14200000000E+01 0. -1.
          4   -1    0    0  501    0  0.00000000000E+00 -0.00000000000E+00 -0.44064918092E+02  0.44087792034E+02  0.14200000000E+01 0.  1.
        -13    1    1    2    0    0  0.76596007310E+01  0.64375639905E+01 -0.19756160956E+02  0.22145626695E+02  0.10570000000E+00 0. -1.
         13    1    1    2    0    0 -0.76596007310E+01 -0.64375639905E+01 -0.22276950479E+02  0.24421003432E+02  0.10570000000E+00 0.  1.
<mgrwt>
<rscale>  0 0.20041671E+02</rscale>
<asrwt>0</asrwt>
<pdfrwt beam="2">  1        4 0.68153641E-02 0.20041671E+02</pdfrwt>
<pdfrwt beam="1">  1       -4 0.34873224E-03 0.20041671E+02</pdfrwt>
<totfact> 0.11618132E+06</totfact>
</mgrwt>
</event>
<event>
 5    1  0.4710515E-007  0.2001024E+02  0.7818608E-02  0.1745125E+00
          4   -1    0    0  501    0  0.00000000000E+00  0.00000000000E+00  0.76342455427E+02  0.76355660567E+02  0.14200000000E+01 0. -1.
         -4   -1    0    0    0  501 -0.00000000000E+00 -0.00000000000E+00 -0.90947314128E+00  0.16862803429E+01  0.14200000000E+01 0.  1.
       1023    2    1    2    0    0  0.00000000000E+00  0.00000000000E+00  0.75432982286E+02  0.78041940910E+02  0.20010240490E+02 0.  0.
        -13    1    3    3    0    0  0.56159245123E+01  0.82790732295E+01  0.37334421485E+02  0.38651673467E+02  0.10570000000E+00 0.  1.
         13    1    3    3    0    0 -0.56159245123E+01 -0.82790732295E+01  0.38098560800E+02  0.39390267443E+02  0.10570000000E+00 0. -1.
<mgrwt>
<rscale>  0 0.20010240E+02</rscale>
<asrwt>0</asrwt>
<pdfrwt beam="1">  1        4 0.11805764E-01 0.20010240E+02</pdfrwt>
<pdfrwt beam="2">  1       -4 0.20068912E-03 0.20010240E+02</pdfrwt>
<totfact> 0.10464897E+06</totfact>
</mgrwt>
</event>
<event>
 5    1  0.4710515E-007  0.2000212E+02  0.7818608E-02  0.1745286E+00
         -4   -1    0    0    0  501 -0.00000000000E+00  0.00000000000E+00  0.28510707269E+00  0.14483390635E+01  0.14200000000E+01 0. -1.
          4   -1    0    0  501    0  0.00000000000E+00 -0.00000000000E+00 -0.11423093265E+03  0.11423975829E+03  0.14200000000E+01 0. -1.
       1023    2    1    2    0    0  0.00000000000E+00  0.00000000000E+00 -0.11394582558E+03  0.11568809735E+03  0.20002117456E+02 0.  0.
        -13    1    3    3    0    0  0.71863241750E+01 -0.69541569060E+01 -0.56508413895E+02  0.57386545172E+02  0.10570000000E+00 0.  1.
         13    1    3    3    0    0 -0.71863241750E+01  0.69541569060E+01 -0.57437411681E+02  0.58301552180E+02  0.10570000000E+00 0. -1.
<mgrwt>
<rscale>  0 0.20002117E+02</rscale>
<asrwt>0</asrwt>
<pdfrwt beam="2">  1        4 0.17664136E-01 0.20002117E+02</pdfrwt>
<pdfrwt beam="1">  1       -4 0.13402100E-03 0.20002117E+02</pdfrwt>
<totfact> 0.93738131E+05</totfact>
</mgrwt>
</event>
<event>
 4    1  0.4710515E-007  0.2004125E+02  0.7818608E-02  0.1744509E+00
          4   -1    0    0  501    0  0.00000000000E+00  0.00000000000E+00  0.11833105288E+01  0.18484111576E+01  0.14200000000E+01 0.  1.
         -4   -1    0    0    0  501 -0.00000000000E+00 -0.00000000000E+00 -0.65567069084E+02  0.65582443903E+02  0.14200000000E+01 0. -1.
        -13    1    1    2    0    0  0.83277311688E+01 -0.55609987872E+01 -0.33386079565E+02  0.34855663746E+02  0.10570000000E+00 0.  1.
         13    1    1    2    0    0 -0.83277311688E+01  0.55609987872E+01 -0.30997678990E+02  0.32575191315E+02  0.10570000000E+00 0. -1.
<mgrwt>
<rscale>  0 0.20041254E+02</rscale>
<asrwt>0</asrwt>
<pdfrwt beam="1">  1        4 0.23439209E-03 0.20041254E+02</pdfrwt>
<pdfrwt beam="2">  1       -4 0.10139583E-01 0.20041254E+02</pdfrwt>
<totfact> 0.10797668E+06</totfact>
</mgrwt>
</event>
<event>
 5    1  0.4710515E-007  0.2000292E+02  0.7818608E-02  0.1745270E+00
          4   -1    0    0  501    0  0.00000000000E+00  0.00000000000E+00  0.17032605756E+02  0.17091695611E+02  0.14200000000E+01 0.  1.
         -4   -1    0    0    0  501 -0.00000000000E+00 -0.00000000000E+00 -0.57165338445E+01  0.58902596883E+01  0.14200000000E+01 0. -1.
       1023    2    1    2    0    0  0.00000000000E+00  0.00000000000E+00  0.11316071912E+02  0.22981955299E+02  0.20002919433E+02 0.  0.
        -13    1    3    3    0    0  0.76681538504E+01  0.64200631119E+01  0.56754655224E+01  0.11499559784E+02  0.10570000000E+00 0. -1.
         13    1    3    3    0    0 -0.76681538504E+01 -0.64200631119E+01  0.56406063892E+01  0.11482395515E+02  0.10570000000E+00 0.  1.
<mgrwt>
<rscale>  0 0.20002919E+02</rscale>
<asrwt>0</asrwt>
<pdfrwt beam="1">  1        4 0.26383098E-02 0.20002919E+02</pdfrwt>
<pdfrwt beam="2">  1       -4 0.89737565E-03 0.20002919E+02</pdfrwt>
<totfact> 0.12835790E+06</totfact>
</mgrwt>
</event>
<event>
 5    1  0.4710515E-007  0.2000517E+02  0.7818608E-02  0.1745225E+00
         -4   -1    0    0    0  501 -0.00000000000E+00  0.00000000000E+00  0.31238758141E+01  0.34314720022E+01  0.14200000000E+01 0.  1.
          4   -1    0    0  501    0  0.00000000000E+00 -0.00000000000E+00 -0.30200167828E+02  0.30233533317E+02  0.14200000000E+01 0. -1.
       1023    2    1    2    0    0  0.00000000000E+00  0.00000000000E+00 -0.27076292014E+02  0.33665005320E+02  0.20005174179E+02 0.  0.
        -13    1    3    3    0    0 -0.57837916624E+01 -0.81600336789E+01 -0.13616723879E+02  0.16895701741E+02  0.10570000000E+00 0.  1.
         13    1    3    3    0    0  0.57837916624E+01  0.81600336789E+01 -0.13459568135E+02  0.16769303578E+02  0.10570000000E+00 0. -1.
<mgrwt>
<rscale>  0 0.20005174E+02</rscale>
<asrwt>0</asrwt>
<pdfrwt beam="2">  1        4 0.46724073E-02 0.20005174E+02</pdfrwt>
<pdfrwt beam="1">  1       -4 0.50682412E-03 0.20005174E+02</pdfrwt>
<totfact> 0.12261844E+06</totfact>
</mgrwt>
</event>
<event>
 5    1  0.4710515E-007  0.2000429E+02  0.7818608E-02  0.1745243E+00
          4   -1    0    0  501    0  0.00000000000E+00  0.00000000000E+00  0.25299600562E+01  0.29012235153E+01  0.14200000000E+01 0.  1.
         -4   -1    0    0    0  501 -0.00000000000E+00 -0.00000000000E+00 -0.36454151161E+02  0.36481797336E+02  0.14200000000E+01 0. -1.
       1023    2    1    2    0    0  0.00000000000E+00  0.00000000000E+00 -0.33924191104E+02  0.39383020851E+02  0.20004289272E+02 0.  0.
        -13    1    3    3    0    0 -0.74433721894E+01  0.66799526097E+01 -0.17116717954E+02  0.19824700815E+02  0.10570000000E+00 0.  1.
         13    1    3    3    0    0  0.74433721894E+01 -0.66799526097E+01 -0.16807473151E+02  0.19558320036E+02  0.10570000000E+00 0. -1.
<mgrwt>
<rscale>  0 0.20004289E+02</rscale>
<asrwt>0</asrwt>
<pdfrwt beam="1">  1        4 0.41991000E-03 0.20004289E+02</pdfrwt>
<pdfrwt beam="2">  1       -4 0.56390160E-02 0.20004289E+02</pdfrwt>
<totfact> 0.11986219E+06</totfact>
</mgrwt>
</event>
<event>
 5    1  0.4710515E-007  0.2000288E+02  0.7818608E-02  0.1745271E+00
          4   -1    0    0  501    0  0.00000000000E+00  0.00000000000E+00  0.13752087010E+02  0.13825205139E+02  0.14200000000E+01 0. -1.
         -4   -1    0    0    0  501 -0.00000000000E+00 -0.00000000000E+00 -0.71109312098E+01  0.72513269593E+01  0.14200000000E+01 0.  1.
       1023    2    1    2    0    0  0.00000000000E+00  0.00000000000E+00  0.66411558003E+01  0.21076532098E+02  0.20002881165E+02 0.  0.
        -13    1    3    3    0    0  0.84516906862E+01  0.53463160619E+01  0.33826495564E+01  0.10557824653E+02  0.10570000000E+00 0. -1.
         13    1    3    3    0    0 -0.84516906862E+01 -0.53463160619E+01  0.32585062439E+01  0.10518707445E+02  0.10570000000E+00 0.  1.
<mgrwt>
<rscale>  0 0.20002881E+02</rscale>
<asrwt>0</asrwt>
<pdfrwt beam="1">  1        4 0.21321298E-02 0.20002881E+02</pdfrwt>
<pdfrwt beam="2">  1       -4 0.11104136E-02 0.20002881E+02</pdfrwt>
<totfact> 0.12946430E+06</totfact>
</mgrwt>
</event>
<event>
 5    1  0.4749243E-007  0.2000231E+02  0.7818608E-02  0.1745282E+00
         -4   -1    0    0    0  501 -0.00000000000E+00  0.00000000000E+00  0.15942122032E+02  0.16005238357E+02  0.14200000000E+01 0.  1.
          4   -1    0    0  501    0  0.00000000000E+00 -0.00000000000E+00 -0.61171383617E+01  0.62797915361E+01  0.14200000000E+01 0. -1.
       1023    2    1    2    0    0  0.00000000000E+00  0.00000000000E+00  0.98249836699E+01  0.22285029893E+02  0.20002306198E+02 0.  0.
        -13    1    3    3    0    0  0.25102849971E+01  0.96803638726E+01  0.49461992626E+01  0.11157375816E+02  0.10570000000E+00 0. -1.
         13    1    3    3    0    0 -0.25102849971E+01 -0.96803638726E+01  0.48787844073E+01  0.11127654077E+02  0.10570000000E+00 0.  1.
<mgrwt>
<rscale>  0 0.20002306E+02</rscale>
<asrwt>0</asrwt>
<pdfrwt beam="2">  1        4 0.95846512E-03 0.20002306E+02</pdfrwt>
<pdfrwt beam="1">  1       -4 0.24700010E-02 0.20002306E+02</pdfrwt>
<totfact> 0.12876686E+06</totfact>
</mgrwt>
</event>
<event>
 5    1  0.4710515E-007  0.2000229E+02  0.7818608E-02  0.1745283E+00
         -4   -1    0    0    0  501 -0.00000000000E+00  0.00000000000E+00  0.26971316706E+01  0.30481009249E+01  0.14200000000E+01 0. -1.
          4   -1    0    0  501    0  0.00000000000E+00 -0.00000000000E+00 -0.34452959515E+02  0.34482210187E+02  0.14200000000E+01 0.  1.
       1023    2    1    2    0    0  0.00000000000E+00  0.00000000000E+00 -0.31755827845E+02  0.37530311112E+02  0.20002291120E+02 0.  0.
        -13    1    3    3    0    0  0.60010550430E+01  0.79995524921E+01 -0.15729718065E+02  0.18639761388E+02  0.10570000000E+00 0.  1.
         13    1    3    3    0    0 -0.60010550430E+01 -0.79995524921E+01 -0.16026109779E+02  0.18890549723E+02  0.10570000000E+00 0. -1.
<mgrwt>
<rscale>  0 0.20002291E+02</rscale>
<asrwt>0</asrwt>
<pdfrwt beam="2">  1        4 0.53297027E-02 0.20002291E+02</pdfrwt>
<pdfrwt beam="1">  1       -4 0.44419104E-03 0.20002291E+02</pdfrwt>
<totfact> 0.12076345E+06</totfact>
</mgrwt>
</event>
<event>
 4    1  0.4710515E-007  0.2011471E+02  0.7818608E-02  0.1743057E+00
          4   -1    0    0  501    0  0.00000000000E+00  0.00000000000E+00  0.57722682128E+00  0.15328375006E+01  0.14200000000E+01 0. -1.
         -4   -1    0    0    0  501 -0.00000000000E+00 -0.00000000000E+00 -0.94910882018E+02  0.94921504020E+02  0.14200000000E+01 0.  1.
        -13    1    1    2    0    0 -0.16735118221E+01 -0.99103785467E+01 -0.48848277658E+02  0.49871651741E+02  0.10570000000E+00 0. -1.
         13    1    1    2    0    0  0.16735118221E+01  0.99103785467E+01 -0.45485377539E+02  0.46582689780E+02  0.10570000000E+00 0.  1.
<mgrwt>
<rscale>  0 0.20114708E+02</rscale>
<asrwt>0</asrwt>
<pdfrwt beam="1">  1        4 0.16312979E-03 0.20114708E+02</pdfrwt>
<pdfrwt beam="2">  1       -4 0.14675993E-01 0.20114708E+02</pdfrwt>
<totfact> 0.97908943E+05</totfact>
</mgrwt>
</event>
<event>
 4    1  0.4710515E-007  0.2002115E+02  0.7818608E-02  0.1744908E+00
         -4   -1    0    0    0  501 -0.00000000000E+00  0.00000000000E+00  0.35051257089E+02  0.35080008887E+02  0.14200000000E+01 0. -1.
          4   -1    0    0  501    0  0.00000000000E+00 -0.00000000000E+00 -0.26508160363E+01  0.30071956468E+01  0.14200000000E+01 0.  1.
        -13    1    1    2    0    0  0.99380287195E+01 -0.11171256820E+01  0.17025245696E+02  0.19745443731E+02  0.10570000000E+00 0. -1.
         13    1    1    2    0    0 -0.99380287195E+01  0.11171256820E+01  0.15375195357E+02  0.18341760803E+02  0.10570000000E+00 0.  1.
<mgrwt>
<rscale>  0 0.20021153E+02</rscale>
<asrwt>0</asrwt>
<pdfrwt beam="2">  1        4 0.43744334E-03 0.20021153E+02</pdfrwt>
<pdfrwt beam="1">  1       -4 0.54221266E-02 0.20021153E+02</pdfrwt>
<totfact> 0.12026805E+06</totfact>
</mgrwt>
</event>
<event>
 5    1  0.4710515E-007  0.2000133E+02  0.7818608E-02  0.1745302E+00
          4   -1    0    0  501    0  0.00000000000E+00  0.00000000000E+00  0.64849020452E+00  0.15610700001E+01  0.14200000000E+01 0.  1.
         -4   -1    0    0    0  501 -0.00000000000E+00 -0.00000000000E+00 -0.89607241108E+02  0.89618491725E+02  0.14200000000E+01 0. -1.
       1023    2    1    2    0    0  0.00000000000E+00  0.00000000000E+00 -0.88958750903E+02  0.91179561725E+02  0.20001327806E+02 0.  0.
        -13    1    3    3    0    0  0.54125811488E+01 -0.84085779237E+01 -0.44281263358E+02  0.45396494077E+02  0.10570000000E+00 0.  1.
         13    1    3    3    0    0 -0.54125811488E+01  0.84085779237E+01 -0.44677487546E+02  0.45783067648E+02  0.10570000000E+00 0. -1.
<mgrwt>
<rscale>  0 0.20001328E+02</rscale>
<asrwt>0</asrwt>
<pdfrwt beam="1">  1        4 0.17083167E-03 0.20001328E+02</pdfrwt>
<pdfrwt beam="2">  1       -4 0.13856788E-01 0.20001328E+02</pdfrwt>
<totfact> 0.10058591E+06</totfact>
</mgrwt>
</event>
<event>
 5    1  0.4710515E-007  0.2000338E+02  0.7818608E-02  0.1745261E+00
          4   -1    0    0  501    0  0.00000000000E+00  0.00000000000E+00  0.16865107063E+01  0.22047036904E+01  0.14200000000E+01 0.  1.
         -4   -1    0    0    0  501 -0.00000000000E+00 -0.00000000000E+00 -0.50885807832E+02  0.50905616966E+02  0.14200000000E+01 0. -1.
       1023    2    1    2    0    0  0.00000000000E+00  0.00000000000E+00 -0.49199297126E+02  0.53110320657E+02  0.20003382779E+02 0.  0.
        -13    1    3    3    0    0  0.92558582024E+01  0.37873598455E+01 -0.24831909919E+02  0.26770318048E+02  0.10570000000E+00 0. -1.
         13    1    3    3    0    0 -0.92558582024E+01 -0.37873598455E+01 -0.24367387207E+02  0.26340002609E+02  0.10570000000E+00 0.  1.
<mgrwt>
<rscale>  0 0.20003383E+02</rscale>
<asrwt>0</asrwt>
<pdfrwt beam="1">  1        4 0.30084800E-03 0.20003383E+02</pdfrwt>
<pdfrwt beam="2">  1       -4 0.78699696E-02 0.20003383E+02</pdfrwt>
<totfact> 0.11387478E+06</totfact>
</mgrwt>
</event>
<event>
 5    1  0.4710515E-007  0.2000167E+02  0.7818608E-02  0.1745295E+00
         -4   -1    0    0    0  501 -0.00000000000E+00  0.00000000000E+00  0.40125860327E+00  0.14756044411E+01  0.14200000000E+01 0.  1.
          4   -1    0    0  501    0  0.00000000000E+00 -0.00000000000E+00 -0.10549676573E+03  0.10550632199E+03  0.14200000000E+01 0. -1.
       1023    2    1    2    0    0  0.00000000000E+00  0.00000000000E+00 -0.10509550713E+03  0.10698192643E+03  0.20001674038E+02 0.  0.
        -13    1    3    3    0    0  0.62187941524E+01  0.78312498907E+01 -0.52222714482E+02  0.53171655569E+02  0.10570000000E+00 0. -1.
         13    1    3    3    0    0 -0.62187941524E+01 -0.78312498907E+01 -0.52872792647E+02  0.53810270863E+02  0.10570000000E+00 0.  1.
<mgrwt>
<rscale>  0 0.20001674E+02</rscale>
<asrwt>0</asrwt>
<pdfrwt beam="2">  1        4 0.16313639E-01 0.20001674E+02</pdfrwt>
<pdfrwt beam="1">  1       -4 0.14510926E-03 0.20001674E+02</pdfrwt>
<totfact> 0.96051838E+05</totfact>
</mgrwt>
</event>
<event>
 5    1  0.4710515E-007  0.2000133E+02  0.7818608E-02  0.1745302E+00
          4   -1    0    0  501    0  0.00000000000E+00  0.00000000000E+00  0.21372526784E+00  0.14359939032E+01  0.14200000000E+01 0. -1.
         -4   -1    0    0    0  501 -0.00000000000E+00 -0.00000000000E+00 -0.12001925589E+03  0.12002765592E+03  0.14200000000E+01 0.  1.
       1023    2    1    2    0    0  0.00000000000E+00  0.00000000000E+00 -0.11980553062E+03  0.12146364982E+03  0.20001326442E+02 0.  0.
        -13    1    3    3    0    0  0.76424268993E+01  0.64494492187E+01 -0.59885336381E+02  0.60714633904E+02  0.10570000000E+00 0. -1.
         13    1    3    3    0    0 -0.76424268993E+01 -0.64494492187E+01 -0.59920194242E+02  0.60749015915E+02  0.10570000000E+00 0.  1.
<mgrwt>
<rscale>  0 0.20001326E+02</rscale>
<asrwt>0</asrwt>
<pdfrwt beam="1">  1        4 0.12754773E-03 0.20001326E+02</pdfrwt>
<pdfrwt beam="2">  1       -4 0.18559154E-01 0.20001326E+02</pdfrwt>
<totfact> 0.92278969E+05</totfact>
</mgrwt>
</event>
<event>
 4    1  0.4710515E-007  0.2006496E+02  0.7818608E-02  0.1744039E+00
         -4   -1    0    0    0  501 -0.00000000000E+00  0.00000000000E+00  0.22505360661E+01  0.26610735775E+01  0.14200000000E+01 0. -1.
          4   -1    0    0  501    0  0.00000000000E+00 -0.00000000000E+00 -0.40560794989E+02  0.40585643892E+02  0.14200000000E+01 0.  1.
        -13    1    1    2    0    0  0.92265776596E+00  0.99592588929E+01 -0.20826523207E+02  0.23103968845E+02  0.10570000000E+00 0.  1.
         13    1    1    2    0    0 -0.92265776596E+00 -0.99592588929E+01 -0.17483735716E+02  0.20142748624E+02  0.10570000000E+00 0. -1.
<mgrwt>
<rscale>  0 0.20064960E+02</rscale>
<asrwt>0</asrwt>
<pdfrwt beam="2">  1        4 0.62736131E-02 0.20064960E+02</pdfrwt>
<pdfrwt beam="1">  1       -4 0.37972761E-03 0.20064960E+02</pdfrwt>
<totfact> 0.11736807E+06</totfact>
</mgrwt>
</event>
<event>
 5    1  0.4710515E-007  0.2000723E+02  0.7818608E-02  0.1745184E+00
          4   -1    0    0  501    0  0.00000000000E+00  0.00000000000E+00  0.40067025854E+02  0.40092180794E+02  0.14200000000E+01 0. -1.
         -4   -1    0    0    0  501 -0.00000000000E+00 -0.00000000000E+00 -0.22676642203E+01  0.26755748944E+01  0.14200000000E+01 0.  1.
       1023    2    1    2    0    0  0.00000000000E+00  0.00000000000E+00  0.37799361634E+02  0.42767755689E+02  0.20007228361E+02 0.  0.
        -13    1    3    3    0    0  0.91422655568E+01  0.40574759894E+01  0.18621025124E+02  0.21137593999E+02  0.10570000000E+00 0.  1.
         13    1    3    3    0    0 -0.91422655568E+01 -0.40574759894E+01  0.19178336511E+02  0.21630161690E+02  0.10570000000E+00 0. -1.
<mgrwt>
<rscale>  0 0.20007228E+02</rscale>
<asrwt>0</asrwt>
<pdfrwt beam="1">  1        4 0.61974704E-02 0.20007228E+02</pdfrwt>
<pdfrwt beam="2">  1       -4 0.38218417E-03 0.20007228E+02</pdfrwt>
<totfact> 0.11827020E+06</totfact>
</mgrwt>
</event>
<event>
 4    1  0.4710515E-007  0.2225404E+02  0.7818608E-02  0.1703895E+00
          4   -1    0    0  501    0  0.00000000000E+00  0.00000000000E+00  0.95755142132E+01  0.96802310121E+01  0.14200000000E+01 0.  1.
         -4   -1    0    0    0  501 -0.00000000000E+00 -0.00000000000E+00 -0.12715144051E+02  0.12794189628E+02  0.14200000000E+01 0. -1.
        -13    1    1    2    0    0 -0.44179241335E+01 -0.10206880872E+02 -0.12489682230E+01  0.11192388704E+02  0.10570000000E+00 0. -1.
         13    1    1    2    0    0  0.44179241335E+01  0.10206880872E+02 -0.18906616149E+01  0.11282031937E+02  0.10570000000E+00 0.  1.
<mgrwt>
<rscale>  0 0.22254040E+02</rscale>
<asrwt>0</asrwt>
<pdfrwt beam="1">  1        4 0.14872916E-02 0.22254040E+02</pdfrwt>
<pdfrwt beam="2">  1       -4 0.19703116E-02 0.22254040E+02</pdfrwt>
<totfact> 0.10308245E+06</totfact>
</mgrwt>
</event>
<event>
 5    1  0.4847914E-007  0.2000271E+02  0.7818608E-02  0.1745274E+00
          4   -1    0    0  501    0  0.00000000000E+00  0.00000000000E+00  0.26543244984E+02  0.26581201144E+02  0.14200000000E+01 0.  1.
         -4   -1    0    0    0  501 -0.00000000000E+00 -0.00000000000E+00 -0.35924808117E+01  0.38629416747E+01  0.14200000000E+01 0. -1.
       1023    2    1    2    0    0  0.00000000000E+00  0.00000000000E+00  0.22950764172E+02  0.30444142819E+02  0.20002706214E+02 0.  0.
        -13    1    3    3    0    0 -0.84164638937E+01 -0.54006880208E+01  0.11639277740E+02  0.15345626555E+02  0.10570000000E+00 0.  1.
         13    1    3    3    0    0  0.84164638937E+01  0.54006880208E+01  0.11311486432E+02  0.15098516264E+02  0.10570000000E+00 0. -1.
<mgrwt>
<rscale>  0 0.20002706E+02</rscale>
<asrwt>0</asrwt>
<pdfrwt beam="1">  1        4 0.41073005E-02 0.20002706E+02</pdfrwt>
<pdfrwt beam="2">  1       -4 0.57641375E-03 0.20002706E+02</pdfrwt>
<totfact> 0.12429190E+06</totfact>
</mgrwt>
</event>
<event>
 5    1  0.4883485E-007  0.2000187E+02  0.7818608E-02  0.1745291E+00
         -4   -1    0    0    0  501 -0.00000000000E+00  0.00000000000E+00  0.45408676955E+01  0.47577178802E+01  0.14200000000E+01 0.  1.
          4   -1    0    0  501    0  0.00000000000E+00 -0.00000000000E+00 -0.21271599090E+02  0.21318942935E+02  0.14200000000E+01 0.  1.
       1023    2    1    2    0    0  0.00000000000E+00  0.00000000000E+00 -0.16730731395E+02  0.26076660815E+02  0.20001871569E+02 0.  0.
        -13    1    3    3    0    0  0.99052686882E+01  0.13746904398E+01 -0.82890960060E+01  0.12989395932E+02  0.10570000000E+00 0.  1.
         13    1    3    3    0    0 -0.99052686882E+01 -0.13746904398E+01 -0.84416353889E+01  0.13087264883E+02  0.10570000000E+00 0. -1.
<mgrwt>
<rscale>  0 0.20001872E+02</rscale>
<asrwt>0</asrwt>
<pdfrwt beam="2">  1        4 0.32928763E-02 0.20001872E+02</pdfrwt>
<pdfrwt beam="1">  1       -4 0.71891766E-03 0.20001872E+02</pdfrwt>
<totfact> 0.12663538E+06</totfact>
</mgrwt>
</event>
<event>
 5    1  0.4710515E-007  0.2000141E+02  0.7818608E-02  0.1745300E+00
          4   -1    0    0  501    0  0.00000000000E+00  0.00000000000E+00  0.15265193658E+01  0.20848648336E+01  0.14200000000E+01 0.  1.
         -4   -1    0    0    0  501 -0.00000000000E+00 -0.00000000000E+00 -0.54819267307E+02  0.54837655567E+02  0.14200000000E+01 0. -1.
       1023    2    1    2    0    0  0.00000000000E+00  0.00000000000E+00 -0.53292747941E+02  0.56922520400E+02  0.20001408591E+02 0.  0.
        -13    1    3    3    0    0 -0.75545886153E+00 -0.99715661585E+01 -0.26623576231E+02  0.28439916202E+02  0.10570000000E+00 0.  1.
         13    1    3    3    0    0  0.75545886153E+00  0.99715661585E+01 -0.26669171709E+02  0.28482604198E+02  0.10570000000E+00 0. -1.
<mgrwt>
<rscale>  0 0.20001409E+02</rscale>
<asrwt>0</asrwt>
<pdfrwt beam="1">  1        4 0.27921331E-03 0.20001409E+02</pdfrwt>
<pdfrwt beam="2">  1       -4 0.84780963E-02 0.20001409E+02</pdfrwt>
<totfact> 0.11236895E+06</totfact>
</mgrwt>
</event>
<event>
 5    1  0.5109010E-007  0.2000131E+02  0.7818608E-02  0.1745302E+00
         -4   -1    0    0    0  501 -0.00000000000E+00  0.00000000000E+00  0.12609093229E+02  0.12688799473E+02  0.14200000000E+01 0.  1.
          4   -1    0    0  501    0  0.00000000000E+00 -0.00000000000E+00 -0.77625203100E+01  0.78913320525E+01  0.14200000000E+01 0. -1.
       1023    2    1    2    0    0  0.00000000000E+00  0.00000000000E+00  0.48465729192E+01  0.20580131525E+02  0.20001313570E+02 0.  0.
        -13    1    3    3    0    0 -0.74189282870E+01 -0.67053093575E+01  0.24409032018E+01  0.10294214464E+02  0.10570000000E+00 0. -1.
         13    1    3    3    0    0  0.74189282870E+01  0.67053093575E+01  0.24056697174E+01  0.10285917061E+02  0.10570000000E+00 0.  1.
<mgrwt>
<rscale>  0 0.20001314E+02</rscale>
<asrwt>0</asrwt>
<pdfrwt beam="2">  1        4 0.12102737E-02 0.20001314E+02</pdfrwt>
<pdfrwt beam="1">  1       -4 0.19559003E-02 0.20001314E+02</pdfrwt>
<totfact> 0.12977841E+06</totfact>
</mgrwt>
</event>
<event>
 5    1  0.4710515E-007  0.2000402E+02  0.7818608E-02  0.1745248E+00
         -4   -1    0    0    0  501 -0.00000000000E+00  0.00000000000E+00  0.27695863040E+02  0.27732241697E+02  0.14200000000E+01 0.  1.
          4   -1    0    0  501    0  0.00000000000E+00 -0.00000000000E+00 -0.34321822503E+01  0.37143337221E+01  0.14200000000E+01 0. -1.
       1023    2    1    2    0    0  0.00000000000E+00  0.00000000000E+00  0.24263680790E+02  0.31446575419E+02  0.20004022098E+02 0.  0.
        -13    1    3    3    0    0 -0.71348513582E+01 -0.70087134614E+01  0.12085094469E+02  0.15687219292E+02  0.10570000000E+00 0.  1.
         13    1    3    3    0    0  0.71348513582E+01  0.70087134614E+01  0.12178586321E+02  0.15759356127E+02  0.10570000000E+00 0. -1.
<mgrwt>
<rscale>  0 0.20004022E+02</rscale>
<asrwt>0</asrwt>
<pdfrwt beam="2">  1        4 0.55253036E-03 0.20004022E+02</pdfrwt>
<pdfrwt beam="1">  1       -4 0.42854043E-02 0.20004022E+02</pdfrwt>
<totfact> 0.12375770E+06</totfact>
</mgrwt>
</event>
<event>
 4    1  0.4710515E-007  0.2006124E+02  0.7818608E-02  0.1744113E+00
         -4   -1    0    0    0  501 -0.00000000000E+00  0.00000000000E+00  0.14202271419E+02  0.14273083530E+02  0.14200000000E+01 0.  1.
          4   -1    0    0  501    0  0.00000000000E+00 -0.00000000000E+00 -0.69236493753E+01  0.70677663142E+01  0.14200000000E+01 0. -1.
        -13    1    1    2    0    0 -0.73423816260E+01 -0.68275682654E+01  0.39324884058E+01  0.10770417537E+02  0.10570000000E+00 0.  1.
         13    1    1    2    0    0  0.73423816260E+01  0.68275682654E+01  0.33461336380E+01  0.10570432308E+02  0.10570000000E+00 0. -1.
<mgrwt>
<rscale>  0 0.20061245E+02</rscale>
<asrwt>0</asrwt>
<pdfrwt beam="2">  1        4 0.10817098E-02 0.20061245E+02</pdfrwt>
<pdfrwt beam="1">  1       -4 0.22014978E-02 0.20061245E+02</pdfrwt>
<totfact> 0.12854232E+06</totfact>
</mgrwt>
</event>
<event>
 5    1  0.4710515E-007  0.2000458E+02  0.7818608E-02  0.1745237E+00
         -4   -1    0    0    0  501 -0.00000000000E+00  0.00000000000E+00  0.11025055074E+02  0.11116125197E+02  0.14200000000E+01 0.  1.
          4   -1    0    0  501    0  0.00000000000E+00 -0.00000000000E+00 -0.88894231986E+01  0.90021244606E+01  0.14200000000E+01 0. -1.
       1023    2    1    2    0    0  0.00000000000E+00  0.00000000000E+00  0.21356318756E+01  0.20118249657E+02  0.20004575621E+02 0.  0.
        -13    1    3    3    0    0  0.70620733609E+01 -0.70805344907E+01  0.12353160273E+01  0.10076905627E+02  0.10570000000E+00 0.  1.
         13    1    3    3    0    0 -0.70620733609E+01  0.70805344907E+01  0.90031584826E+00  0.10041344031E+02  0.10570000000E+00 0. -1.
<mgrwt>
<rscale>  0 0.20004576E+02</rscale>
<asrwt>0</asrwt>
<pdfrwt beam="2">  1        4 0.13832783E-02 0.20004576E+02</pdfrwt>
<pdfrwt beam="1">  1       -4 0.17118371E-02 0.20004576E+02</pdfrwt>
<totfact> 0.13000955E+06</totfact>
</mgrwt>
</event>
<event>
 5    1  0.4710515E-007  0.2000613E+02  0.7818608E-02  0.1745206E+00
          4   -1    0    0  501    0  0.00000000000E+00  0.00000000000E+00  0.41623709761E+01  0.43979236172E+01  0.14200000000E+01 0.  1.
         -4   -1    0    0    0  501 -0.00000000000E+00 -0.00000000000E+00 -0.23120076355E+02  0.23163642430E+02  0.14200000000E+01 0. -1.
       1023    2    1    2    0    0  0.00000000000E+00  0.00000000000E+00 -0.18957705378E+02  0.27561566048E+02  0.20006132304E+02 0.  0.
        -13    1    3    3    0    0 -0.37372626169E+00 -0.99938827793E+01 -0.92293652237E+01  0.13609177758E+02  0.10570000000E+00 0.  1.
         13    1    3    3    0    0  0.37372626169E+00  0.99938827793E+01 -0.97283401548E+01  0.13952388290E+02  0.10570000000E+00 0. -1.
<mgrwt>
<rscale>  0 0.20006132E+02</rscale>
<asrwt>0</asrwt>
<pdfrwt beam="1">  1        4 0.66183545E-03 0.20006132E+02</pdfrwt>
<pdfrwt beam="2">  1       -4 0.35784054E-02 0.20006132E+02</pdfrwt>
<totfact> 0.12577270E+06</totfact>
</mgrwt>
</event>
<event>
 5    1  0.4710515E-007  0.2000857E+02  0.7818608E-02  0.1745158E+00
         -4   -1    0    0    0  501 -0.00000000000E+00  0.00000000000E+00  0.19008840626E+02  0.19061805317E+02  0.14200000000E+01 0.  1.
          4   -1    0    0  501    0  0.00000000000E+00 -0.00000000000E+00 -0.51079437416E+01  0.53016496741E+01  0.14200000000E+01 0. -1.
       1023    2    1    2    0    0  0.00000000000E+00  0.00000000000E+00  0.13900896884E+02  0.24363454991E+02  0.20008573285E+02 0.  0.
        -13    1    3    3    0    0  0.40169594309E+01  0.91584476924E+01  0.66485998744E+01  0.12009503736E+02  0.10570000000E+00 0.  1.
         13    1    3    3    0    0 -0.40169594309E+01 -0.91584476924E+01  0.72522970100E+01  0.12353951255E+02  0.10570000000E+00 0. -1.
<mgrwt>
<rscale>  0 0.20008573E+02</rscale>
<asrwt>0</asrwt>
<pdfrwt beam="2">  1        4 0.80481217E-03 0.20008573E+02</pdfrwt>
<pdfrwt beam="1">  1       -4 0.29434116E-02 0.20008573E+02</pdfrwt>
<totfact> 0.12750146E+06</totfact>
</mgrwt>
</event>
<event>
 5    1  0.4710515E-007  0.2000594E+02  0.7818608E-02  0.1745210E+00
         -4   -1    0    0    0  501 -0.00000000000E+00  0.00000000000E+00  0.23860293127E+01  0.27766051000E+01  0.14200000000E+01 0.  1.
          4   -1    0    0  501    0  0.00000000000E+00 -0.00000000000E+00 -0.38358218436E+02  0.38384493243E+02  0.14200000000E+01 0. -1.
       1023    2    1    2    0    0  0.00000000000E+00  0.00000000000E+00 -0.35972189123E+02  0.41161098343E+02  0.20005939782E+02 0.  0.
        -13    1    3    3    0    0 -0.52128448508E+01 -0.85358101236E+01 -0.18233229809E+02  0.20796529702E+02  0.10570000000E+00 0.  1.
         13    1    3    3    0    0  0.52128448508E+01  0.85358101236E+01 -0.17738959314E+02  0.20364568641E+02  0.10570000000E+00 0. -1.
<mgrwt>
<rscale>  0 0.20005940E+02</rscale>
<asrwt>0</asrwt>
<pdfrwt beam="2">  1        4 0.59333294E-02 0.20005940E+02</pdfrwt>
<pdfrwt beam="1">  1       -4 0.39914689E-03 0.20005940E+02</pdfrwt>
<totfact> 0.11901754E+06</totfact>
</mgrwt>
</event>
<event>
 5    1  0.4720606E-007  0.2000349E+02  0.7818608E-02  0.1745259E+00
          4   -1    0    0  501    0  0.00000000000E+00  0.00000000000E+00  0.13426207104E+02  0.13501090223E+02  0.14200000000E+01 0. -1.
         -4   -1    0    0    0  501 -0.00000000000E+00 -0.00000000000E+00 -0.72863830884E+01  0.74234613565E+01  0.14200000000E+01 0.  1.
       1023    2    1    2    0    0  0.00000000000E+00  0.00000000000E+00  0.61398240159E+01  0.20924551579E+02  0.20003485193E+02 0.  0.
        -13    1    3    3    0    0  0.97435856966E+01 -0.22525415696E+01  0.31858142152E+01  0.10496284602E+02  0.10570000000E+00 0. -1.
         13    1    3    3    0    0 -0.97435856966E+01  0.22525415696E+01  0.29540098007E+01  0.10428266977E+02  0.10570000000E+00 0.  1.
<mgrwt>
<rscale>  0 0.20003485E+02</rscale>
<asrwt>0</asrwt>
<pdfrwt beam="1">  1        4 0.20818750E-02 0.20003485E+02</pdfrwt>
<pdfrwt beam="2">  1       -4 0.11372867E-02 0.20003485E+02</pdfrwt>
<totfact> 0.12954600E+06</totfact>
</mgrwt>
</event>
<event>
 5    1  0.4710515E-007  0.2000430E+02  0.7818608E-02  0.1745243E+00
         -4   -1    0    0    0  501 -0.00000000000E+00  0.00000000000E+00  0.25018536961E+00  0.14418712561E+01  0.14200000000E+01 0.  1.
          4   -1    0    0  501    0  0.00000000000E+00 -0.00000000000E+00 -0.11705112173E+03  0.11705973475E+03  0.14200000000E+01 0. -1.
       1023    2    1    2    0    0  0.00000000000E+00  0.00000000000E+00 -0.11680093636E+03  0.11850160600E+03  0.20004296785E+02 0.  0.
        -13    1    3    3    0    0 -0.77910393802E+01 -0.62713968710E+01 -0.58205194472E+02  0.59058331753E+02  0.10570000000E+00 0.  1.
         13    1    3    3    0    0  0.77910393802E+01  0.62713968710E+01 -0.58595741892E+02  0.59443274251E+02  0.10570000000E+00 0. -1.
<mgrwt>
<rscale>  0 0.20004297E+02</rscale>
<asrwt>0</asrwt>
<pdfrwt beam="2">  1        4 0.18100183E-01 0.20004297E+02</pdfrwt>
<pdfrwt beam="1">  1       -4 0.13082083E-03 0.20004297E+02</pdfrwt>
<totfact> 0.92997359E+05</totfact>
</mgrwt>
</event>
<event>
 5    1  0.4710515E-007  0.2000292E+02  0.7818608E-02  0.1745270E+00
          4   -1    0    0  501    0  0.00000000000E+00  0.00000000000E+00  0.31468982331E+02  0.31501003936E+02  0.14200000000E+01 0. -1.
         -4   -1    0    0    0  501 -0.00000000000E+00 -0.00000000000E+00 -0.29846522419E+01  0.33052305525E+01  0.14200000000E+01 0.  1.
       1023    2    1    2    0    0  0.00000000000E+00  0.00000000000E+00  0.28484330089E+02  0.34806234488E+02  0.20002922252E+02 0.  0.
        -13    1    3    3    0    0 -0.12549789756E+01  0.99218409133E+01  0.14263676186E+02  0.17420721288E+02  0.10570000000E+00 0. -1.
         13    1    3    3    0    0  0.12549789756E+01 -0.99218409133E+01  0.14220653903E+02  0.17385513201E+02  0.10570000000E+00 0.  1.
<mgrwt>
<rscale>  0 0.20002922E+02</rscale>
<asrwt>0</asrwt>
<pdfrwt beam="1">  1        4 0.48685051E-02 0.20002922E+02</pdfrwt>
<pdfrwt beam="2">  1       -4 0.48630032E-03 0.20002922E+02</pdfrwt>
<totfact> 0.12207928E+06</totfact>
</mgrwt>
</event>
<event>
 5    1  0.4710515E-007  0.2000449E+02  0.7818608E-02  0.1745239E+00
         -4   -1    0    0    0  501 -0.00000000000E+00  0.00000000000E+00  0.22456206536E+01  0.26569177856E+01  0.14200000000E+01 0. -1.
          4   -1    0    0  501    0  0.00000000000E+00 -0.00000000000E+00 -0.40388698932E+02  0.40413653650E+02  0.14200000000E+01 0.  1.
       1023    2    1    2    0    0  0.00000000000E+00  0.00000000000E+00 -0.38143078278E+02  0.43070571436E+02  0.20004492078E+02 0.  0.
        -13    1    3    3    0    0 -0.17441129120E+01 -0.98478625742E+01 -0.19301685528E+02  0.21739102186E+02  0.10570000000E+00 0. -1.
         13    1    3    3    0    0  0.17441129120E+01  0.98478625742E+01 -0.18841392750E+02  0.21331469250E+02  0.10570000000E+00 0.  1.
<mgrwt>
<rscale>  0 0.20004492E+02</rscale>
<asrwt>0</asrwt>
<pdfrwt beam="2">  1        4 0.62472034E-02 0.20004492E+02</pdfrwt>
<pdfrwt beam="1">  1       -4 0.37903796E-03 0.20004492E+02</pdfrwt>
<totfact> 0.11816615E+06</totfact>
</mgrwt>
</event>
<event>
 5    1  0.4710515E-007  0.2000401E+02  0.7818608E-02  0.1745248E+00
          4   -1    0    0  501    0  0.00000000000E+00  0.00000000000E+00  0.46910248723E+01  0.49012360025E+01  0.14200000000E+01 0.  1.
         -4   -1    0    0    0  501 -0.00000000000E+00 -0.00000000000E+00 -0.20623340470E+02  0.20672169024E+02  0.14200000000E+01 0. -1.
       1023    2    1    2    0    0  0.00000000000E+00  0.00000000000E+00 -0.15932315598E+02  0.25573405026E+02  0.20004008707E+02 0.  0.
        -13    1    3    3    0    0  0.69392580387E+01  0.72023427264E+01 -0.79107902726E+01  0.12752208362E+02  0.10570000000E+00 0. -1.
         13    1    3    3    0    0 -0.69392580387E+01 -0.72023427264E+01 -0.80215253252E+01  0.12821196664E+02  0.10570000000E+00 0.  1.
<mgrwt>
<rscale>  0 0.20004009E+02</rscale>
<asrwt>0</asrwt>
<pdfrwt beam="1">  1        4 0.74162227E-03 0.20004009E+02</pdfrwt>
<pdfrwt beam="2">  1       -4 0.31927477E-02 0.20004009E+02</pdfrwt>
<totfact> 0.12688541E+06</totfact>
</mgrwt>
</event>
<event>
 4    1  0.4710515E-007  0.2001789E+02  0.7818608E-02  0.1744973E+00
         -4   -1    0    0    0  501 -0.00000000000E+00  0.00000000000E+00  0.12919473745E+02  0.12997276709E+02  0.14200000000E+01 0. -1.
          4   -1    0    0  501    0  0.00000000000E+00 -0.00000000000E+00 -0.75869534189E+01  0.77186956269E+01  0.14200000000E+01 0.  1.
        -13    1    1    2    0    0  0.43761107992E+01 -0.90005591900E+01  0.25775367596E+01  0.10335147783E+02  0.10570000000E+00 0.  1.
         13    1    1    2    0    0 -0.43761107992E+01  0.90005591900E+01  0.27549835670E+01  0.10380824553E+02  0.10570000000E+00 0. -1.
<mgrwt>
<rscale>  0 0.20017885E+02</rscale>
<asrwt>0</asrwt>
<pdfrwt beam="2">  1        4 0.11833425E-02 0.20017885E+02</pdfrwt>
<pdfrwt beam="1">  1       -4 0.20037302E-02 0.20017885E+02</pdfrwt>
<totfact> 0.12947914E+06</totfact>
</mgrwt>
</event>
<event>
 4    1  0.4710515E-007  0.2001795E+02  0.7818608E-02  0.1744971E+00
         -4   -1    0    0    0  501 -0.00000000000E+00  0.00000000000E+00  0.37715468098E+02  0.37742190370E+02  0.14200000000E+01 0. -1.
          4   -1    0    0  501    0  0.00000000000E+00 -0.00000000000E+00 -0.24366777875E+01  0.28202479749E+01  0.14200000000E+01 0.  1.
        -13    1    1    2    0    0 -0.93294601405E+01  0.36087922274E+01  0.18299762727E+02  0.20855567512E+02  0.10570000000E+00 0.  1.
         13    1    1    2    0    0  0.93294601405E+01 -0.36087922274E+01  0.16979027583E+02  0.19706870833E+02  0.10570000000E+00 0. -1.
<mgrwt>
<rscale>  0 0.20017951E+02</rscale>
<asrwt>0</asrwt>
<pdfrwt beam="2">  1        4 0.40643450E-03 0.20017951E+02</pdfrwt>
<pdfrwt beam="1">  1       -4 0.58339401E-02 0.20017951E+02</pdfrwt>
<totfact> 0.11914857E+06</totfact>
</mgrwt>
</event>
<event>
 5    1  0.4710515E-007  0.2000546E+02  0.7818608E-02  0.1745219E+00
         -4   -1    0    0    0  501 -0.00000000000E+00  0.00000000000E+00  0.27324677654E+00  0.14460511059E+01  0.14200000000E+01 0.  1.
          4   -1    0    0  501    0  0.00000000000E+00 -0.00000000000E+00 -0.11520995263E+03  0.11521870328E+03  0.14200000000E+01 0. -1.
       1023    2    1    2    0    0  0.00000000000E+00  0.00000000000E+00 -0.11493670585E+03  0.11666475438E+03  0.20005463328E+02 0.  0.
        -13    1    3    3    0    0 -0.94401092556E+01  0.33034564925E+01 -0.56754585061E+02  0.57629181718E+02  0.10570000000E+00 0.  1.
         13    1    3    3    0    0  0.94401092556E+01 -0.33034564925E+01 -0.58182120791E+02  0.59035572664E+02  0.10570000000E+00 0. -1.
<mgrwt>
<rscale>  0 0.20005463E+02</rscale>
<asrwt>0</asrwt>
<pdfrwt beam="2">  1        4 0.17815485E-01 0.20005463E+02</pdfrwt>
<pdfrwt beam="1">  1       -4 0.13292690E-03 0.20005463E+02</pdfrwt>
<totfact> 0.93455502E+05</totfact>
</mgrwt>
</event>
<event>
 5    1  0.4710515E-007  0.2000805E+02  0.7818608E-02  0.1745168E+00
         -4   -1    0    0    0  501 -0.00000000000E+00  0.00000000000E+00  0.19763871268E+01  0.24336199529E+01  0.14200000000E+01 0. -1.
          4   -1    0    0  501    0  0.00000000000E+00 -0.00000000000E+00 -0.44918309502E+02  0.44940749087E+02  0.14200000000E+01 0.  1.
       1023    2    1    2    0    0  0.00000000000E+00  0.00000000000E+00 -0.42941922375E+02  0.47374369040E+02  0.20008051996E+02 0.  0.
        -13    1    3    3    0    0 -0.72666622106E+01  0.68723215056E+01 -0.21020580636E+02  0.23278942531E+02  0.10570000000E+00 0.  1.
         13    1    3    3    0    0  0.72666622106E+01 -0.68723215056E+01 -0.21921341739E+02  0.24095426510E+02  0.10570000000E+00 0. -1.
<mgrwt>
<rscale>  0 0.20008052E+02</rscale>
<asrwt>0</asrwt>
<pdfrwt beam="2">  1        4 0.69474063E-02 0.20008052E+02</pdfrwt>
<pdfrwt beam="1">  1       -4 0.34095747E-03 0.20008052E+02</pdfrwt>
<totfact> 0.11622630E+06</totfact>
</mgrwt>
</event>
<event>
 5    1  0.4710515E-007  0.2000857E+02  0.7818608E-02  0.1745158E+00
          4   -1    0    0  501    0  0.00000000000E+00  0.00000000000E+00  0.98110979114E+02  0.98121254694E+02  0.14200000000E+01 0.  1.
         -4   -1    0    0    0  501 -0.00000000000E+00 -0.00000000000E+00 -0.51055125343E+00  0.15089938974E+01  0.14200000000E+01 0. -1.
       1023    2    1    2    0    0  0.00000000000E+00  0.00000000000E+00  0.97600427861E+02  0.99630248591E+02  0.20008571058E+02 0.  0.
        -13    1    3    3    0    0 -0.94611632538E+01  0.32454622262E+01  0.49632251275E+02  0.50630210095E+02  0.10570000000E+00 0. -1.
         13    1    3    3    0    0  0.94611632538E+01 -0.32454622262E+01  0.47968176586E+02  0.49000038496E+02  0.10570000000E+00 0.  1.
<mgrwt>
<rscale>  0 0.20008571E+02</rscale>
<asrwt>0</asrwt>
<pdfrwt beam="1">  1        4 0.15171588E-01 0.20008571E+02</pdfrwt>
<pdfrwt beam="2">  1       -4 0.15614008E-03 0.20008571E+02</pdfrwt>
<totfact> 0.98034062E+05</totfact>
</mgrwt>
</event>
<event>
 5    1  0.4710515E-007  0.2000868E+02  0.7818608E-02  0.1745156E+00
          4   -1    0    0  501    0  0.00000000000E+00  0.00000000000E+00  0.82549588502E+02  0.82561800863E+02  0.14200000000E+01 0.  1.
         -4   -1    0    0    0  501 -0.00000000000E+00 -0.00000000000E+00 -0.78006703193E+00  0.16201557253E+01  0.14200000000E+01 0. -1.
       1023    2    1    2    0    0  0.00000000000E+00  0.00000000000E+00  0.81769521470E+02  0.84181956589E+02  0.20008677460E+02 0.  0.
        -13    1    3    3    0    0  0.92912041725E+01  0.36985170820E+01  0.41998833085E+02  0.43173124239E+02  0.10570000000E+00 0.  1.
         13    1    3    3    0    0 -0.92912041725E+01 -0.36985170820E+01  0.39770688385E+02  0.41008832350E+02  0.10570000000E+00 0. -1.
<mgrwt>
<rscale>  0 0.20008677E+02</rscale>
<asrwt>0</asrwt>
<pdfrwt beam="1">  1        4 0.12765500E-01 0.20008677E+02</pdfrwt>
<pdfrwt beam="2">  1       -4 0.18557190E-03 0.20008677E+02</pdfrwt>
<totfact> 0.10267639E+06</totfact>
</mgrwt>
</event>
<event>
 5    1  0.5143438E-007  0.2000215E+02  0.7818608E-02  0.1745285E+00
         -4   -1    0    0    0  501 -0.00000000000E+00  0.00000000000E+00  0.68021833405E+01  0.69488199140E+01  0.14200000000E+01 0.  1.
          4   -1    0    0  501    0  0.00000000000E+00 -0.00000000000E+00 -0.14365499681E+02  0.14435511112E+02  0.14200000000E+01 0. -1.
       1023    2    1    2    0    0  0.00000000000E+00  0.00000000000E+00 -0.75633163403E+01  0.21384331026E+02  0.20002146369E+02 0.  0.
        -13    1    3    3    0    0 -0.87266931285E+01  0.48840319453E+01 -0.38209591825E+01  0.10706065690E+02  0.10570000000E+00 0.  1.
         13    1    3    3    0    0  0.87266931285E+01 -0.48840319453E+01 -0.37423571578E+01  0.10678265336E+02  0.10570000000E+00 0. -1.
<mgrwt>
<rscale>  0 0.20002146E+02</rscale>
<asrwt>0</asrwt>
<pdfrwt beam="2">  1        4 0.22267421E-02 0.20002146E+02</pdfrwt>
<pdfrwt beam="1">  1       -4 0.10631550E-02 0.20002146E+02</pdfrwt>
<totfact> 0.12929310E+06</totfact>
</mgrwt>
</event>
<event>
 5    1  0.4710515E-007  0.2000362E+02  0.7818608E-02  0.1745256E+00
          4   -1    0    0  501    0  0.00000000000E+00  0.00000000000E+00  0.66226145333E+02  0.66241367179E+02  0.14200000000E+01 0. -1.
         -4   -1    0    0    0  501 -0.00000000000E+00 -0.00000000000E+00 -0.11579195242E+01  0.18322602502E+01  0.14200000000E+01 0.  1.
       1023    2    1    2    0    0  0.00000000000E+00  0.00000000000E+00  0.65068225809E+02  0.68073627429E+02  0.20003618208E+02 0.  0.
        -13    1    3    3    0    0 -0.44869929675E+01  0.89372285084E+01  0.32988821035E+02  0.34471446809E+02  0.10570000000E+00 0.  1.
         13    1    3    3    0    0  0.44869929675E+01 -0.89372285084E+01  0.32079404774E+02  0.33602180620E+02  0.10570000000E+00 0. -1.
<mgrwt>
<rscale>  0 0.20003618E+02</rscale>
<asrwt>0</asrwt>
<pdfrwt beam="1">  1        4 0.10241683E-01 0.20003618E+02</pdfrwt>
<pdfrwt beam="2">  1       -4 0.23118469E-03 0.20003618E+02</pdfrwt>
<totfact> 0.10815410E+06</totfact>
</mgrwt>
</event>
<event>
 4    1  0.4710515E-007  0.2004343E+02  0.7818608E-02  0.1744466E+00
          4   -1    0    0  501    0  0.00000000000E+00  0.00000000000E+00  0.45900609813E+01  0.48046914377E+01  0.14200000000E+01 0.  1.
         -4   -1    0    0    0  501 -0.00000000000E+00 -0.00000000000E+00 -0.21142048978E+02  0.21189682277E+02  0.14200000000E+01 0. -1.
        -13    1    1    2    0    0 -0.84962535337E+01 -0.52776900785E+01 -0.74730863994E+01  0.12485933265E+02  0.10570000000E+00 0.  1.
         13    1    1    2    0    0  0.84962535337E+01  0.52776900785E+01 -0.90789015974E+01  0.13508440450E+02  0.10570000000E+00 0. -1.
<mgrwt>
<rscale>  0 0.20043432E+02</rscale>
<asrwt>0</asrwt>
<pdfrwt beam="1">  1        4 0.72633737E-03 0.20043432E+02</pdfrwt>
<pdfrwt beam="2">  1       -4 0.32727970E-02 0.20043432E+02</pdfrwt>
<totfact> 0.12614640E+06</totfact>
</mgrwt>
</event>
<event>
 4    1  0.4710515E-007  0.2003095E+02  0.7818608E-02  0.1744713E+00
         -4   -1    0    0    0  501 -0.00000000000E+00  0.00000000000E+00  0.55975749592E+02  0.55993758066E+02  0.14200000000E+01 0.  1.
          4   -1    0    0  501    0  0.00000000000E+00 -0.00000000000E+00 -0.14894678212E+01  0.20578907625E+01  0.14200000000E+01 0. -1.
        -13    1    1    2    0    0  0.51870308217E+01  0.85625242014E+01  0.26441694088E+02  0.28273600198E+02  0.10570000000E+00 0.  1.
         13    1    1    2    0    0 -0.51870308217E+01 -0.85625242014E+01  0.28044587683E+02  0.29778048630E+02  0.10570000000E+00 0. -1.
<mgrwt>
<rscale>  0 0.20030952E+02</rscale>
<asrwt>0</asrwt>
<pdfrwt beam="2">  1        4 0.27425904E-03 0.20030952E+02</pdfrwt>
<pdfrwt beam="1">  1       -4 0.86567628E-02 0.20030952E+02</pdfrwt>
<totfact> 0.11159424E+06</totfact>
</mgrwt>
</event>
<event>
 4    1  0.4710515E-007  0.2002913E+02  0.7818608E-02  0.1744749E+00
         -4   -1    0    0    0  501 -0.00000000000E+00  0.00000000000E+00  0.14093519634E+01  0.20006681276E+01  0.14200000000E+01 0. -1.
          4   -1    0    0  501    0  0.00000000000E+00 -0.00000000000E+00 -0.58220174280E+02  0.58237488726E+02  0.14200000000E+01 0.  1.
        -13    1    1    2    0    0 -0.52582912387E+01  0.85219309218E+01 -0.28664064631E+02  0.30363015447E+02  0.10570000000E+00 0.  1.
         13    1    1    2    0    0  0.52582912387E+01 -0.85219309218E+01 -0.28146757685E+02  0.29875141406E+02  0.10570000000E+00 0. -1.
<mgrwt>
<rscale>  0 0.20029129E+02</rscale>
<asrwt>0</asrwt>
<pdfrwt beam="2">  1        4 0.90037661E-02 0.20029129E+02</pdfrwt>
<pdfrwt beam="1">  1       -4 0.26364116E-03 0.20029129E+02</pdfrwt>
<totfact> 0.11077235E+06</totfact>
</mgrwt>
</event>
<event>
 5    1  0.4710515E-007  0.2000819E+02  0.7818608E-02  0.1745165E+00
         -4   -1    0    0    0  501 -0.00000000000E+00  0.00000000000E+00  0.71564298147E+02  0.71578384790E+02  0.14200000000E+01 0. -1.
          4   -1    0    0  501    0  0.00000000000E+00 -0.00000000000E+00 -0.10200560157E+01  0.17484033502E+01  0.14200000000E+01 0.  1.
       1023    2    1    2    0    0  0.00000000000E+00  0.00000000000E+00  0.70544242131E+02  0.73326788141E+02  0.20008192352E+02 0.  0.
        -13    1    3    3    0    0  0.28176997338E+01 -0.95961274865E+01  0.36055344964E+02  0.37416896818E+02  0.10570000000E+00 0. -1.
         13    1    3    3    0    0 -0.28176997338E+01  0.95961274865E+01  0.34488897167E+02  0.35909891322E+02  0.10570000000E+00 0.  1.
<mgrwt>
<rscale>  0 0.20008192E+02</rscale>
<asrwt>0</asrwt>
<pdfrwt beam="2">  1        4 0.21404195E-03 0.20008192E+02</pdfrwt>
<pdfrwt beam="1">  1       -4 0.11067005E-01 0.20008192E+02</pdfrwt>
<totfact> 0.10626161E+06</totfact>
</mgrwt>
</event>
<event>
 5    1  0.4790199E-007  0.2000350E+02  0.7818608E-02  0.1745258E+00
         -4   -1    0    0    0  501 -0.00000000000E+00  0.00000000000E+00  0.21772415813E+02  0.21818672974E+02  0.14200000000E+01 0.  1.
          4   -1    0    0  501    0  0.00000000000E+00 -0.00000000000E+00 -0.44323725559E+01  0.46542804465E+01  0.14200000000E+01 0. -1.
       1023    2    1    2    0    0  0.00000000000E+00  0.00000000000E+00  0.17340043257E+02  0.26472953420E+02  0.20003503759E+02 0.  0.
        -13    1    3    3    0    0 -0.86927291444E+01  0.49448926613E+01  0.87910599849E+01  0.13315758017E+02  0.10570000000E+00 0.  1.
         13    1    3    3    0    0  0.86927291444E+01 -0.49448926613E+01  0.85489832723E+01  0.13157195404E+02  0.10570000000E+00 0. -1.
<mgrwt>
<rscale>  0 0.20003504E+02</rscale>
<asrwt>0</asrwt>
<pdfrwt beam="2">  1        4 0.70253154E-03 0.20003504E+02</pdfrwt>
<pdfrwt beam="1">  1       -4 0.33702306E-02 0.20003504E+02</pdfrwt>
<totfact> 0.12639711E+06</totfact>
</mgrwt>
</event>
<event>
 5    1  0.4710515E-007  0.2000234E+02  0.7818608E-02  0.1745281E+00
          4   -1    0    0  501    0  0.00000000000E+00  0.00000000000E+00  0.25593278721E+01  0.29268684899E+01  0.14200000000E+01 0. -1.
         -4   -1    0    0    0  501 -0.00000000000E+00 -0.00000000000E+00 -0.36081229902E+02  0.36109161597E+02  0.14200000000E+01 0.  1.
       1023    2    1    2    0    0  0.00000000000E+00  0.00000000000E+00 -0.33521902030E+02  0.39036030087E+02  0.20002343094E+02 0.  0.
        -13    1    3    3    0    0 -0.53838375626E+01 -0.84277243824E+01 -0.16753479706E+02  0.19511599112E+02  0.10570000000E+00 0.  1.
         13    1    3    3    0    0  0.53838375626E+01  0.84277243824E+01 -0.16768422324E+02  0.19524430975E+02  0.10570000000E+00 0. -1.
<mgrwt>
<rscale>  0 0.20002343E+02</rscale>
<asrwt>0</asrwt>
<pdfrwt beam="1">  1        4 0.42416372E-03 0.20002343E+02</pdfrwt>
<pdfrwt beam="2">  1       -4 0.55813791E-02 0.20002343E+02</pdfrwt>
<totfact> 0.12004867E+06</totfact>
</mgrwt>
</event>
<event>
 4    1  0.4710515E-007  0.2007496E+02  0.7818608E-02  0.1743842E+00
          4   -1    0    0  501    0  0.00000000000E+00  0.00000000000E+00  0.18454097656E+01  0.23285053581E+01  0.14200000000E+01 0. -1.
         -4   -1    0    0    0  501 -0.00000000000E+00 -0.00000000000E+00 -0.47781611914E+02  0.47802707424E+02  0.14200000000E+01 0.  1.
        -13    1    1    2    0    0  0.70138245115E+01 -0.71433711915E+01 -0.24765909518E+02  0.26712973122E+02  0.10570000000E+00 0.  1.
         13    1    1    2    0    0 -0.70138245115E+01  0.71433711915E+01 -0.21170292630E+02  0.23418239660E+02  0.10570000000E+00 0. -1.
<mgrwt>
<rscale>  0 0.20074955E+02</rscale>
<asrwt>0</asrwt>
<pdfrwt beam="1">  1        4 0.32269316E-03 0.20074955E+02</pdfrwt>
<pdfrwt beam="2">  1       -4 0.73898003E-02 0.20074955E+02</pdfrwt>
<totfact> 0.11428088E+06</totfact>
</mgrwt>
</event>
<event>
 5    1  0.5396084E-007  0.2000157E+02  0.7818608E-02  0.1745297E+00
         -4   -1    0    0    0  501 -0.00000000000E+00  0.00000000000E+00  0.11256766855E+02  0.11345977262E+02  0.14200000000E+01 0.  1.
          4   -1    0    0  501    0  0.00000000000E+00 -0.00000000000E+00 -0.87028881650E+01  0.88179738269E+01  0.14200000000E+01 0. -1.
       1023    2    1    2    0    0  0.00000000000E+00  0.00000000000E+00  0.25538786898E+01  0.20163951089E+02  0.20001565617E+02 0.  0.
        -13    1    3    3    0    0 -0.97468142874E+01 -0.22369680218E+01  0.12685282742E+01  0.10080910235E+02  0.10570000000E+00 0. -1.
         13    1    3    3    0    0  0.97468142874E+01  0.22369680218E+01  0.12853504156E+01  0.10083040854E+02  0.10570000000E+00 0.  1.
<mgrwt>
<rscale>  0 0.20001566E+02</rscale>
<asrwt>0</asrwt>
<pdfrwt beam="2">  1        4 0.13546210E-02 0.20001566E+02</pdfrwt>
<pdfrwt beam="1">  1       -4 0.17475253E-02 0.20001566E+02</pdfrwt>
<totfact> 0.13002217E+06</totfact>
</mgrwt>
</event>
<event>
 5    1  0.4710515E-007  0.2000360E+02  0.7818608E-02  0.1745256E+00
          4   -1    0    0  501    0  0.00000000000E+00  0.00000000000E+00  0.12075072393E+02  0.12158280030E+02  0.14200000000E+01 0.  1.
         -4   -1    0    0    0  501 -0.00000000000E+00 -0.00000000000E+00 -0.81109600497E+01  0.82343228579E+01  0.14200000000E+01 0. -1.
       1023    2    1    2    0    0  0.00000000000E+00  0.00000000000E+00  0.39641123432E+01  0.20392602888E+02  0.20003601323E+02 0.  0.
        -13    1    3    3    0    0  0.81188379822E+01 -0.58401772630E+01  0.20233826085E+01  0.10204334879E+02  0.10570000000E+00 0. -1.
         13    1    3    3    0    0 -0.81188379822E+01  0.58401772630E+01  0.19407297347E+01  0.10188268010E+02  0.10570000000E+00 0.  1.
<mgrwt>
<rscale>  0 0.20003601E+02</rscale>
<asrwt>0</asrwt>
<pdfrwt beam="1">  1        4 0.18735935E-02 0.20003601E+02</pdfrwt>
<pdfrwt beam="2">  1       -4 0.12637300E-02 0.20003601E+02</pdfrwt>
<totfact> 0.12985914E+06</totfact>
</mgrwt>
</event>
<event>
 5    1  0.4710515E-007  0.2000175E+02  0.7818608E-02  0.1745293E+00
          4   -1    0    0  501    0  0.00000000000E+00  0.00000000000E+00  0.21183601256E+01  0.25502646180E+01  0.14200000000E+01 0.  1.
         -4   -1    0    0    0  501 -0.00000000000E+00 -0.00000000000E+00 -0.42401784729E+02  0.42425555367E+02  0.14200000000E+01 0. -1.
       1023    2    1    2    0    0  0.00000000000E+00  0.00000000000E+00 -0.40283424603E+02  0.44975819985E+02  0.20001752062E+02 0.  0.
        -13    1    3    3    0    0  0.89350386813E+01 -0.44909085139E+01 -0.20015042744E+02  0.22374456062E+02  0.10570000000E+00 0. -1.
         13    1    3    3    0    0 -0.89350386813E+01  0.44909085139E+01 -0.20268381859E+02  0.22601363923E+02  0.10570000000E+00 0.  1.
<mgrwt>
<rscale>  0 0.20001752E+02</rscale>
<asrwt>0</asrwt>
<pdfrwt beam="1">  1        4 0.36095352E-03 0.20001752E+02</pdfrwt>
<pdfrwt beam="2">  1       -4 0.65584029E-02 0.20001752E+02</pdfrwt>
<totfact> 0.11734800E+06</totfact>
</mgrwt>
</event>
<event>
 5    1  0.4710515E-007  0.2000157E+02  0.7818608E-02  0.1745297E+00
         -4   -1    0    0    0  501 -0.00000000000E+00  0.00000000000E+00  0.74879721850E+02  0.74893184899E+02  0.14200000000E+01 0. -1.
          4   -1    0    0  501    0  0.00000000000E+00 -0.00000000000E+00 -0.94077003791E+00  0.17033638085E+01  0.14200000000E+01 0.  1.
       1023    2    1    2    0    0  0.00000000000E+00  0.00000000000E+00  0.73938951812E+02  0.76596548708E+02  0.20001566910E+02 0.  0.
        -13    1    3    3    0    0  0.99963012816E+01 -0.27588711470E+00  0.37154890298E+02  0.38477255600E+02  0.10570000000E+00 0. -1.
         13    1    3    3    0    0 -0.99963012816E+01  0.27588711470E+00  0.36784061515E+02  0.38119293108E+02  0.10570000000E+00 0.  1.
<mgrwt>
<rscale>  0 0.20001567E+02</rscale>
<asrwt>0</asrwt>
<pdfrwt beam="2">  1        4 0.20443053E-03 0.20001567E+02</pdfrwt>
<pdfrwt beam="1">  1       -4 0.11579654E-01 0.20001567E+02</pdfrwt>
<totfact> 0.10522189E+06</totfact>
</mgrwt>
</event>
<event>
 5    1  0.4710515E-007  0.2000276E+02  0.7818608E-02  0.1745273E+00
          4   -1    0    0  501    0  0.00000000000E+00  0.00000000000E+00  0.52029862008E+02  0.52049235734E+02  0.14200000000E+01 0.  1.
         -4   -1    0    0    0  501 -0.00000000000E+00 -0.00000000000E+00 -0.16377861952E+01  0.21676585573E+01  0.14200000000E+01 0.  1.
       1023    2    1    2    0    0  0.00000000000E+00  0.00000000000E+00  0.50392075812E+02  0.54216894292E+02  0.20002757859E+02 0.  0.
        -13    1    3    3    0    0  0.60132758001E+01 -0.79909538578E+01  0.25088346844E+02  0.27008353324E+02  0.10570000000E+00 0.  1.
         13    1    3    3    0    0 -0.60132758001E+01  0.79909538578E+01  0.25303728968E+02  0.27208540968E+02  0.10570000000E+00 0. -1.
<mgrwt>
<rscale>  0 0.20002758E+02</rscale>
<asrwt>0</asrwt>
<pdfrwt beam="1">  1        4 0.80468446E-02 0.20002758E+02</pdfrwt>
<pdfrwt beam="2">  1       -4 0.29421678E-03 0.20002758E+02</pdfrwt>
<totfact> 0.11343276E+06</totfact>
</mgrwt>
</event>
<event>
 5    1  0.5061552E-007  0.2000186E+02  0.7818608E-02  0.1745291E+00
         -4   -1    0    0    0  501 -0.00000000000E+00  0.00000000000E+00  0.18423957340E+01  0.23261173747E+01  0.14200000000E+01 0. -1.
          4   -1    0    0  501    0  0.00000000000E+00 -0.00000000000E+00 -0.47492109543E+02  0.47513333590E+02  0.14200000000E+01 0.  1.
       1023    2    1    2    0    0  0.00000000000E+00  0.00000000000E+00 -0.45649713809E+02  0.49839450964E+02  0.20001862454E+02 0.  0.
        -13    1    3    3    0    0  0.21953735851E+01 -0.97564222457E+01 -0.22833737907E+02  0.24927859906E+02  0.10570000000E+00 0.  1.
         13    1    3    3    0    0 -0.21953735851E+01  0.97564222457E+01 -0.22815975902E+02  0.24911591058E+02  0.10570000000E+00 0. -1.
<mgrwt>
<rscale>  0 0.20001862E+02</rscale>
<asrwt>0</asrwt>
<pdfrwt beam="2">  1        4 0.73453196E-02 0.20001862E+02</pdfrwt>
<pdfrwt beam="1">  1       -4 0.32228751E-03 0.20001862E+02</pdfrwt>
<totfact> 0.11524809E+06</totfact>
</mgrwt>
</event>
<event>
 5    1  0.4710515E-007  0.2000222E+02  0.7818608E-02  0.1745284E+00
         -4   -1    0    0    0  501 -0.00000000000E+00  0.00000000000E+00  0.14001041333E+01  0.19941643824E+01  0.14200000000E+01 0.  1.
          4   -1    0    0  501    0  0.00000000000E+00 -0.00000000000E+00 -0.58331743817E+02  0.58349025157E+02  0.14200000000E+01 0. -1.
       1023    2    1    2    0    0  0.00000000000E+00  0.00000000000E+00 -0.56931639684E+02  0.60343189539E+02  0.20002223043E+02 0.  0.
        -13    1    3    3    0    0  0.84269846957E+01 -0.53839885622E+01 -0.28169382826E+02  0.29891917054E+02  0.10570000000E+00 0. -1.
         13    1    3    3    0    0 -0.84269846957E+01  0.53839885622E+01 -0.28762256858E+02  0.30451272485E+02  0.10570000000E+00 0.  1.
<mgrwt>
<rscale>  0 0.20002223E+02</rscale>
<asrwt>0</asrwt>
<pdfrwt beam="2">  1        4 0.90211391E-02 0.20002223E+02</pdfrwt>
<pdfrwt beam="1">  1       -4 0.26242696E-03 0.20002223E+02</pdfrwt>
<totfact> 0.11103215E+06</totfact>
</mgrwt>
</event>
<event>
 5    1  0.4710515E-007  0.2000153E+02  0.7818608E-02  0.1745298E+00
         -4   -1    0    0    0  501 -0.00000000000E+00  0.00000000000E+00  0.28109214670E+01  0.31492347473E+01  0.14200000000E+01 0. -1.
          4   -1    0    0  501    0  0.00000000000E+00 -0.00000000000E+00 -0.33206953131E+02  0.33237300375E+02  0.14200000000E+01 0.  1.
       1023    2    1    2    0    0  0.00000000000E+00  0.00000000000E+00 -0.30396031664E+02  0.36386535123E+02  0.20001529874E+02 0.  0.
        -13    1    3    3    0    0 -0.83380765877E+01 -0.55208067318E+01 -0.15132457241E+02  0.18138502220E+02  0.10570000000E+00 0.  1.
         13    1    3    3    0    0  0.83380765877E+01  0.55208067318E+01 -0.15263574423E+02  0.18248032902E+02  0.10570000000E+00 0. -1.
<mgrwt>
<rscale>  0 0.20001530E+02</rscale>
<asrwt>0</asrwt>
<pdfrwt beam="2">  1        4 0.51371203E-02 0.20001530E+02</pdfrwt>
<pdfrwt beam="1">  1       -4 0.46080798E-03 0.20001530E+02</pdfrwt>
<totfact> 0.12132349E+06</totfact>
</mgrwt>
</event>
<event>
 4    1  0.4710515E-007  0.2005234E+02  0.7818608E-02  0.1744289E+00
         -4   -1    0    0    0  501 -0.00000000000E+00  0.00000000000E+00  0.24151853155E+01  0.28016995036E+01  0.14200000000E+01 0.  1.
          4   -1    0    0  501    0  0.00000000000E+00 -0.00000000000E+00 -0.38137267523E+02  0.38163694450E+02  0.14200000000E+01 0. -1.
        -13    1    1    2    0    0  0.63187790742E+01  0.77640477786E+01 -0.18990219302E+02  0.21467347496E+02  0.10570000000E+00 0.  1.
         13    1    1    2    0    0 -0.63187790742E+01 -0.77640477786E+01 -0.16731862905E+02  0.19498046457E+02  0.10570000000E+00 0. -1.
<mgrwt>
<rscale>  0 0.20052340E+02</rscale>
<asrwt>0</asrwt>
<pdfrwt beam="2">  1        4 0.58990362E-02 0.20052340E+02</pdfrwt>
<pdfrwt beam="1">  1       -4 0.40333170E-03 0.20052340E+02</pdfrwt>
<totfact> 0.11855029E+06</totfact>
</mgrwt>
</event>
<event>
 5    1  0.4710515E-007  0.2000359E+02  0.7818608E-02  0.1745257E+00
          4   -1    0    0  501    0  0.00000000000E+00  0.00000000000E+00  0.48498185310E+00  0.15005357036E+01  0.14200000000E+01 0.  1.
         -4   -1    0    0    0  501 -0.00000000000E+00 -0.00000000000E+00 -0.99742361914E+02  0.99752469444E+02  0.14200000000E+01 0. -1.
       1023    2    1    2    0    0  0.00000000000E+00  0.00000000000E+00 -0.99257380061E+02  0.10125300515E+03  0.20003588550E+02 0.  0.
        -13    1    3    3    0    0 -0.40627496787E+00  0.99919806860E+01 -0.48913230201E+02  0.49925143951E+02  0.10570000000E+00 0.  1.
         13    1    3    3    0    0  0.40627496787E+00 -0.99919806860E+01 -0.50344149860E+02  0.51327861196E+02  0.10570000000E+00 0. -1.
<mgrwt>
<rscale>  0 0.20003589E+02</rscale>
<asrwt>0</asrwt>
<pdfrwt beam="1">  1        4 0.15350970E-03 0.20003589E+02</pdfrwt>
<pdfrwt beam="2">  1       -4 0.15423868E-01 0.20003589E+02</pdfrwt>
<totfact> 0.97622218E+05</totfact>
</mgrwt>
</event>
<event>
 4    1  0.4710515E-007  0.2003444E+02  0.7818608E-02  0.1744644E+00
         -4   -1    0    0    0  501 -0.00000000000E+00  0.00000000000E+00  0.26472765581E+02  0.26510822649E+02  0.14200000000E+01 0.  1.
          4   -1    0    0  501    0  0.00000000000E+00 -0.00000000000E+00 -0.36151692392E+01  0.38840505440E+01  0.14200000000E+01 0. -1.
        -13    1    1    2    0    0  0.10007491827E+02 -0.38049063463E+00  0.11129907180E+02  0.14972664163E+02  0.10570000000E+00 0.  1.
         13    1    1    2    0    0 -0.10007491827E+02  0.38049063463E+00  0.11727689162E+02  0.15422209030E+02  0.10570000000E+00 0. -1.
<mgrwt>
<rscale>  0 0.20034436E+02</rscale>
<asrwt>0</asrwt>
<pdfrwt beam="2">  1        4 0.57979054E-03 0.20034436E+02</pdfrwt>
<pdfrwt beam="1">  1       -4 0.40963437E-02 0.20034436E+02</pdfrwt>
<totfact> 0.12391773E+06</totfact>
</mgrwt>
</event>
<event>
 5    1  0.4710515E-007  0.2000616E+02  0.7818608E-02  0.1745206E+00
          4   -1    0    0  501    0  0.00000000000E+00  0.00000000000E+00  0.44081909104E+00  0.14868495119E+01  0.14200000000E+01 0. -1.
         -4   -1    0    0    0  501 -0.00000000000E+00 -0.00000000000E+00 -0.10276254923E+03  0.10277235973E+03  0.14200000000E+01 0.  1.
       1023    2    1    2    0    0  0.00000000000E+00  0.00000000000E+00 -0.10232173014E+03  0.10425920924E+03  0.20006155375E+02 0.  0.
        -13    1    3    3    0    0  0.59649527491E+01 -0.80292998142E+01 -0.51205671860E+02  0.52173578753E+02  0.10570000000E+00 0. -1.
         13    1    3    3    0    0 -0.59649527491E+01  0.80292998142E+01 -0.51116058277E+02  0.52085630485E+02  0.10570000000E+00 0.  1.
<mgrwt>
<rscale>  0 0.20006155E+02</rscale>
<asrwt>0</asrwt>
<pdfrwt beam="1">  1        4 0.14903694E-03 0.20006155E+02</pdfrwt>
<pdfrwt beam="2">  1       -4 0.15890833E-01 0.20006155E+02</pdfrwt>
<totfact> 0.96756886E+05</totfact>
</mgrwt>
</event>
<event>
 5    1  0.4710515E-007  0.2001207E+02  0.7818608E-02  0.1745088E+00
         -4   -1    0    0    0  501 -0.00000000000E+00  0.00000000000E+00  0.23387140053E+01  0.27360524847E+01  0.14200000000E+01 0. -1.
          4   -1    0    0  501    0  0.00000000000E+00 -0.00000000000E+00 -0.39046997519E+02  0.39072809155E+02  0.14200000000E+01 0.  1.
       1023    2    1    2    0    0  0.00000000000E+00  0.00000000000E+00 -0.36708283514E+02  0.41808861640E+02  0.20012067186E+02 0.  0.
        -13    1    3    3    0    0  0.50569803348E+01  0.86327688139E+01 -0.18580972320E+02  0.21103588613E+02  0.10570000000E+00 0.  1.
         13    1    3    3    0    0 -0.50569803348E+01 -0.86327688139E+01 -0.18127311194E+02  0.20705273027E+02  0.10570000000E+00 0. -1.
<mgrwt>
<rscale>  0 0.20012067E+02</rscale>
<asrwt>0</asrwt>
<pdfrwt beam="2">  1        4 0.60397800E-02 0.20012067E+02</pdfrwt>
<pdfrwt beam="1">  1       -4 0.39235219E-03 0.20012067E+02</pdfrwt>
<totfact> 0.11864753E+06</totfact>
</mgrwt>
</event>
<event>
 4    1  0.4710515E-007  0.2008277E+02  0.7818608E-02  0.1743687E+00
          4   -1    0    0  501    0  0.00000000000E+00  0.00000000000E+00  0.85875883133E+01  0.87041985868E+01  0.14200000000E+01 0.  1.
         -4   -1    0    0    0  501 -0.00000000000E+00 -0.00000000000E+00 -0.11501553067E+02  0.11588879279E+02  0.14200000000E+01 0. -1.
        -13    1    1    2    0    0 -0.79750181456E+01 -0.60932521766E+01 -0.17595266132E+01  0.10189982478E+02  0.10570000000E+00 0.  1.
         13    1    1    2    0    0  0.79750181456E+01  0.60932521766E+01 -0.11544381405E+01  0.10103095388E+02  0.10570000000E+00 0. -1.
<mgrwt>
<rscale>  0 0.20082774E+02</rscale>
<asrwt>0</asrwt>
<pdfrwt beam="1">  1        4 0.13368549E-02 0.20082774E+02</pdfrwt>
<pdfrwt beam="2">  1       -4 0.17851571E-02 0.20082774E+02</pdfrwt>
<totfact> 0.12887442E+06</totfact>
</mgrwt>
</event>
<event>
 5    1  0.4710515E-007  0.2000294E+02  0.7818608E-02  0.1745270E+00
          4   -1    0    0  501    0  0.00000000000E+00  0.00000000000E+00  0.52325714087E+01  0.54218265877E+01  0.14200000000E+01 0.  1.
         -4   -1    0    0    0  501 -0.00000000000E+00 -0.00000000000E+00 -0.18560253000E+02  0.18614494122E+02  0.14200000000E+01 0. -1.
       1023    2    1    2    0    0  0.00000000000E+00  0.00000000000E+00 -0.13327681591E+02  0.24036320710E+02  0.20002940200E+02 0.  0.
        -13    1    3    3    0    0 -0.91763070297E+01 -0.39766342451E+01 -0.66626083064E+01  0.12017476963E+02  0.10570000000E+00 0.  1.
         13    1    3    3    0    0  0.91763070297E+01  0.39766342451E+01 -0.66650732847E+01  0.12018843747E+02  0.10570000000E+00 0. -1.
<mgrwt>
<rscale>  0 0.20002940E+02</rscale>
<asrwt>0</asrwt>
<pdfrwt beam="1">  1        4 0.82374148E-03 0.20002940E+02</pdfrwt>
<pdfrwt beam="2">  1       -4 0.28741540E-02 0.20002940E+02</pdfrwt>
<totfact> 0.12775884E+06</totfact>
</mgrwt>
</event>
<event>
 4    1  0.4710515E-007  0.2007977E+02  0.7818608E-02  0.1743746E+00
          4   -1    0    0  501    0  0.00000000000E+00  0.00000000000E+00  0.21176422732E+02  0.21223978885E+02  0.14200000000E+01 0.  1.
         -4   -1    0    0    0  501 -0.00000000000E+00 -0.00000000000E+00 -0.45998645604E+01  0.48140579529E+01  0.14200000000E+01 0. -1.
        -13    1    1    2    0    0  0.86183611148E+01  0.51269082376E+01  0.76707829752E+01  0.12625902753E+02  0.10570000000E+00 0. -1.
         13    1    1    2    0    0 -0.86183611148E+01 -0.51269082376E+01  0.89057751963E+01  0.13412134085E+02  0.10570000000E+00 0.  1.
<mgrwt>
<rscale>  0 0.20079768E+02</rscale>
<asrwt>0</asrwt>
<pdfrwt beam="1">  1        4 0.32780457E-02 0.20079768E+02</pdfrwt>
<pdfrwt beam="2">  1       -4 0.72780606E-03 0.20079768E+02</pdfrwt>
<totfact> 0.12565799E+06</totfact>
</mgrwt>
</event>
<event>
 5    1  0.4710515E-007  0.2000193E+02  0.7818608E-02  0.1745290E+00
         -4   -1    0    0    0  501 -0.00000000000E+00  0.00000000000E+00  0.41335942255E+02  0.41360325459E+02  0.14200000000E+01 0. -1.
          4   -1    0    0  501    0  0.00000000000E+00 -0.00000000000E+00 -0.21839869523E+01  0.26050333986E+01  0.14200000000E+01 0.  1.
       1023    2    1    2    0    0  0.00000000000E+00  0.00000000000E+00  0.39151955302E+02  0.43965358858E+02  0.20001929294E+02 0.  0.
        -13    1    3    3    0    0  0.70018921074E+01 -0.71401181197E+01  0.19616599069E+02  0.22018853544E+02  0.10570000000E+00 0. -1.
         13    1    3    3    0    0 -0.70018921074E+01  0.71401181197E+01  0.19535356233E+02  0.21946505314E+02  0.10570000000E+00 0.  1.
<mgrwt>
<rscale>  0 0.20001929E+02</rscale>
<asrwt>0</asrwt>
<pdfrwt beam="2">  1        4 0.37026181E-03 0.20001929E+02</pdfrwt>
<pdfrwt beam="1">  1       -4 0.63936397E-02 0.20001929E+02</pdfrwt>
<totfact> 0.11779506E+06</totfact>
</mgrwt>
</event>
<event>
 5    1  0.4710515E-007  0.2001215E+02  0.7818608E-02  0.1745087E+00
          4   -1    0    0  501    0  0.00000000000E+00  0.00000000000E+00  0.74000032784E+02  0.74013655849E+02  0.14200000000E+01 0. -1.
         -4   -1    0    0    0  501 -0.00000000000E+00 -0.00000000000E+00 -0.96279523926E+00  0.17156266123E+01  0.14200000000E+01 0.  1.
       1023    2    1    2    0    0  0.00000000000E+00  0.00000000000E+00  0.73037237545E+02  0.75729282461E+02  0.20012150155E+02 0.  0.
        -13    1    3    3    0    0 -0.91753350100E+01 -0.39775645652E+01  0.35306660170E+02  0.36695765659E+02  0.10570000000E+00 0.  1.
         13    1    3    3    0    0  0.91753350100E+01  0.39775645652E+01  0.37730577375E+02  0.39033516802E+02  0.10570000000E+00 0. -1.
<mgrwt>
<rscale>  0 0.20012150E+02</rscale>
<asrwt>0</asrwt>
<pdfrwt beam="1">  1        4 0.11443577E-01 0.20012150E+02</pdfrwt>
<pdfrwt beam="2">  1       -4 0.20708040E-03 0.20012150E+02</pdfrwt>
<totfact> 0.10540186E+06</totfact>
</mgrwt>
</event>
<event>
 5    1  0.4784516E-007  0.2000262E+02  0.7818608E-02  0.1745276E+00
         -4   -1    0    0    0  501 -0.00000000000E+00  0.00000000000E+00  0.51867074233E+02  0.51886508743E+02  0.14200000000E+01 0.  1.
          4   -1    0    0  501    0  0.00000000000E+00 -0.00000000000E+00 -0.16445549785E+01  0.21727772729E+01  0.14200000000E+01 0. -1.
       1023    2    1    2    0    0  0.00000000000E+00  0.00000000000E+00  0.50222519255E+02  0.54059286016E+02  0.20002623934E+02 0.  0.
        -13    1    3    3    0    0 -0.89554807454E+01  0.44508550463E+01  0.24933573690E+02  0.26864568031E+02  0.10570000000E+00 0. -1.
         13    1    3    3    0    0  0.89554807454E+01 -0.44508550463E+01  0.25288945564E+02  0.27194717985E+02  0.10570000000E+00 0.  1.
<mgrwt>
<rscale>  0 0.20002624E+02</rscale>
<asrwt>0</asrwt>
<pdfrwt beam="2">  1        4 0.29513592E-03 0.20002624E+02</pdfrwt>
<pdfrwt beam="1">  1       -4 0.80216770E-02 0.20002624E+02</pdfrwt>
<totfact> 0.11349799E+06</totfact>
</mgrwt>
</event>
<event>
 5    1  0.4710515E-007  0.2000270E+02  0.7818608E-02  0.1745274E+00
          4   -1    0    0  501    0  0.00000000000E+00  0.00000000000E+00  0.22377848115E+02  0.22422856336E+02  0.14200000000E+01 0. -1.
         -4   -1    0    0    0  501 -0.00000000000E+00 -0.00000000000E+00 -0.43062567552E+01  0.45343408829E+01  0.14200000000E+01 0.  1.
       1023    2    1    2    0    0  0.00000000000E+00  0.00000000000E+00  0.18071591360E+02  0.26957197219E+02  0.20002701508E+02 0.  0.
        -13    1    3    3    0    0  0.97739958752E+01 -0.21172342510E+01  0.89730428901E+01  0.13436530335E+02  0.10570000000E+00 0. -1.
         13    1    3    3    0    0 -0.97739958752E+01  0.21172342510E+01  0.90985484701E+01  0.13520666884E+02  0.10570000000E+00 0.  1.
<mgrwt>
<rscale>  0 0.20002702E+02</rscale>
<asrwt>0</asrwt>
<pdfrwt beam="1">  1        4 0.34637529E-02 0.20002702E+02</pdfrwt>
<pdfrwt beam="2">  1       -4 0.68350815E-03 0.20002702E+02</pdfrwt>
<totfact> 0.12614354E+06</totfact>
</mgrwt>
</event>
<event>
 5    1  0.4710515E-007  0.2000291E+02  0.7818608E-02  0.1745270E+00
         -4   -1    0    0    0  501 -0.00000000000E+00  0.00000000000E+00  0.59795346533E+02  0.59812205001E+02  0.14200000000E+01 0. -1.
          4   -1    0    0  501    0  0.00000000000E+00 -0.00000000000E+00 -0.13512605008E+01  0.19601798236E+01  0.14200000000E+01 0.  1.
       1023    2    1    2    0    0  0.00000000000E+00  0.00000000000E+00  0.58444086032E+02  0.61772384824E+02  0.20002908156E+02 0.  0.
        -13    1    3    3    0    0 -0.55045083598E+01 -0.83490851383E+01  0.29547053761E+02  0.31193691564E+02  0.10570000000E+00 0.  1.
         13    1    3    3    0    0  0.55045083598E+01  0.83490851383E+01  0.28897032272E+02  0.30578693261E+02  0.10570000000E+00 0. -1.
<mgrwt>
<rscale>  0 0.20002908E+02</rscale>
<asrwt>0</asrwt>
<pdfrwt beam="2">  1        4 0.25602300E-03 0.20002908E+02</pdfrwt>
<pdfrwt beam="1">  1       -4 0.92474201E-02 0.20002908E+02</pdfrwt>
<totfact> 0.11048097E+06</totfact>
</mgrwt>
</event>
<event>
 5    1  0.4710515E-007  0.2000911E+02  0.7818608E-02  0.1745147E+00
          4   -1    0    0  501    0  0.00000000000E+00  0.00000000000E+00  0.42888324596E+00  0.14833545897E+01  0.14200000000E+01 0. -1.
         -4   -1    0    0    0  501 -0.00000000000E+00 -0.00000000000E+00 -0.10362280976E+03  0.10363253883E+03  0.14200000000E+01 0.  1.
       1023    2    1    2    0    0  0.00000000000E+00  0.00000000000E+00 -0.10319392652E+03  0.10511589342E+03  0.20009112380E+02 0.  0.
        -13    1    3    3    0    0 -0.57221346220E+01  0.82058707853E+01 -0.51445423873E+02  0.52409178108E+02  0.10570000000E+00 0.  1.
         13    1    3    3    0    0  0.57221346220E+01 -0.82058707853E+01 -0.51748502646E+02  0.52706715308E+02  0.10570000000E+00 0. -1.
<mgrwt>
<rscale>  0 0.20009112E+02</rscale>
<asrwt>0</asrwt>
<pdfrwt beam="1">  1        4 0.14784369E-03 0.20009112E+02</pdfrwt>
<pdfrwt beam="2">  1       -4 0.16023823E-01 0.20009112E+02</pdfrwt>
<totfact> 0.96491804E+05</totfact>
</mgrwt>
</event>
<event>
 5    1  0.4849369E-007  0.2000144E+02  0.7818608E-02  0.1745299E+00
         -4   -1    0    0    0  501 -0.00000000000E+00  0.00000000000E+00  0.26097483162E+02  0.26136086689E+02  0.14200000000E+01 0. -1.
          4   -1    0    0  501    0  0.00000000000E+00 -0.00000000000E+00 -0.36578253924E+01  0.39237847293E+01  0.14200000000E+01 0.  1.
       1023    2    1    2    0    0  0.00000000000E+00  0.00000000000E+00  0.22439657770E+02  0.30059871418E+02  0.20001440669E+02 0.  0.
        -13    1    3    3    0    0  0.98663088827E+01  0.16299504001E+01  0.11145509040E+02  0.14974456035E+02  0.10570000000E+00 0. -1.
         13    1    3    3    0    0 -0.98663088827E+01 -0.16299504001E+01  0.11294148730E+02  0.15085415383E+02  0.10570000000E+00 0.  1.
<mgrwt>
<rscale>  0 0.20001441E+02</rscale>
<asrwt>0</asrwt>
<pdfrwt beam="2">  1        4 0.58617030E-03 0.20001441E+02</pdfrwt>
<pdfrwt beam="1">  1       -4 0.40384252E-02 0.20001441E+02</pdfrwt>
<totfact> 0.12450792E+06</totfact>
</mgrwt>
</event>
<event>
 4    1  0.4710515E-007  0.2001753E+02  0.7818608E-02  0.1744980E+00
          4   -1    0    0  501    0  0.00000000000E+00  0.00000000000E+00  0.12591103539E+02  0.12670922947E+02  0.14200000000E+01 0.  1.
         -4   -1    0    0    0  501 -0.00000000000E+00 -0.00000000000E+00 -0.77866740128E+01  0.79150926831E+01  0.14200000000E+01 0. -1.
        -13    1    1    2    0    0 -0.96912533468E+01  0.24927693161E+01  0.22243541950E+01  0.10251498152E+02  0.10570000000E+00 0. -1.
         13    1    1    2    0    0  0.96912533468E+01 -0.24927693161E+01  0.25800753313E+01  0.10334517478E+02  0.10570000000E+00 0.  1.
<mgrwt>
<rscale>  0 0.20017530E+02</rscale>
<asrwt>0</asrwt>
<pdfrwt beam="1">  1        4 0.19531112E-02 0.20017530E+02</pdfrwt>
<pdfrwt beam="2">  1       -4 0.12139682E-02 0.20017530E+02</pdfrwt>
<totfact> 0.12956043E+06</totfact>
</mgrwt>
</event>
<event>
 5    1  0.4710515E-007  0.2001060E+02  0.7818608E-02  0.1745117E+00
         -4   -1    0    0    0  501 -0.00000000000E+00  0.00000000000E+00  0.11323168769E+01  0.18161887319E+01  0.14200000000E+01 0.  1.
          4   -1    0    0  501    0  0.00000000000E+00 -0.00000000000E+00 -0.67209795488E+02  0.67224794604E+02  0.14200000000E+01 0. -1.
       1023    2    1    2    0    0  0.00000000000E+00  0.00000000000E+00 -0.66077478611E+02  0.69040983336E+02  0.20010602199E+02 0.  0.
        -13    1    3    3    0    0  0.99918101407E+01 -0.50695413425E+00 -0.33176973127E+02  0.34652791961E+02  0.10570000000E+00 0.  1.
         13    1    3    3    0    0 -0.99918101407E+01  0.50695413425E+00 -0.32900505485E+02  0.34388191375E+02  0.10570000000E+00 0. -1.
<mgrwt>
<rscale>  0 0.20010602E+02</rscale>
<asrwt>0</asrwt>
<pdfrwt beam="2">  1        4 0.10393725E-01 0.20010602E+02</pdfrwt>
<pdfrwt beam="1">  1       -4 0.22796195E-03 0.20010602E+02</pdfrwt>
<totfact> 0.10773321E+06</totfact>
</mgrwt>
</event>
<event>
 4    1  0.4710515E-007  0.2033097E+02  0.7818608E-02  0.1738825E+00
          4   -1    0    0  501    0  0.00000000000E+00  0.00000000000E+00  0.28914413215E+01  0.32213091928E+01  0.14200000000E+01 0. -1.
         -4   -1    0    0    0  501 -0.00000000000E+00 -0.00000000000E+00 -0.33464617382E+02  0.33494731175E+02  0.14200000000E+01 0.  1.
        -13    1    1    2    0    0 -0.95213506934E+00 -0.10113924473E+02 -0.15932514480E+02  0.18895878376E+02  0.10570000000E+00 0.  1.
         13    1    1    2    0    0  0.95213506934E+00  0.10113924473E+02 -0.14640661580E+02  0.17820161992E+02  0.10570000000E+00 0. -1.
<mgrwt>
<rscale>  0 0.20330975E+02</rscale>
<asrwt>0</asrwt>
<pdfrwt beam="1">  1        4 0.47252805E-03 0.20330975E+02</pdfrwt>
<pdfrwt beam="2">  1       -4 0.51760933E-02 0.20330975E+02</pdfrwt>
<totfact> 0.11720408E+06</totfact>
</mgrwt>
</event>
<event>
 5    1  0.4710515E-007  0.2000414E+02  0.7818608E-02  0.1745246E+00
          4   -1    0    0  501    0  0.00000000000E+00  0.00000000000E+00  0.20199460873E+01  0.24691257958E+01  0.14200000000E+01 0. -1.
         -4   -1    0    0    0  501 -0.00000000000E+00 -0.00000000000E+00 -0.44109354601E+02  0.44132205511E+02  0.14200000000E+01 0.  1.
       1023    2    1    2    0    0  0.00000000000E+00  0.00000000000E+00 -0.42089408514E+02  0.46601331307E+02  0.20004143835E+02 0.  0.
        -13    1    3    3    0    0 -0.89354667891E+01 -0.44930286743E+01 -0.20998302328E+02  0.23258756342E+02  0.10570000000E+00 0.  1.
         13    1    3    3    0    0  0.89354667891E+01  0.44930286743E+01 -0.21091106185E+02  0.23342574965E+02  0.10570000000E+00 0. -1.
<mgrwt>
<rscale>  0 0.20004144E+02</rscale>
<asrwt>0</asrwt>
<pdfrwt beam="1">  1        4 0.34707101E-03 0.20004144E+02</pdfrwt>
<pdfrwt beam="2">  1       -4 0.68223640E-02 0.20004144E+02</pdfrwt>
<totfact> 0.11660697E+06</totfact>
</mgrwt>
</event>
<event>
 5    1  0.4710515E-007  0.2000163E+02  0.7818608E-02  0.1745296E+00
         -4   -1    0    0    0  501 -0.00000000000E+00  0.00000000000E+00  0.57525002641E+01  0.59251716674E+01  0.14200000000E+01 0.  1.
          4   -1    0    0  501    0  0.00000000000E+00 -0.00000000000E+00 -0.16926645562E+02  0.16986104026E+02  0.14200000000E+01 0. -1.
       1023    2    1    2    0    0  0.00000000000E+00  0.00000000000E+00 -0.11174145298E+02  0.22911275694E+02  0.20001625703E+02 0.  0.
        -13    1    3    3    0    0 -0.48037224526E+01  0.87707035384E+01 -0.55137692986E+01  0.11419886791E+02  0.10570000000E+00 0.  1.
         13    1    3    3    0    0  0.48037224526E+01 -0.87707035384E+01 -0.56603759997E+01  0.11491388902E+02  0.10570000000E+00 0. -1.
<mgrwt>
<rscale>  0 0.20001626E+02</rscale>
<asrwt>0</asrwt>
<pdfrwt beam="2">  1        4 0.26219554E-02 0.20001626E+02</pdfrwt>
<pdfrwt beam="1">  1       -4 0.90285619E-03 0.20001626E+02</pdfrwt>
<totfact> 0.12841530E+06</totfact>
</mgrwt>
</event>
<event>
 5    1  0.4710515E-007  0.2000925E+02  0.7818608E-02  0.1745144E+00
         -4   -1    0    0    0  501 -0.00000000000E+00  0.00000000000E+00  0.16298477560E+01  0.21616668818E+01  0.14200000000E+01 0. -1.
          4   -1    0    0  501    0  0.00000000000E+00 -0.00000000000E+00 -0.52255345884E+02  0.52274636043E+02  0.14200000000E+01 0.  1.
       1023    2    1    2    0    0  0.00000000000E+00  0.00000000000E+00 -0.50625498128E+02  0.54436302925E+02  0.20009248248E+02 0.  0.
        -13    1    3    3    0    0  0.14208781622E+01  0.99017052510E+01 -0.25684478530E+02  0.27563858066E+02  0.10570000000E+00 0. -1.
         13    1    3    3    0    0 -0.14208781622E+01 -0.99017052510E+01 -0.24941019598E+02  0.26872444859E+02  0.10570000000E+00 0.  1.
<mgrwt>
<rscale>  0 0.20009248E+02</rscale>
<asrwt>0</asrwt>
<pdfrwt beam="2">  1        4 0.80816759E-02 0.20009248E+02</pdfrwt>
<pdfrwt beam="1">  1       -4 0.29313887E-03 0.20009248E+02</pdfrwt>
<totfact> 0.11327018E+06</totfact>
</mgrwt>
</event>
<event>
 5    1  0.6239900E-007  0.2000132E+02  0.7818608E-02  0.1745302E+00
          4   -1    0    0  501    0  0.00000000000E+00  0.00000000000E+00  0.83415587928E+01  0.84615603226E+01  0.14200000000E+01 0. -1.
         -4   -1    0    0    0  501 -0.00000000000E+00 -0.00000000000E+00 -0.11741033193E+02  0.11826591243E+02  0.14200000000E+01 0.  1.
       1023    2    1    2    0    0  0.00000000000E+00  0.00000000000E+00 -0.33994743998E+01  0.20288151566E+02  0.20001316651E+02 0.  0.
        -13    1    3    3    0    0 -0.99769376691E+01 -0.68018741294E+00 -0.17072102788E+01  0.10145327969E+02  0.10570000000E+00 0. -1.
         13    1    3    3    0    0  0.99769376691E+01  0.68018741294E+00 -0.16922641210E+01  0.10142823597E+02  0.10570000000E+00 0.  1.
<mgrwt>
<rscale>  0 0.20001317E+02</rscale>
<asrwt>0</asrwt>
<pdfrwt beam="1">  1        4 0.12991290E-02 0.20001317E+02</pdfrwt>
<pdfrwt beam="2">  1       -4 0.18221251E-02 0.20001317E+02</pdfrwt>
<totfact> 0.12995147E+06</totfact>
</mgrwt>
</event>
<event>
 5    1  0.4710515E-007  0.2000560E+02  0.7818608E-02  0.1745217E+00
          4   -1    0    0  501    0  0.00000000000E+00  0.00000000000E+00  0.93141289537E+00  0.16982137621E+01  0.14200000000E+01 0.  1.
         -4   -1    0    0    0  501 -0.00000000000E+00 -0.00000000000E+00 -0.75323598989E+02  0.75336982715E+02  0.14200000000E+01 0. -1.
       1023    2    1    2    0    0  0.00000000000E+00  0.00000000000E+00 -0.74392186093E+02  0.77035196477E+02  0.20005602828E+02 0.  0.
        -13    1    3    3    0    0 -0.27303146049E+01  0.96222290399E+01 -0.37405383942E+02  0.38719708546E+02  0.10570000000E+00 0.  1.
         13    1    3    3    0    0  0.27303146049E+01 -0.96222290399E+01 -0.36986802151E+02  0.38315487931E+02  0.10570000000E+00 0. -1.
<mgrwt>
<rscale>  0 0.20005603E+02</rscale>
<asrwt>0</asrwt>
<pdfrwt beam="1">  1        4 0.20330855E-03 0.20005603E+02</pdfrwt>
<pdfrwt beam="2">  1       -4 0.11648257E-01 0.20005603E+02</pdfrwt>
<totfact> 0.10503259E+06</totfact>
</mgrwt>
</event>
<event>
 5    1  0.4710515E-007  0.2000124E+02  0.7818608E-02  0.1745303E+00
          4   -1    0    0  501    0  0.00000000000E+00  0.00000000000E+00  0.28969300164E+01  0.32262367427E+01  0.14200000000E+01 0.  1.
         -4   -1    0    0    0  501 -0.00000000000E+00 -0.00000000000E+00 -0.32321167478E+02  0.32352345620E+02  0.14200000000E+01 0. -1.
       1023    2    1    2    0    0  0.00000000000E+00  0.00000000000E+00 -0.29424237462E+02  0.35578582363E+02  0.20001244281E+02 0.  0.
        -13    1    3    3    0    0 -0.59290837680E+01  0.80527348786E+01 -0.14759092651E+02  0.17828139604E+02  0.10570000000E+00 0. -1.
         13    1    3    3    0    0  0.59290837680E+01 -0.80527348786E+01 -0.14665144810E+02  0.17750442759E+02  0.10570000000E+00 0.  1.
<mgrwt>
<rscale>  0 0.20001244E+02</rscale>
<asrwt>0</asrwt>
<pdfrwt beam="1">  1        4 0.47341117E-03 0.20001244E+02</pdfrwt>
<pdfrwt beam="2">  1       -4 0.50002167E-02 0.20001244E+02</pdfrwt>
<totfact> 0.12172045E+06</totfact>
</mgrwt>
</event>
<event>
 5    1  0.4710515E-007  0.2000568E+02  0.7818608E-02  0.1745215E+00
          4   -1    0    0  501    0  0.00000000000E+00  0.00000000000E+00  0.49958416161E+02  0.49978592870E+02  0.14200000000E+01 0. -1.
         -4   -1    0    0    0  501 -0.00000000000E+00 -0.00000000000E+00 -0.17278524125E+01  0.22364869683E+01  0.14200000000E+01 0.  1.
       1023    2    1    2    0    0  0.00000000000E+00  0.00000000000E+00  0.48230563748E+02  0.52215079838E+02  0.20005681270E+02 0.  0.
        -13    1    3    3    0    0 -0.46373464842E+01  0.88623168155E+01  0.24121949680E+02  0.26113698907E+02  0.10570000000E+00 0. -1.
         13    1    3    3    0    0  0.46373464842E+01 -0.88623168155E+01  0.24108614068E+02  0.26101380931E+02  0.10570000000E+00 0.  1.
<mgrwt>
<rscale>  0 0.20005681E+02</rscale>
<asrwt>0</asrwt>
<pdfrwt beam="1">  1        4 0.77265872E-02 0.20005681E+02</pdfrwt>
<pdfrwt beam="2">  1       -4 0.30650127E-03 0.20005681E+02</pdfrwt>
<totfact> 0.11421513E+06</totfact>
</mgrwt>
</event>
<event>
 4    1  0.4710515E-007  0.2049494E+02  0.7818608E-02  0.1735661E+00
          4   -1    0    0  501    0  0.00000000000E+00  0.00000000000E+00  0.15047010705E+02  0.15113865526E+02  0.14200000000E+01 0. -1.
         -4   -1    0    0    0  501 -0.00000000000E+00 -0.00000000000E+00 -0.68232547260E+01  0.69694479735E+01  0.14200000000E+01 0. -1.
        -13    1    1    2    0    0 -0.13089828185E+01  0.10148751968E+02  0.46909964740E+01  0.11257318639E+02  0.10570000000E+00 0. -1.
         13    1    1    2    0    0  0.13089828185E+01 -0.10148751968E+02  0.35327595048E+01  0.10825994861E+02  0.10570000000E+00 0.  1.
<mgrwt>
<rscale>  0 0.20494940E+02</rscale>
<asrwt>0</asrwt>
<pdfrwt beam="1">  1        4 0.23313130E-02 0.20494940E+02</pdfrwt>
<pdfrwt beam="2">  1       -4 0.10661198E-02 0.20494940E+02</pdfrwt>
<totfact> 0.12260758E+06</totfact>
</mgrwt>
</event>
<event>
 5    1  0.4710515E-007  0.2000245E+02  0.7818608E-02  0.1745279E+00
         -4   -1    0    0    0  501 -0.00000000000E+00  0.00000000000E+00  0.37446695435E+01  0.40048657892E+01  0.14200000000E+01 0.  1.
          4   -1    0    0  501    0  0.00000000000E+00 -0.00000000000E+00 -0.25533737242E+02  0.25573191774E+02  0.14200000000E+01 0. -1.
       1023    2    1    2    0    0  0.00000000000E+00  0.00000000000E+00 -0.21789067698E+02  0.29578057563E+02  0.20002450302E+02 0.  0.
        -13    1    3    3    0    0  0.16937187668E+01  0.98559317981E+01 -0.10787317244E+02  0.14710046250E+02  0.10570000000E+00 0.  1.
         13    1    3    3    0    0 -0.16937187668E+01 -0.98559317981E+01 -0.11001750454E+02  0.14868011313E+02  0.10570000000E+00 0. -1.
<mgrwt>
<rscale>  0 0.20002450E+02</rscale>
<asrwt>0</asrwt>
<pdfrwt beam="2">  1        4 0.39513172E-02 0.20002450E+02</pdfrwt>
<pdfrwt beam="1">  1       -4 0.59915308E-03 0.20002450E+02</pdfrwt>
<totfact> 0.12474731E+06</totfact>
</mgrwt>
</event>
<event>
 4    1  0.4710515E-007  0.2020988E+02  0.7818608E-02  0.1741186E+00
          4   -1    0    0  501    0  0.00000000000E+00  0.00000000000E+00  0.10424478366E+02  0.10520748509E+02  0.14200000000E+01 0.  1.
         -4   -1    0    0    0  501 -0.00000000000E+00 -0.00000000000E+00 -0.96014431484E+01  0.97058802039E+01  0.14200000000E+01 0. -1.
        -13    1    1    2    0    0 -0.17437652775E+01 -0.99523162150E+01  0.50799594314E+00  0.10117240125E+02  0.10570000000E+00 0. -1.
         13    1    1    2    0    0  0.17437652775E+01  0.99523162150E+01  0.31503927416E+00  0.10109388588E+02  0.10570000000E+00 0.  1.
<mgrwt>
<rscale>  0 0.20209877E+02</rscale>
<asrwt>0</asrwt>
<pdfrwt beam="1">  1        4 0.16192049E-02 0.20209877E+02</pdfrwt>
<pdfrwt beam="2">  1       -4 0.14925841E-02 0.20209877E+02</pdfrwt>
<totfact> 0.12726061E+06</totfact>
</mgrwt>
</event>
<event>
 5    1  0.4710515E-007  0.2000967E+02  0.7818608E-02  0.1745136E+00
          4   -1    0    0  501    0  0.00000000000E+00  0.00000000000E+00  0.17626921025E+01  0.22635113095E+01  0.14200000000E+01 0. -1.
         -4   -1    0    0    0  501 -0.00000000000E+00 -0.00000000000E+00 -0.49210325231E+02  0.49230808538E+02  0.14200000000E+01 0.  1.
       1023    2    1    2    0    0  0.00000000000E+00  0.00000000000E+00 -0.47447633129E+02  0.51494319848E+02  0.20009674837E+02 0.  0.
        -13    1    3    3    0    0 -0.96251125900E+01 -0.27281340331E+01 -0.23699185208E+02  0.25724464225E+02  0.10570000000E+00 0.  1.
         13    1    3    3    0    0  0.96251125900E+01  0.27281340331E+01 -0.23748447921E+02  0.25769855623E+02  0.10570000000E+00 0. -1.
<mgrwt>
<rscale>  0 0.20009675E+02</rscale>
<asrwt>0</asrwt>
<pdfrwt beam="1">  1        4 0.31128363E-03 0.20009675E+02</pdfrwt>
<pdfrwt beam="2">  1       -4 0.76109185E-02 0.20009675E+02</pdfrwt>
<totfact> 0.11446657E+06</totfact>
</mgrwt>
</event>
<event>
 5    1  0.5145734E-007  0.2000186E+02  0.7818608E-02  0.1745291E+00
         -4   -1    0    0    0  501 -0.00000000000E+00  0.00000000000E+00  0.17108164508E+02  0.17166994287E+02  0.14200000000E+01 0. -1.
          4   -1    0    0  501    0  0.00000000000E+00 -0.00000000000E+00 -0.56899784967E+01  0.58644910515E+01  0.14200000000E+01 0.  1.
       1023    2    1    2    0    0  0.00000000000E+00  0.00000000000E+00  0.11418186012E+02  0.23031485338E+02  0.20001858541E+02 0.  0.
        -13    1    3    3    0    0  0.26621975837E+01 -0.96394645205E+01  0.57424967974E+01  0.11532303073E+02  0.10570000000E+00 0.  1.
         13    1    3    3    0    0 -0.26621975837E+01  0.96394645205E+01  0.56756892144E+01  0.11499182265E+02  0.10570000000E+00 0. -1.
<mgrwt>
<rscale>  0 0.20001859E+02</rscale>
<asrwt>0</asrwt>
<pdfrwt beam="2">  1        4 0.89333071E-03 0.20001859E+02</pdfrwt>
<pdfrwt beam="1">  1       -4 0.26499747E-02 0.20001859E+02</pdfrwt>
<totfact> 0.12834344E+06</totfact>
</mgrwt>
</event>
<event>
 5    1  0.4710515E-007  0.2000215E+02  0.7818608E-02  0.1745285E+00
         -4   -1    0    0    0  501 -0.00000000000E+00  0.00000000000E+00  0.10297267459E+02  0.10394715827E+02  0.14200000000E+01 0.  1.
          4   -1    0    0  501    0  0.00000000000E+00 -0.00000000000E+00 -0.95172858762E+01  0.96226363565E+01  0.14200000000E+01 0. -1.
       1023    2    1    2    0    0  0.00000000000E+00  0.00000000000E+00  0.77998158312E+00  0.20017352184E+02  0.20002150314E+02 0.  0.
        -13    1    3    3    0    0  0.72978921656E+01 -0.68374775127E+01  0.38825556982E+00  0.10008608478E+02  0.10570000000E+00 0.  1.
         13    1    3    3    0    0 -0.72978921656E+01  0.68374775127E+01  0.39172601331E+00  0.10008743705E+02  0.10570000000E+00 0. -1.
<mgrwt>
<rscale>  0 0.20002150E+02</rscale>
<asrwt>0</asrwt>
<pdfrwt beam="2">  1        4 0.14797977E-02 0.20002150E+02</pdfrwt>
<pdfrwt beam="1">  1       -4 0.15997949E-02 0.20002150E+02</pdfrwt>
<totfact> 0.13010158E+06</totfact>
</mgrwt>
</event>
<event>
 5    1  0.4710515E-007  0.2000194E+02  0.7818608E-02  0.1745289E+00
          4   -1    0    0  501    0  0.00000000000E+00  0.00000000000E+00  0.10851584299E+01  0.17871678203E+01  0.14200000000E+01 0.  1.
         -4   -1    0    0    0  501 -0.00000000000E+00 -0.00000000000E+00 -0.68932385570E+02  0.68947009946E+02  0.14200000000E+01 0. -1.
       1023    2    1    2    0    0  0.00000000000E+00  0.00000000000E+00 -0.67847227140E+02  0.70734177766E+02  0.20001941745E+02 0.  0.
        -13    1    3    3    0    0 -0.98757584092E+01 -0.15729976830E+01 -0.33719849137E+02  0.35171640908E+02  0.10570000000E+00 0. -1.
         13    1    3    3    0    0  0.98757584092E+01  0.15729976830E+01 -0.34127378004E+02  0.35562536858E+02  0.10570000000E+00 0.  1.
<mgrwt>
<rscale>  0 0.20001942E+02</rscale>
<asrwt>0</asrwt>
<pdfrwt beam="1">  1        4 0.22207318E-03 0.20001942E+02</pdfrwt>
<pdfrwt beam="2">  1       -4 0.10660105E-01 0.20001942E+02</pdfrwt>
<totfact> 0.10722869E+06</totfact>
</mgrwt>
</event>
<event>
 5    1  0.4710515E-007  0.2000568E+02  0.7818608E-02  0.1745215E+00
          4   -1    0    0  501    0  0.00000000000E+00  0.00000000000E+00  0.13997320223E+01  0.19939031407E+01  0.14200000000E+01 0.  1.
         -4   -1    0    0    0  501 -0.00000000000E+00 -0.00000000000E+00 -0.58363028268E+02  0.58380300347E+02  0.14200000000E+01 0. -1.
       1023    2    1    2    0    0  0.00000000000E+00  0.00000000000E+00 -0.56963296246E+02  0.60374203488E+02  0.20005682383E+02 0.  0.
        -13    1    3    3    0    0  0.45569324241E+01 -0.89015069305E+01 -0.27854394414E+02  0.29595285426E+02  0.10570000000E+00 0.  1.
         13    1    3    3    0    0 -0.45569324241E+01  0.89015069305E+01 -0.29108901832E+02  0.30778918062E+02  0.10570000000E+00 0. -1.
<mgrwt>
<rscale>  0 0.20005682E+02</rscale>
<asrwt>0</asrwt>
<pdfrwt beam="1">  1        4 0.26237753E-03 0.20005682E+02</pdfrwt>
<pdfrwt beam="2">  1       -4 0.90259600E-02 0.20005682E+02</pdfrwt>
<totfact> 0.11098167E+06</totfact>
</mgrwt>
</event>
<event>
 5    1  0.4710515E-007  0.2000338E+02  0.7818608E-02  0.1745261E+00
         -4   -1    0    0    0  501 -0.00000000000E+00  0.00000000000E+00  0.13911679887E+02  0.13983963575E+02  0.14200000000E+01 0. -1.
          4   -1    0    0  501    0  0.00000000000E+00 -0.00000000000E+00 -0.70285277478E+01  0.71705370999E+01  0.14200000000E+01 0.  1.
       1023    2    1    2    0    0  0.00000000000E+00  0.00000000000E+00  0.68831521390E+01  0.21154500675E+02  0.20003377601E+02 0.  0.
        -13    1    3    3    0    0 -0.49945667973E+01  0.86640504912E+01  0.33299662567E+01  0.10540935261E+02  0.10570000000E+00 0. -1.
         13    1    3    3    0    0  0.49945667973E+01 -0.86640504912E+01  0.35531858824E+01  0.10613565415E+02  0.10570000000E+00 0.  1.
<mgrwt>
<rscale>  0 0.20003378E+02</rscale>
<asrwt>0</asrwt>
<pdfrwt beam="2">  1        4 0.10977961E-02 0.20003378E+02</pdfrwt>
<pdfrwt beam="1">  1       -4 0.21567425E-02 0.20003378E+02</pdfrwt>
<totfact> 0.12941183E+06</totfact>
</mgrwt>
</event>
<event>
 4    1  0.4710515E-007  0.2341541E+02  0.7818608E-02  0.1684864E+00
         -4   -1    0    0    0  501 -0.00000000000E+00  0.00000000000E+00  0.11864201449E+01  0.18504034047E+01  0.14200000000E+01 0.  1.
          4   -1    0    0  501    0  0.00000000000E+00 -0.00000000000E+00 -0.89601388851E+02  0.89612640203E+02  0.14200000000E+01 0. -1.
        -13    1    1    2    0    0  0.11202780565E+02 -0.33482966264E+01 -0.41910315088E+02  0.43510907436E+02  0.10570000000E+00 0.  1.
         13    1    1    2    0    0 -0.11202780565E+02  0.33482966264E+01 -0.46504653619E+02  0.47952136171E+02  0.10570000000E+00 0. -1.
<mgrwt>
<rscale>  0 0.23415415E+02</rscale>
<asrwt>0</asrwt>
<pdfrwt beam="2">  1        4 0.13836766E-01 0.23415415E+02</pdfrwt>
<pdfrwt beam="1">  1       -4 0.23446737E-03 0.23415415E+02</pdfrwt>
<totfact> 0.72758008E+05</totfact>
</mgrwt>
</event>
<event>
 5    1  0.4885503E-007  0.2000128E+02  0.7818608E-02  0.1745303E+00
         -4   -1    0    0    0  501 -0.00000000000E+00  0.00000000000E+00  0.15488523351E+02  0.15553480498E+02  0.14200000000E+01 0.  1.
          4   -1    0    0  501    0  0.00000000000E+00 -0.00000000000E+00 -0.62995574631E+01  0.64576175352E+01  0.14200000000E+01 0. -1.
       1023    2    1    2    0    0  0.00000000000E+00  0.00000000000E+00  0.91889658877E+01  0.22011098033E+02  0.20001283522E+02 0.  0.
        -13    1    3    3    0    0 -0.13256429810E+01 -0.99117551703E+01  0.45526750706E+01  0.10988095497E+02  0.10570000000E+00 0.  1.
         13    1    3    3    0    0  0.13256429810E+01  0.99117551703E+01  0.46362908171E+01  0.11023002536E+02  0.10570000000E+00 0. -1.
<mgrwt>
<rscale>  0 0.20001284E+02</rscale>
<asrwt>0</asrwt>
<pdfrwt beam="2">  1        4 0.98631786E-03 0.20001284E+02</pdfrwt>
<pdfrwt beam="1">  1       -4 0.24000049E-02 0.20001284E+02</pdfrwt>
<totfact> 0.12893892E+06</totfact>
</mgrwt>
</event>
<event>
 4    1  0.4710515E-007  0.2001877E+02  0.7818608E-02  0.1744955E+00
         -4   -1    0    0    0  501 -0.00000000000E+00  0.00000000000E+00  0.43396728923E+02  0.43419954873E+02  0.14200000000E+01 0. -1.
          4   -1    0    0  501    0  0.00000000000E+00 -0.00000000000E+00 -0.20641089529E+01  0.25053833578E+01  0.14200000000E+01 0.  1.
        -13    1    1    2    0    0 -0.86235077323E+01  0.50750763268E+01  0.20126599588E+02  0.22476931926E+02  0.10570000000E+00 0.  1.
         13    1    1    2    0    0  0.86235077323E+01 -0.50750763268E+01  0.21206020382E+02  0.23448406305E+02  0.10570000000E+00 0. -1.
<mgrwt>
<rscale>  0 0.20018772E+02</rscale>
<asrwt>0</asrwt>
<pdfrwt beam="2">  1        4 0.35328603E-03 0.20018772E+02</pdfrwt>
<pdfrwt beam="1">  1       -4 0.67121504E-02 0.20018772E+02</pdfrwt>
<totfact> 0.11672940E+06</totfact>
</mgrwt>
</event>
<event>
 5    1  0.4710515E-007  0.2000271E+02  0.7818608E-02  0.1745274E+00
          4   -1    0    0  501    0  0.00000000000E+00  0.00000000000E+00  0.11029423251E+02  0.11120457601E+02  0.14200000000E+01 0.  1.
         -4   -1    0    0    0  501 -0.00000000000E+00 -0.00000000000E+00 -0.88841925566E+01  0.89969593410E+01  0.14200000000E+01 0. -1.
       1023    2    1    2    0    0  0.00000000000E+00  0.00000000000E+00  0.21452306943E+01  0.20117416942E+02  0.20002711058E+02 0.  0.
        -13    1    3    3    0    0 -0.63017952987E+01  0.77654678954E+01  0.10437399803E+01  0.10055629332E+02  0.10570000000E+00 0. -1.
         13    1    3    3    0    0  0.63017952987E+01 -0.77654678954E+01  0.11014907139E+01  0.10061787610E+02  0.10570000000E+00 0.  1.
<mgrwt>
<rscale>  0 0.20002711E+02</rscale>
<asrwt>0</asrwt>
<pdfrwt beam="1">  1        4 0.17125114E-02 0.20002711E+02</pdfrwt>
<pdfrwt beam="2">  1       -4 0.13824759E-02 0.20002711E+02</pdfrwt>
<totfact> 0.13003478E+06</totfact>
</mgrwt>
</event>
<event>
 5    1  0.4846983E-007  0.2000138E+02  0.7818608E-02  0.1745301E+00
          4   -1    0    0  501    0  0.00000000000E+00  0.00000000000E+00  0.19313778148E+01  0.23972109343E+01  0.14200000000E+01 0.  1.
         -4   -1    0    0    0  501 -0.00000000000E+00 -0.00000000000E+00 -0.45732795969E+02  0.45754836106E+02  0.14200000000E+01 0. -1.
       1023    2    1    2    0    0  0.00000000000E+00  0.00000000000E+00 -0.43801418154E+02  0.48152047041E+02  0.20001385000E+02 0.  0.
        -13    1    3    3    0    0 -0.44718231339E+01  0.89445604625E+01 -0.21858050655E+02  0.24037219368E+02  0.10570000000E+00 0.  1.
         13    1    3    3    0    0  0.44718231339E+01 -0.89445604625E+01 -0.21943367499E+02  0.24114827673E+02  0.10570000000E+00 0. -1.
<mgrwt>
<rscale>  0 0.20001385E+02</rscale>
<asrwt>0</asrwt>
<pdfrwt beam="1">  1        4 0.33466379E-03 0.20001385E+02</pdfrwt>
<pdfrwt beam="2">  1       -4 0.70733428E-02 0.20001385E+02</pdfrwt>
<totfact> 0.11597022E+06</totfact>
</mgrwt>
</event>
<event>
 5    1  0.4710515E-007  0.2000707E+02  0.7818608E-02  0.1745188E+00
          4   -1    0    0  501    0  0.00000000000E+00  0.00000000000E+00  0.86859827557E+01  0.88012894755E+01  0.14200000000E+01 0.  1.
         -4   -1    0    0    0  501 -0.00000000000E+00 -0.00000000000E+00 -0.11284881844E+02  0.11373871735E+02  0.14200000000E+01 0. -1.
       1023    2    1    2    0    0  0.00000000000E+00  0.00000000000E+00 -0.25988990885E+01  0.20175161210E+02  0.20007070085E+02 0.  0.
        -13    1    3    3    0    0 -0.43644871105E+01 -0.89999416812E+01 -0.11897103614E+01  0.10073444358E+02  0.10570000000E+00 0.  1.
         13    1    3    3    0    0  0.43644871105E+01  0.89999416812E+01 -0.14091887272E+01  0.10101716852E+02  0.10570000000E+00 0. -1.
<mgrwt>
<rscale>  0 0.20007070E+02</rscale>
<asrwt>0</asrwt>
<pdfrwt beam="1">  1        4 0.13520202E-02 0.20007070E+02</pdfrwt>
<pdfrwt beam="2">  1       -4 0.17518508E-02 0.20007070E+02</pdfrwt>
<totfact> 0.12994247E+06</totfact>
</mgrwt>
</event>
<event>
 5    1  0.4999405E-007  0.2000184E+02  0.7818608E-02  0.1745291E+00
          4   -1    0    0  501    0  0.00000000000E+00  0.00000000000E+00  0.68128758718E+01  0.69592871506E+01  0.14200000000E+01 0. -1.
         -4   -1    0    0    0  501 -0.00000000000E+00 -0.00000000000E+00 -0.14342876893E+02  0.14412998215E+02  0.14200000000E+01 0.  1.
       1023    2    1    2    0    0  0.00000000000E+00  0.00000000000E+00 -0.75300010209E+01  0.21372285366E+02  0.20001841575E+02 0.  0.
        -13    1    3    3    0    0 -0.25628233138E+01  0.96663828256E+01 -0.37490141601E+01  0.10680510284E+02  0.10570000000E+00 0.  1.
         13    1    3    3    0    0  0.25628233138E+01 -0.96663828256E+01 -0.37809868608E+01  0.10691775082E+02  0.10570000000E+00 0. -1.
<mgrwt>
<rscale>  0 0.20001842E+02</rscale>
<asrwt>0</asrwt>
<pdfrwt beam="1">  1        4 0.10647911E-02 0.20001842E+02</pdfrwt>
<pdfrwt beam="2">  1       -4 0.22232528E-02 0.20001842E+02</pdfrwt>
<totfact> 0.12930418E+06</totfact>
</mgrwt>
</event>
<event>
 5    1  0.4710515E-007  0.2000752E+02  0.7818608E-02  0.1745179E+00
          4   -1    0    0  501    0  0.00000000000E+00  0.00000000000E+00  0.71543684794E+01  0.72939281831E+01  0.14200000000E+01 0. -1.
         -4   -1    0    0    0  501 -0.00000000000E+00 -0.00000000000E+00 -0.13676198266E+02  0.13749719961E+02  0.14200000000E+01 0.  1.
       1023    2    1    2    0    0  0.00000000000E+00  0.00000000000E+00 -0.65218297869E+01  0.21043648145E+02  0.20007520173E+02 0.  0.
        -13    1    3    3    0    0  0.32107166638E+01  0.94738817860E+01 -0.32292600409E+01  0.10512013627E+02  0.10570000000E+00 0.  1.
         13    1    3    3    0    0 -0.32107166638E+01 -0.94738817860E+01 -0.32925697460E+01  0.10531634518E+02  0.10570000000E+00 0. -1.
<mgrwt>
<rscale>  0 0.20007520E+02</rscale>
<asrwt>0</asrwt>
<pdfrwt beam="1">  1        4 0.11170629E-02 0.20007520E+02</pdfrwt>
<pdfrwt beam="2">  1       -4 0.21204214E-02 0.20007520E+02</pdfrwt>
<totfact> 0.12942243E+06</totfact>
</mgrwt>
</event>
<event>
 5    1  0.4710515E-007  0.2000860E+02  0.7818608E-02  0.1745157E+00
         -4   -1    0    0    0  501 -0.00000000000E+00  0.00000000000E+00  0.73944252892E+02  0.73957886231E+02  0.14200000000E+01 0.  1.
          4   -1    0    0  501    0  0.00000000000E+00 -0.00000000000E+00 -0.96347357268E+00  0.17160073791E+01  0.14200000000E+01 0. -1.
       1023    2    1    2    0    0  0.00000000000E+00  0.00000000000E+00  0.72980779319E+02  0.75673893610E+02  0.20008598753E+02 0.  0.
        -13    1    3    3    0    0  0.89094223929E+01 -0.45430231437E+01  0.37400972186E+02  0.38715123138E+02  0.10570000000E+00 0.  1.
         13    1    3    3    0    0 -0.89094223929E+01  0.45430231437E+01  0.35579807133E+02  0.36958770472E+02  0.10570000000E+00 0. -1.
<mgrwt>
<rscale>  0 0.20008599E+02</rscale>
<asrwt>0</asrwt>
<pdfrwt beam="2">  1        4 0.20716260E-03 0.20008599E+02</pdfrwt>
<pdfrwt beam="1">  1       -4 0.11434977E-01 0.20008599E+02</pdfrwt>
<totfact> 0.10545804E+06</totfact>
</mgrwt>
</event>
<event>
 4    1  0.5886742E-007  0.2192849E+02  0.7818608E-02  0.1709492E+00
          4   -1    0    0  501    0  0.00000000000E+00  0.00000000000E+00  0.13145106455E+02  0.13221581741E+02  0.14200000000E+01 0. -1.
         -4   -1    0    0    0  501 -0.00000000000E+00 -0.00000000000E+00 -0.89862941545E+01  0.90977954820E+01  0.14200000000E+01 0.  1.
        -13    1    1    2    0    0 -0.91308216241E+01  0.56544181184E+01  0.43230588135E+01  0.11577752709E+02  0.10570000000E+00 0. -1.
         13    1    1    2    0    0  0.91308216241E+01 -0.56544181184E+01 -0.16424651279E+00  0.10741624514E+02  0.10570000000E+00 0.  1.
<mgrwt>
<rscale>  0 0.21928495E+02</rscale>
<asrwt>0</asrwt>
<pdfrwt beam="1">  1        4 0.20367838E-02 0.21928495E+02</pdfrwt>
<pdfrwt beam="2">  1       -4 0.13969665E-02 0.21928495E+02</pdfrwt>
<totfact> 0.10640023E+06</totfact>
</mgrwt>
</event>
<event>
 5    1  0.4710515E-007  0.2000601E+02  0.7818608E-02  0.1745209E+00
         -4   -1    0    0    0  501 -0.00000000000E+00  0.00000000000E+00  0.89262018997E+00  0.16772509662E+01  0.14200000000E+01 0. -1.
          4   -1    0    0  501    0  0.00000000000E+00 -0.00000000000E+00 -0.77078552890E+02  0.77091631943E+02  0.14200000000E+01 0.  1.
       1023    2    1    2    0    0  0.00000000000E+00  0.00000000000E+00 -0.76185932700E+02  0.78768882909E+02  0.20006013430E+02 0.  0.
        -13    1    3    3    0    0 -0.71446745307E+01 -0.69995042828E+01 -0.38477459490E+02  0.39756326486E+02  0.10570000000E+00 0.  1.
         13    1    3    3    0    0  0.71446745307E+01  0.69995042828E+01 -0.37708473211E+02  0.39012556424E+02  0.10570000000E+00 0. -1.
<mgrwt>
<rscale>  0 0.20006013E+02</rscale>
<asrwt>0</asrwt>
<pdfrwt beam="2">  1        4 0.11919598E-01 0.20006013E+02</pdfrwt>
<pdfrwt beam="1">  1       -4 0.19868854E-03 0.20006013E+02</pdfrwt>
<totfact> 0.10445296E+06</totfact>
</mgrwt>
</event>
<event>
 5    1  0.4904912E-007  0.2000187E+02  0.7818608E-02  0.1745291E+00
          4   -1    0    0  501    0  0.00000000000E+00  0.00000000000E+00  0.12808429303E+02  0.12886902700E+02  0.14200000000E+01 0.  1.
         -4   -1    0    0    0  501 -0.00000000000E+00 -0.00000000000E+00 -0.76408849556E+01  0.77717129968E+01  0.14200000000E+01 0. -1.
       1023    2    1    2    0    0  0.00000000000E+00  0.00000000000E+00  0.51675443470E+01  0.20658615697E+02  0.20001872111E+02 0.  0.
        -13    1    3    3    0    0  0.29835349574E+01 -0.95449327469E+01  0.25650807829E+01  0.10324632386E+02  0.10570000000E+00 0. -1.
         13    1    3    3    0    0 -0.29835349574E+01  0.95449327469E+01  0.26024635641E+01  0.10333983311E+02  0.10570000000E+00 0.  1.
<mgrwt>
<rscale>  0 0.20001872E+02</rscale>
<asrwt>0</asrwt>
<pdfrwt beam="1">  1        4 0.19866277E-02 0.20001872E+02</pdfrwt>
<pdfrwt beam="2">  1       -4 0.11916209E-02 0.20001872E+02</pdfrwt>
<totfact> 0.12972465E+06</totfact>
</mgrwt>
</event>
<event>
 5    1  0.4878297E-007  0.2000185E+02  0.7818608E-02  0.1745291E+00
          4   -1    0    0  501    0  0.00000000000E+00  0.00000000000E+00  0.67201351393E+01  0.68685235888E+01  0.14200000000E+01 0.  1.
         -4   -1    0    0    0  501 -0.00000000000E+00 -0.00000000000E+00 -0.14537521160E+02  0.14606708099E+02  0.14200000000E+01 0. -1.
       1023    2    1    2    0    0  0.00000000000E+00  0.00000000000E+00 -0.78173860208E+01  0.21475231687E+02  0.20001851210E+02 0.  0.
        -13    1    3    3    0    0  0.58139904868E+01  0.81365079249E+01 -0.38595634262E+01  0.10719731756E+02  0.10570000000E+00 0. -1.
         13    1    3    3    0    0 -0.58139904868E+01 -0.81365079249E+01 -0.39578225945E+01  0.10755499931E+02  0.10570000000E+00 0.  1.
<mgrwt>
<rscale>  0 0.20001851E+02</rscale>
<asrwt>0</asrwt>
<pdfrwt beam="1">  1        4 0.10506035E-02 0.20001851E+02</pdfrwt>
<pdfrwt beam="2">  1       -4 0.22532783E-02 0.20001851E+02</pdfrwt>
<totfact> 0.12924374E+06</totfact>
</mgrwt>
</event>
<event>
 5    1  0.4710515E-007  0.2000179E+02  0.7818608E-02  0.1745293E+00
          4   -1    0    0  501    0  0.00000000000E+00  0.00000000000E+00  0.89972077271E+02  0.89983282272E+02  0.14200000000E+01 0.  1.
         -4   -1    0    0    0  501 -0.00000000000E+00 -0.00000000000E+00 -0.64222562677E+00  0.15584780254E+01  0.14200000000E+01 0. -1.
       1023    2    1    2    0    0  0.00000000000E+00  0.00000000000E+00  0.89329851644E+02  0.91541760297E+02  0.20001787010E+02 0.  0.
        -13    1    3    3    0    0  0.56076250179E+00  0.99845751889E+01  0.44767480189E+02  0.45870956511E+02  0.10570000000E+00 0.  1.
         13    1    3    3    0    0 -0.56076250179E+00 -0.99845751889E+01  0.44562371455E+02  0.45670803786E+02  0.10570000000E+00 0. -1.
<mgrwt>
<rscale>  0 0.20001787E+02</rscale>
<asrwt>0</asrwt>
<pdfrwt beam="1">  1        4 0.13913208E-01 0.20001787E+02</pdfrwt>
<pdfrwt beam="2">  1       -4 0.17014673E-03 0.20001787E+02</pdfrwt>
<totfact> 0.10047200E+06</totfact>
</mgrwt>
</event>
<event>
 5    1  0.4710515E-007  0.2000208E+02  0.7818608E-02  0.1745287E+00
         -4   -1    0    0    0  501 -0.00000000000E+00  0.00000000000E+00  0.70357544038E+01  0.71776207778E+01  0.14200000000E+01 0. -1.
          4   -1    0    0  501    0  0.00000000000E+00 -0.00000000000E+00 -0.13895775529E+02  0.13968141521E+02  0.14200000000E+01 0.  1.
       1023    2    1    2    0    0  0.00000000000E+00  0.00000000000E+00 -0.68600211250E+01  0.21145762299E+02  0.20002084225E+02 0.  0.
        -13    1    3    3    0    0  0.71734103682E+01 -0.69675763866E+01 -0.33572736808E+01  0.10549284150E+02  0.10570000000E+00 0.  1.
         13    1    3    3    0    0 -0.71734103682E+01  0.69675763866E+01 -0.35027474443E+01  0.10596478149E+02  0.10570000000E+00 0. -1.
<mgrwt>
<rscale>  0 0.20002084E+02</rscale>
<asrwt>0</asrwt>
<pdfrwt beam="2">  1        4 0.21542910E-02 0.20002084E+02</pdfrwt>
<pdfrwt beam="1">  1       -4 0.10989032E-02 0.20002084E+02</pdfrwt>
<totfact> 0.12943405E+06</totfact>
</mgrwt>
</event>
<event>
 4    1  0.4710515E-007  0.2003583E+02  0.7818608E-02  0.1744616E+00
         -4   -1    0    0    0  501 -0.00000000000E+00  0.00000000000E+00  0.10209518188E+02  0.10307796158E+02  0.14200000000E+01 0. -1.
          4   -1    0    0  501    0  0.00000000000E+00 -0.00000000000E+00 -0.96322439558E+01  0.97363506317E+01  0.14200000000E+01 0.  1.
        -13    1    1    2    0    0 -0.92091042922E+01 -0.39317417397E+01  0.57384538582E+00  0.10030287433E+02  0.10570000000E+00 0. -1.
         13    1    1    2    0    0  0.92091042922E+01  0.39317417397E+01  0.34288467665E-02  0.10013859357E+02  0.10570000000E+00 0.  1.
<mgrwt>
<rscale>  0 0.20035832E+02</rscale>
<asrwt>0</asrwt>
<pdfrwt beam="2">  1        4 0.14974517E-02 0.20035832E+02</pdfrwt>
<pdfrwt beam="1">  1       -4 0.15862632E-02 0.20035832E+02</pdfrwt>
<totfact> 0.12963941E+06</totfact>
</mgrwt>
</event>
<event>
 5    1  0.5251749E-007  0.2000160E+02  0.7818608E-02  0.1745296E+00
          4   -1    0    0  501    0  0.00000000000E+00  0.00000000000E+00  0.11863805905E+02  0.11948484864E+02  0.14200000000E+01 0. -1.
         -4   -1    0    0    0  501 -0.00000000000E+00 -0.00000000000E+00 -0.82548544500E+01  0.83760982557E+01  0.14200000000E+01 0.  1.
       1023    2    1    2    0    0  0.00000000000E+00  0.00000000000E+00  0.36089514547E+01  0.20324583120E+02  0.20001603645E+02 0.  0.
        -13    1    3    3    0    0 -0.96690548067E+01  0.25522940243E+01  0.17981327721E+01  0.10161165268E+02  0.10570000000E+00 0.  1.
         13    1    3    3    0    0  0.96690548067E+01 -0.25522940243E+01  0.18108186826E+01  0.10163417852E+02  0.10570000000E+00 0. -1.
<mgrwt>
<rscale>  0 0.20001604E+02</rscale>
<asrwt>0</asrwt>
<pdfrwt beam="1">  1        4 0.18410411E-02 0.20001604E+02</pdfrwt>
<pdfrwt beam="2">  1       -4 0.12858178E-02 0.20001604E+02</pdfrwt>
<totfact> 0.12992600E+06</totfact>
</mgrwt>
</event>
<event>
 4    1  0.4710515E-007  0.2011321E+02  0.7818608E-02  0.1743086E+00
          4   -1    0    0  501    0  0.00000000000E+00  0.00000000000E+00  0.58247953010E+00  0.15348232481E+01  0.14200000000E+01 0.  1.
         -4   -1    0    0    0  501 -0.00000000000E+00 -0.00000000000E+00 -0.94572177120E+02  0.94582837160E+02  0.14200000000E+01 0. -1.
        -13    1    1    2    0    0  0.99981793933E+01 -0.10772905398E+01 -0.47020467612E+02  0.48083881843E+02  0.10570000000E+00 0.  1.
         13    1    1    2    0    0 -0.99981793933E+01  0.10772905398E+01 -0.46969229977E+02  0.48033778565E+02  0.10570000000E+00 0. -1.
<mgrwt>
<rscale>  0 0.20113214E+02</rscale>
<asrwt>0</asrwt>
<pdfrwt beam="1">  1        4 0.16368952E-03 0.20113214E+02</pdfrwt>
<pdfrwt beam="2">  1       -4 0.14623636E-01 0.20113214E+02</pdfrwt>
<totfact> 0.98020573E+05</totfact>
</mgrwt>
</event>
<event>
 5    1  0.4710515E-007  0.2000475E+02  0.7818608E-02  0.1745234E+00
         -4   -1    0    0    0  501 -0.00000000000E+00  0.00000000000E+00  0.77752223257E+01  0.79038270612E+01  0.14200000000E+01 0.  1.
          4   -1    0    0  501    0  0.00000000000E+00 -0.00000000000E+00 -0.12593099702E+02  0.12672906537E+02  0.14200000000E+01 0. -1.
       1023    2    1    2    0    0  0.00000000000E+00  0.00000000000E+00 -0.48178773762E+01  0.20576733598E+02  0.20004750015E+02 0.  0.
        -13    1    3    3    0    0 -0.46702980058E+01 -0.88434394853E+01 -0.22700676331E+01  0.10255851254E+02  0.10570000000E+00 0. -1.
         13    1    3    3    0    0  0.46702980058E+01  0.88434394853E+01 -0.25478097431E+01  0.10320882345E+02  0.10570000000E+00 0.  1.
<mgrwt>
<rscale>  0 0.20004750E+02</rscale>
<asrwt>0</asrwt>
<pdfrwt beam="2">  1        4 0.19534316E-02 0.20004750E+02</pdfrwt>
<pdfrwt beam="1">  1       -4 0.12122197E-02 0.20004750E+02</pdfrwt>
<totfact> 0.12973492E+06</totfact>
</mgrwt>
</event>
<event>
 5    1  0.4710515E-007  0.2000475E+02  0.7818608E-02  0.1745234E+00
          4   -1    0    0  501    0  0.00000000000E+00  0.00000000000E+00  0.80154167918E+02  0.80166745192E+02  0.14200000000E+01 0.  1.
         -4   -1    0    0    0  501 -0.00000000000E+00 -0.00000000000E+00 -0.82746239763E+00  0.16435005383E+01  0.14200000000E+01 0. -1.
       1023    2    1    2    0    0  0.00000000000E+00  0.00000000000E+00  0.79326705521E+02  0.81810245730E+02  0.20004751878E+02 0.  0.
        -13    1    3    3    0    0  0.29143686403E+01 -0.95663247955E+01  0.38976148467E+02  0.40238780256E+02  0.10570000000E+00 0. -1.
         13    1    3    3    0    0 -0.29143686403E+01  0.95663247955E+01  0.40350557054E+02  0.41571465474E+02  0.10570000000E+00 0.  1.
<mgrwt>
<rscale>  0 0.20004752E+02</rscale>
<asrwt>0</asrwt>
<pdfrwt beam="1">  1        4 0.12395151E-01 0.20004752E+02</pdfrwt>
<pdfrwt beam="2">  1       -4 0.19104153E-03 0.20004752E+02</pdfrwt>
<totfact> 0.10347464E+06</totfact>
</mgrwt>
</event>
<event>
 5    1  0.4710515E-007  0.2000339E+02  0.7818608E-02  0.1745261E+00
         -4   -1    0    0    0  501 -0.00000000000E+00  0.00000000000E+00  0.21681408066E+00  0.14364568722E+01  0.14200000000E+01 0. -1.
          4   -1    0    0  501    0  0.00000000000E+00 -0.00000000000E+00 -0.11978638127E+03  0.11979479763E+03  0.14200000000E+01 0.  1.
       1023    2    1    2    0    0  0.00000000000E+00  0.00000000000E+00 -0.11956956719E+03  0.12123125450E+03  0.20003391434E+02 0.  0.
        -13    1    3    3    0    0 -0.10000419797E+02 -0.92543851013E-01 -0.59323854309E+02  0.60161015808E+02  0.10570000000E+00 0. -1.
         13    1    3    3    0    0  0.10000419797E+02  0.92543851013E-01 -0.60245712884E+02  0.61070238691E+02  0.10570000000E+00 0.  1.
<mgrwt>
<rscale>  0 0.20003391E+02</rscale>
<asrwt>0</asrwt>
<pdfrwt beam="2">  1        4 0.18523126E-01 0.20003391E+02</pdfrwt>
<pdfrwt beam="1">  1       -4 0.12782220E-03 0.20003391E+02</pdfrwt>
<totfact> 0.92318066E+05</totfact>
</mgrwt>
</event>
<event>
 5    1  0.4710515E-007  0.2000871E+02  0.7818608E-02  0.1745155E+00
         -4   -1    0    0    0  501 -0.00000000000E+00  0.00000000000E+00  0.21886573836E+01  0.26089501994E+01  0.14200000000E+01 0.  1.
          4   -1    0    0  501    0  0.00000000000E+00 -0.00000000000E+00 -0.41290202226E+02  0.41314612426E+02  0.14200000000E+01 0. -1.
       1023    2    1    2    0    0  0.00000000000E+00  0.00000000000E+00 -0.39101544843E+02  0.43923562625E+02  0.20008711718E+02 0.  0.
        -13    1    3    3    0    0  0.94000721720E+01 -0.34226589489E+01 -0.19558546076E+02  0.21968701560E+02  0.10570000000E+00 0. -1.
         13    1    3    3    0    0 -0.94000721720E+01  0.34226589489E+01 -0.19542998767E+02  0.21954861066E+02  0.10570000000E+00 0.  1.
<mgrwt>
<rscale>  0 0.20008712E+02</rscale>
<asrwt>0</asrwt>
<pdfrwt beam="2">  1        4 0.63865462E-02 0.20008712E+02</pdfrwt>
<pdfrwt beam="1">  1       -4 0.37092448E-03 0.20008712E+02</pdfrwt>
<totfact> 0.11773303E+06</totfact>
</mgrwt>
</event>
<event>
 5    1  0.4710515E-007  0.2000163E+02  0.7818608E-02  0.1745296E+00
         -4   -1    0    0    0  501 -0.00000000000E+00  0.00000000000E+00  0.28432708389E+02  0.28468145467E+02  0.14200000000E+01 0. -1.
          4   -1    0    0  501    0  0.00000000000E+00 -0.00000000000E+00 -0.33350734182E+01  0.36247916775E+01  0.14200000000E+01 0.  1.
       1023    2    1    2    0    0  0.00000000000E+00  0.00000000000E+00  0.25097634971E+02  0.32092937145E+02  0.20001633269E+02 0.  0.
        -13    1    3    3    0    0  0.12361419116E+01  0.99233823136E+01  0.12645055045E+02  0.16121729217E+02  0.10570000000E+00 0. -1.
         13    1    3    3    0    0 -0.12361419116E+01 -0.99233823136E+01  0.12452579926E+02  0.15971207928E+02  0.10570000000E+00 0.  1.
<mgrwt>
<rscale>  0 0.20001633E+02</rscale>
<asrwt>0</asrwt>
<pdfrwt beam="2">  1        4 0.53810018E-03 0.20001633E+02</pdfrwt>
<pdfrwt beam="1">  1       -4 0.43992746E-02 0.20001633E+02</pdfrwt>
<totfact> 0.12345673E+06</totfact>
</mgrwt>
</event>
<event>
 5    1  0.4790585E-007  0.2000144E+02  0.7818608E-02  0.1745299E+00
          4   -1    0    0  501    0  0.00000000000E+00  0.00000000000E+00  0.16920117903E+01  0.22089146426E+01  0.14200000000E+01 0.  1.
         -4   -1    0    0    0  501 -0.00000000000E+00 -0.00000000000E+00 -0.50749102880E+02  0.50768965354E+02  0.14200000000E+01 0. -1.
       1023    2    1    2    0    0  0.00000000000E+00  0.00000000000E+00 -0.49057091089E+02  0.52977879997E+02  0.20001439517E+02 0.  0.
        -13    1    3    3    0    0 -0.52107206349E+01  0.85351425655E+01 -0.24384560976E+02  0.26355611445E+02  0.10570000000E+00 0.  1.
         13    1    3    3    0    0  0.52107206349E+01 -0.85351425655E+01 -0.24672530113E+02  0.26622268552E+02  0.10570000000E+00 0. -1.
<mgrwt>
<rscale>  0 0.20001440E+02</rscale>
<asrwt>0</asrwt>
<pdfrwt beam="1">  1        4 0.30159919E-03 0.20001440E+02</pdfrwt>
<pdfrwt beam="2">  1       -4 0.78488429E-02 0.20001440E+02</pdfrwt>
<totfact> 0.11395116E+06</totfact>
</mgrwt>
</event>
<event>
 5    1  0.4710515E-007  0.2000589E+02  0.7818608E-02  0.1745211E+00
         -4   -1    0    0    0  501 -0.00000000000E+00  0.00000000000E+00  0.18309841892E+02  0.18364822626E+02  0.14200000000E+01 0.  1.
          4   -1    0    0  501    0  0.00000000000E+00 -0.00000000000E+00 -0.53081224987E+01  0.54947761065E+01  0.14200000000E+01 0. -1.
       1023    2    1    2    0    0  0.00000000000E+00  0.00000000000E+00  0.13001719393E+02  0.23859598733E+02  0.20005892745E+02 0.  0.
        -13    1    3    3    0    0 -0.31140455871E+01 -0.95048340986E+01  0.63901796605E+01  0.11869486920E+02  0.10570000000E+00 0. -1.
         13    1    3    3    0    0  0.31140455871E+01  0.95048340986E+01  0.66115397324E+01  0.11990111813E+02  0.10570000000E+00 0.  1.
<mgrwt>
<rscale>  0 0.20005893E+02</rscale>
<asrwt>0</asrwt>
<pdfrwt beam="2">  1        4 0.83522150E-03 0.20005893E+02</pdfrwt>
<pdfrwt beam="1">  1       -4 0.28354860E-02 0.20005893E+02</pdfrwt>
<totfact> 0.12782013E+06</totfact>
</mgrwt>
</event>
<event>
 5    1  0.4710515E-007  0.2000188E+02  0.7818608E-02  0.1745291E+00
          4   -1    0    0  501    0  0.00000000000E+00  0.00000000000E+00  0.98867089158E+00  0.17302803622E+01  0.14200000000E+01 0. -1.
         -4   -1    0    0    0  501 -0.00000000000E+00 -0.00000000000E+00 -0.72821214196E+02  0.72835057747E+02  0.14200000000E+01 0.  1.
       1023    2    1    2    0    0  0.00000000000E+00  0.00000000000E+00 -0.71832543305E+02  0.74565338109E+02  0.20001884155E+02 0.  0.
        -13    1    3    3    0    0  0.16556492783E+01 -0.98621851183E+01 -0.35686464397E+02  0.37061284159E+02  0.10570000000E+00 0. -1.
         13    1    3    3    0    0 -0.16556492783E+01  0.98621851183E+01 -0.36146078907E+02  0.37504053950E+02  0.10570000000E+00 0.  1.
<mgrwt>
<rscale>  0 0.20001884E+02</rscale>
<asrwt>0</asrwt>
<pdfrwt beam="1">  1        4 0.21021504E-03 0.20001884E+02</pdfrwt>
<pdfrwt beam="2">  1       -4 0.11261372E-01 0.20001884E+02</pdfrwt>
<totfact> 0.10590496E+06</totfact>
</mgrwt>
</event>
<event>
 5    1  0.4710515E-007  0.2000377E+02  0.7818608E-02  0.1745253E+00
         -4   -1    0    0    0  501 -0.00000000000E+00  0.00000000000E+00  0.24610706284E+01  0.28413497916E+01  0.14200000000E+01 0. -1.
          4   -1    0    0  501    0  0.00000000000E+00 -0.00000000000E+00 -0.37338105779E+02  0.37365097928E+02  0.14200000000E+01 0.  1.
       1023    2    1    2    0    0  0.00000000000E+00  0.00000000000E+00 -0.34877035150E+02  0.40206447719E+02  0.20003771077E+02 0.  0.
        -13    1    3    3    0    0 -0.79091900133E+01  0.61210291773E+01 -0.17569657480E+02  0.20216981013E+02  0.10570000000E+00 0.  1.
         13    1    3    3    0    0  0.79091900133E+01 -0.61210291773E+01 -0.17307377671E+02  0.19989466706E+02  0.10570000000E+00 0. -1.
<mgrwt>
<rscale>  0 0.20003771E+02</rscale>
<asrwt>0</asrwt>
<pdfrwt beam="2">  1        4 0.57756522E-02 0.20003771E+02</pdfrwt>
<pdfrwt beam="1">  1       -4 0.40995484E-03 0.20003771E+02</pdfrwt>
<totfact> 0.11948451E+06</totfact>
</mgrwt>
</event>
<event>
 4    1  0.4710515E-007  0.2008899E+02  0.7818608E-02  0.1743564E+00
         -4   -1    0    0    0  501 -0.00000000000E+00  0.00000000000E+00  0.71512858275E+00  0.15899084533E+01  0.14200000000E+01 0.  1.
          4   -1    0    0  501    0  0.00000000000E+00 -0.00000000000E+00 -0.86657588696E+02  0.86669222211E+02  0.14200000000E+01 0. -1.
        -13    1    1    2    0    0  0.69631951409E+01 -0.72205627384E+01 -0.40739057150E+02  0.41955983636E+02  0.10570000000E+00 0.  1.
         13    1    1    2    0    0 -0.69631951409E+01  0.72205627384E+01 -0.45203402963E+02  0.46303147029E+02  0.10570000000E+00 0. -1.
<mgrwt>
<rscale>  0 0.20088994E+02</rscale>
<asrwt>0</asrwt>
<pdfrwt beam="2">  1        4 0.13400117E-01 0.20088994E+02</pdfrwt>
<pdfrwt beam="1">  1       -4 0.17820550E-03 0.20088994E+02</pdfrwt>
<totfact> 0.10059322E+06</totfact>
</mgrwt>
</event>
<event>
 5    1  0.4710515E-007  0.2000982E+02  0.7818608E-02  0.1745133E+00
          4   -1    0    0  501    0  0.00000000000E+00  0.00000000000E+00  0.39073900684E+02  0.39099694560E+02  0.14200000000E+01 0. -1.
         -4   -1    0    0    0  501 -0.00000000000E+00 -0.00000000000E+00 -0.23362110040E+01  0.27339132860E+01  0.14200000000E+01 0.  1.
       1023    2    1    2    0    0  0.00000000000E+00  0.00000000000E+00  0.36737689680E+02  0.41833607846E+02  0.20009820148E+02 0.  0.
        -13    1    3    3    0    0 -0.15617076819E+01  0.98816957323E+01  0.18399261582E+02  0.20943515481E+02  0.10570000000E+00 0.  1.
         13    1    3    3    0    0  0.15617076819E+01 -0.98816957323E+01  0.18338428098E+02  0.20890092365E+02  0.10570000000E+00 0. -1.
<mgrwt>
<rscale>  0 0.20009820E+02</rscale>
<asrwt>0</asrwt>
<pdfrwt beam="1">  1        4 0.60439453E-02 0.20009820E+02</pdfrwt>
<pdfrwt beam="2">  1       -4 0.39199374E-03 0.20009820E+02</pdfrwt>
<totfact> 0.11866320E+06</totfact>
</mgrwt>
</event>
<event>
 5    1  0.4710515E-007  0.2000716E+02  0.7818608E-02  0.1745186E+00
         -4   -1    0    0    0  501 -0.00000000000E+00  0.00000000000E+00  0.37482182868E+00  0.14686358988E+01  0.14200000000E+01 0.  1.
          4   -1    0    0  501    0  0.00000000000E+00 -0.00000000000E+00 -0.10746819003E+03  0.10747757100E+03  0.14200000000E+01 0. -1.
       1023    2    1    2    0    0  0.00000000000E+00  0.00000000000E+00 -0.10709336820E+03  0.10894620690E+03  0.20007160848E+02 0.  0.
        -13    1    3    3    0    0  0.96674007424E+00  0.99549612968E+01 -0.54400894687E+02  0.55312786551E+02  0.10570000000E+00 0. -1.
         13    1    3    3    0    0 -0.96674007424E+00 -0.99549612968E+01 -0.52692473512E+02  0.53633420347E+02  0.10570000000E+00 0.  1.
<mgrwt>
<rscale>  0 0.20007161E+02</rscale>
<asrwt>0</asrwt>
<pdfrwt beam="2">  1        4 0.16618419E-01 0.20007161E+02</pdfrwt>
<pdfrwt beam="1">  1       -4 0.14252614E-03 0.20007161E+02</pdfrwt>
<totfact> 0.95467687E+05</totfact>
</mgrwt>
</event>
<event>
 5    1  0.4710515E-007  0.2000203E+02  0.7818608E-02  0.1745288E+00
         -4   -1    0    0    0  501 -0.00000000000E+00  0.00000000000E+00  0.19258763337E+02  0.19311042573E+02  0.14200000000E+01 0. -1.
          4   -1    0    0  501    0  0.00000000000E+00 -0.00000000000E+00 -0.50358534715E+01  0.52322289884E+01  0.14200000000E+01 0.  1.
       1023    2    1    2    0    0  0.00000000000E+00  0.00000000000E+00  0.14222909866E+02  0.24543271562E+02  0.20002025245E+02 0.  0.
        -13    1    3    3    0    0 -0.53285145419E+01  0.84626239295E+01  0.71075762731E+01  0.12269388084E+02  0.10570000000E+00 0. -1.
         13    1    3    3    0    0  0.53285145419E+01 -0.84626239295E+01  0.71153335924E+01  0.12273883477E+02  0.10570000000E+00 0.  1.
<mgrwt>
<rscale>  0 0.20002025E+02</rscale>
<asrwt>0</asrwt>
<pdfrwt beam="2">  1        4 0.79387398E-03 0.20002025E+02</pdfrwt>
<pdfrwt beam="1">  1       -4 0.29820139E-02 0.20002025E+02</pdfrwt>
<totfact> 0.12748540E+06</totfact>
</mgrwt>
</event>
<event>
 4    1  0.4710515E-007  0.2001241E+02  0.7818608E-02  0.1745081E+00
         -4   -1    0    0    0  501 -0.00000000000E+00  0.00000000000E+00  0.70502447239E+01  0.71918252667E+01  0.14200000000E+01 0. -1.
          4   -1    0    0  501    0  0.00000000000E+00 -0.00000000000E+00 -0.13882169525E+02  0.13954606075E+02  0.14200000000E+01 0.  1.
        -13    1    1    2    0    0 -0.99781137018E+01  0.72796079719E+00 -0.35662842451E+01  0.10621781196E+02  0.10570000000E+00 0.  1.
         13    1    1    2    0    0  0.99781137018E+01 -0.72796079719E+00 -0.32656405561E+01  0.10524650146E+02  0.10570000000E+00 0. -1.
<mgrwt>
<rscale>  0 0.20012405E+02</rscale>
<asrwt>0</asrwt>
<pdfrwt beam="2">  1        4 0.21521812E-02 0.20012405E+02</pdfrwt>
<pdfrwt beam="1">  1       -4 0.11011159E-02 0.20012405E+02</pdfrwt>
<totfact> 0.12929750E+06</totfact>
</mgrwt>
</event>
<event>
 4    1  0.4710515E-007  0.2002152E+02  0.7818608E-02  0.1744900E+00
         -4   -1    0    0    0  501 -0.00000000000E+00  0.00000000000E+00  0.50457225448E+02  0.50477202775E+02  0.14200000000E+01 0. -1.
          4   -1    0    0  501    0  0.00000000000E+00 -0.00000000000E+00 -0.17092783134E+01  0.22221683898E+01  0.14200000000E+01 0.  1.
        -13    1    1    2    0    0 -0.10007723755E+02  0.47601331632E-01  0.24946846830E+02  0.26879604534E+02  0.10570000000E+00 0. -1.
         13    1    1    2    0    0  0.10007723755E+02 -0.47601331632E-01  0.23801100305E+02  0.25819766631E+02  0.10570000000E+00 0.  1.
<mgrwt>
<rscale>  0 0.20021523E+02</rscale>
<asrwt>0</asrwt>
<pdfrwt beam="2">  1        4 0.30395572E-03 0.20021523E+02</pdfrwt>
<pdfrwt beam="1">  1       -4 0.78036393E-02 0.20021523E+02</pdfrwt>
<totfact> 0.11383454E+06</totfact>
</mgrwt>
</event>
<event>
 5    1  0.4710515E-007  0.2000684E+02  0.7818608E-02  0.1745192E+00
         -4   -1    0    0    0  501 -0.00000000000E+00  0.00000000000E+00  0.41207826386E+01  0.43585834344E+01  0.14200000000E+01 0. -1.
          4   -1    0    0  501    0  0.00000000000E+00 -0.00000000000E+00 -0.23342814156E+02  0.23385965294E+02  0.14200000000E+01 0.  1.
       1023    2    1    2    0    0  0.00000000000E+00  0.00000000000E+00 -0.19222031517E+02  0.27744548728E+02  0.20006836044E+02 0.  0.
        -13    1    3    3    0    0  0.37630314711E+01  0.92664542780E+01 -0.98496779612E+01  0.14037624769E+02  0.10570000000E+00 0.  1.
         13    1    3    3    0    0 -0.37630314711E+01 -0.92664542780E+01 -0.93723535560E+01  0.13706923959E+02  0.10570000000E+00 0. -1.
<mgrwt>
<rscale>  0 0.20006836E+02</rscale>
<asrwt>0</asrwt>
<pdfrwt beam="2">  1        4 0.36128138E-02 0.20006836E+02</pdfrwt>
<pdfrwt beam="1">  1       -4 0.65557826E-03 0.20006836E+02</pdfrwt>
<totfact> 0.12566526E+06</totfact>
</mgrwt>
</event>
<event>
 4    1  0.4710515E-007  0.2002324E+02  0.7818608E-02  0.1744866E+00
         -4   -1    0    0    0  501 -0.00000000000E+00  0.00000000000E+00  0.56061455479E+02  0.56079436431E+02  0.14200000000E+01 0. -1.
          4   -1    0    0  501    0  0.00000000000E+00 -0.00000000000E+00 -0.14847226170E+01  0.20544588703E+01  0.14200000000E+01 0.  1.
        -13    1    1    2    0    0  0.37574255542E+01 -0.92708832123E+01  0.28427003231E+02  0.30135912257E+02  0.10570000000E+00 0. -1.
         13    1    1    2    0    0 -0.37574255542E+01  0.92708832123E+01  0.26149729631E+02  0.27997983045E+02  0.10570000000E+00 0.  1.
<mgrwt>
<rscale>  0 0.20023237E+02</rscale>
<asrwt>0</asrwt>
<pdfrwt beam="2">  1        4 0.27362790E-03 0.20023237E+02</pdfrwt>
<pdfrwt beam="1">  1       -4 0.86700477E-02 0.20023237E+02</pdfrwt>
<totfact> 0.11164885E+06</totfact>
</mgrwt>
</event>
<event>
 5    1  0.4710515E-007  0.2000447E+02  0.7818608E-02  0.1745239E+00
          4   -1    0    0  501    0  0.00000000000E+00  0.00000000000E+00  0.31419123795E+02  0.31451196162E+02  0.14200000000E+01 0. -1.
         -4   -1    0    0    0  501 -0.00000000000E+00 -0.00000000000E+00 -0.29904086220E+01  0.33104295380E+01  0.14200000000E+01 0.  1.
       1023    2    1    2    0    0  0.00000000000E+00  0.00000000000E+00  0.28428715173E+02  0.34761625700E+02  0.20004468874E+02 0.  0.
        -13    1    3    3    0    0 -0.86588452709E+01  0.50034487568E+01  0.14480289110E+02  0.17598296681E+02  0.10570000000E+00 0.  1.
         13    1    3    3    0    0  0.86588452709E+01 -0.50034487568E+01  0.13948426063E+02  0.17163329019E+02  0.10570000000E+00 0. -1.
<mgrwt>
<rscale>  0 0.20004469E+02</rscale>
<asrwt>0</asrwt>
<pdfrwt beam="1">  1        4 0.48607956E-02 0.20004469E+02</pdfrwt>
<pdfrwt beam="2">  1       -4 0.48714695E-03 0.20004469E+02</pdfrwt>
<totfact> 0.12208216E+06</totfact>
</mgrwt>
</event>
<event>
 4    1  0.4710515E-007  0.2002347E+02  0.7818608E-02  0.1744862E+00
         -4   -1    0    0    0  501 -0.00000000000E+00  0.00000000000E+00  0.83348707692E+01  0.84549672229E+01  0.14200000000E+01 0.  1.
          4   -1    0    0  501    0  0.00000000000E+00 -0.00000000000E+00 -0.11776889874E+02  0.11862189305E+02  0.14200000000E+01 0. -1.
        -13    1    1    2    0    0 -0.61355400351E+01 -0.79057382864E+01 -0.20046023841E+01  0.10206622976E+02  0.10570000000E+00 0. -1.
         13    1    1    2    0    0  0.61355400351E+01  0.79057382864E+01 -0.14374167208E+01  0.10110533551E+02  0.10570000000E+00 0.  1.
<mgrwt>
<rscale>  0 0.20023470E+02</rscale>
<asrwt>0</asrwt>
<pdfrwt beam="2">  1        4 0.18276289E-02 0.20023470E+02</pdfrwt>
<pdfrwt beam="1">  1       -4 0.12980875E-02 0.20023470E+02</pdfrwt>
<totfact> 0.12964093E+06</totfact>
</mgrwt>
</event>
<event>
 5    1  0.5033712E-007  0.2000136E+02  0.7818608E-02  0.1745301E+00
         -4   -1    0    0    0  501 -0.00000000000E+00  0.00000000000E+00  0.33047487773E+01  0.35969104077E+01  0.14200000000E+01 0.  1.
          4   -1    0    0  501    0  0.00000000000E+00 -0.00000000000E+00 -0.28672013414E+02  0.28707155087E+02  0.14200000000E+01 0. -1.
       1023    2    1    2    0    0  0.00000000000E+00  0.00000000000E+00 -0.25367264636E+02  0.32304065495E+02  0.20001363263E+02 0.  0.
        -13    1    3    3    0    0 -0.79736196178E+01  0.60350385540E+01 -0.12608561850E+02  0.16093082507E+02  0.10570000000E+00 0.  1.
         13    1    3    3    0    0  0.79736196178E+01 -0.60350385540E+01 -0.12758702787E+02  0.16210982988E+02  0.10570000000E+00 0. -1.
<mgrwt>
<rscale>  0 0.20001363E+02</rscale>
<asrwt>0</asrwt>
<pdfrwt beam="2">  1        4 0.44362560E-02 0.20001363E+02</pdfrwt>
<pdfrwt beam="1">  1       -4 0.53360008E-03 0.20001363E+02</pdfrwt>
<totfact> 0.12335256E+06</totfact>
</mgrwt>
</event>
<event>
 4    1  0.4710515E-007  0.2003720E+02  0.7818608E-02  0.1744589E+00
         -4   -1    0    0    0  501 -0.00000000000E+00  0.00000000000E+00  0.15427811642E+02  0.15493023335E+02  0.14200000000E+01 0. -1.
          4   -1    0    0  501    0  0.00000000000E+00 -0.00000000000E+00 -0.63484000790E+01  0.65052735195E+01  0.14200000000E+01 0.  1.
        -13    1    1    2    0    0  0.35227923773E+01 -0.93725527691E+01  0.48977428212E+01  0.11146921942E+02  0.10570000000E+00 0.  1.
         13    1    1    2    0    0 -0.35227923773E+01  0.93725527691E+01  0.41816687419E+01  0.10851374913E+02  0.10570000000E+00 0. -1.
<mgrwt>
<rscale>  0 0.20037199E+02</rscale>
<asrwt>0</asrwt>
<pdfrwt beam="2">  1        4 0.99376042E-03 0.20037199E+02</pdfrwt>
<pdfrwt beam="1">  1       -4 0.23905929E-02 0.20037199E+02</pdfrwt>
<totfact> 0.12847530E+06</totfact>
</mgrwt>
</event>
<event>
 5    1  0.4710515E-007  0.2000159E+02  0.7818608E-02  0.1745296E+00
          4   -1    0    0  501    0  0.00000000000E+00  0.00000000000E+00  0.49041088770E+02  0.49061642733E+02  0.14200000000E+01 0.  1.
         -4   -1    0    0    0  501 -0.00000000000E+00 -0.00000000000E+00 -0.17686441738E+01  0.22681495130E+01  0.14200000000E+01 0. -1.
       1023    2    1    2    0    0  0.00000000000E+00  0.00000000000E+00  0.47272444596E+02  0.51329792246E+02  0.20001588787E+02 0.  0.
        -13    1    3    3    0    0 -0.98159042543E+01 -0.19104252073E+01  0.23495305161E+02  0.25535117738E+02  0.10570000000E+00 0.  1.
         13    1    3    3    0    0  0.98159042543E+01  0.19104252073E+01  0.23777139435E+02  0.25794674509E+02  0.10570000000E+00 0. -1.
<mgrwt>
<rscale>  0 0.20001589E+02</rscale>
<asrwt>0</asrwt>
<pdfrwt beam="1">  1        4 0.75847871E-02 0.20001589E+02</pdfrwt>
<pdfrwt beam="2">  1       -4 0.31210368E-03 0.20001589E+02</pdfrwt>
<totfact> 0.11462815E+06</totfact>
</mgrwt>
</event>
<event>
 5    1  0.4710515E-007  0.2000345E+02  0.7818608E-02  0.1745260E+00
          4   -1    0    0  501    0  0.00000000000E+00  0.00000000000E+00  0.55807551186E+00  0.15257287691E+01  0.14200000000E+01 0. -1.
         -4   -1    0    0    0  501 -0.00000000000E+00 -0.00000000000E+00 -0.95035955470E+02  0.95046563494E+02  0.14200000000E+01 0.  1.
       1023    2    1    2    0    0  0.00000000000E+00  0.00000000000E+00 -0.94477879958E+02  0.96572292263E+02  0.20003445494E+02 0.  0.
        -13    1    3    3    0    0  0.96633027696E+01  0.25770117782E+01 -0.47497814482E+02  0.48539406292E+02  0.10570000000E+00 0. -1.
         13    1    3    3    0    0 -0.96633027696E+01 -0.25770117782E+01 -0.46980065475E+02  0.48032885971E+02  0.10570000000E+00 0.  1.
<mgrwt>
<rscale>  0 0.20003445E+02</rscale>
<asrwt>0</asrwt>
<pdfrwt beam="1">  1        4 0.16110871E-03 0.20003445E+02</pdfrwt>
<pdfrwt beam="2">  1       -4 0.14696160E-01 0.20003445E+02</pdfrwt>
<totfact> 0.98965590E+05</totfact>
</mgrwt>
</event>
<event>
 5    1  0.4710515E-007  0.2000287E+02  0.7818608E-02  0.1745271E+00
          4   -1    0    0  501    0  0.00000000000E+00  0.00000000000E+00  0.97900457083E+00  0.17247753331E+01  0.14200000000E+01 0.  1.
         -4   -1    0    0    0  501 -0.00000000000E+00 -0.00000000000E+00 -0.73237208447E+02  0.73250973380E+02  0.14200000000E+01 0. -1.
       1023    2    1    2    0    0  0.00000000000E+00  0.00000000000E+00 -0.72258203876E+02  0.74975748713E+02  0.20002871486E+02 0.  0.
        -13    1    3    3    0    0  0.12115706192E+01  0.99270186504E+01 -0.35893773429E+02  0.37261075482E+02  0.10570000000E+00 0.  1.
         13    1    3    3    0    0 -0.12115706192E+01 -0.99270186504E+01 -0.36364430448E+02  0.37714673231E+02  0.10570000000E+00 0. -1.
<mgrwt>
<rscale>  0 0.20002871E+02</rscale>
<asrwt>0</asrwt>
<pdfrwt beam="1">  1        4 0.20904197E-03 0.20002871E+02</pdfrwt>
<pdfrwt beam="2">  1       -4 0.11325686E-01 0.20002871E+02</pdfrwt>
<totfact> 0.10575493E+06</totfact>
</mgrwt>
</event>
<event>
 4    1  0.4710515E-007  0.2001774E+02  0.7818608E-02  0.1744975E+00
         -4   -1    0    0    0  501 -0.00000000000E+00  0.00000000000E+00  0.67502835691E+02  0.67517769707E+02  0.14200000000E+01 0.  1.
          4   -1    0    0  501    0  0.00000000000E+00 -0.00000000000E+00 -0.11257337446E+01  0.18120917371E+01  0.14200000000E+01 0. -1.
        -13    1    1    2    0    0 -0.41998734746E+01  0.90841189063E+01  0.32916274633E+02  0.34404250634E+02  0.10570000000E+00 0. -1.
         13    1    1    2    0    0  0.41998734746E+01 -0.90841189063E+01  0.33460827313E+02  0.34925610811E+02  0.10570000000E+00 0.  1.
<mgrwt>
<rscale>  0 0.20017743E+02</rscale>
<asrwt>0</asrwt>
<pdfrwt beam="2">  1        4 0.22713531E-03 0.20017743E+02</pdfrwt>
<pdfrwt beam="1">  1       -4 0.10438999E-01 0.20017743E+02</pdfrwt>
<totfact> 0.10755360E+06</totfact>
</mgrwt>
</event>
<event>
 5    1  0.4710515E-007  0.2000472E+02  0.7818608E-02  0.1745234E+00
         -4   -1    0    0    0  501 -0.00000000000E+00  0.00000000000E+00  0.40165090044E+01  0.42601343385E+01  0.14200000000E+01 0. -1.
          4   -1    0    0  501    0  0.00000000000E+00 -0.00000000000E+00 -0.23910494217E+02  0.23952622690E+02  0.14200000000E+01 0.  1.
       1023    2    1    2    0    0  0.00000000000E+00  0.00000000000E+00 -0.19893985213E+02  0.28212757028E+02  0.20004724729E+02 0.  0.
        -13    1    3    3    0    0  0.51347881745E+01 -0.85826401856E+01 -0.10075618502E+02  0.14197077968E+02  0.10570000000E+00 0.  1.
         13    1    3    3    0    0 -0.51347881745E+01  0.85826401856E+01 -0.98183667114E+01  0.14015679060E+02  0.10570000000E+00 0. -1.
<mgrwt>
<rscale>  0 0.20004725E+02</rscale>
<asrwt>0</asrwt>
<pdfrwt beam="2">  1        4 0.37005185E-02 0.20004725E+02</pdfrwt>
<pdfrwt beam="1">  1       -4 0.63990554E-03 0.20004725E+02</pdfrwt>
<totfact> 0.12544136E+06</totfact>
</mgrwt>
</event>
<event>
 5    1  0.4710515E-007  0.2000499E+02  0.7818608E-02  0.1745229E+00
          4   -1    0    0  501    0  0.00000000000E+00  0.00000000000E+00  0.11703125032E+03  0.11703986480E+03  0.14200000000E+01 0. -1.
         -4   -1    0    0    0  501 -0.00000000000E+00 -0.00000000000E+00 -0.25053117544E+00  0.14419312986E+01  0.14200000000E+01 0.  1.
       1023    2    1    2    0    0  0.00000000000E+00  0.00000000000E+00  0.11678071915E+03  0.11848179610E+03  0.20004990425E+02 0.  0.
        -13    1    3    3    0    0  0.75618155884E+01 -0.65465335317E+01  0.58533204949E+02  0.59381692552E+02  0.10570000000E+00 0.  1.
         13    1    3    3    0    0 -0.75618155884E+01  0.65465335317E+01  0.58247514200E+02  0.59100103547E+02  0.10570000000E+00 0. -1.
<mgrwt>
<rscale>  0 0.20004990E+02</rscale>
<asrwt>0</asrwt>
<pdfrwt beam="1">  1        4 0.18097117E-01 0.20004990E+02</pdfrwt>
<pdfrwt beam="2">  1       -4 0.13085207E-03 0.20004990E+02</pdfrwt>
<totfact> 0.92995952E+05</totfact>
</mgrwt>
</event>
<event>
 4    1  0.4710515E-007  0.2001673E+02  0.7818608E-02  0.1744996E+00
         -4   -1    0    0    0  501 -0.00000000000E+00  0.00000000000E+00  0.84245521599E+02  0.84257488151E+02  0.14200000000E+01 0. -1.
          4   -1    0    0  501    0  0.00000000000E+00 -0.00000000000E+00 -0.74858769036E+00  0.16052362848E+01  0.14200000000E+01 0.  1.
        -13    1    1    2    0    0 -0.83607557038E+01 -0.54991226240E+01  0.41248025750E+02  0.42444709757E+02  0.10570000000E+00 0. -1.
         13    1    1    2    0    0  0.83607557038E+01  0.54991226240E+01  0.42248908159E+02  0.43418014679E+02  0.10570000000E+00 0.  1.
<mgrwt>
<rscale>  0 0.20016730E+02</rscale>
<asrwt>0</asrwt>
<pdfrwt beam="2">  1        4 0.18198385E-03 0.20016730E+02</pdfrwt>
<pdfrwt beam="1">  1       -4 0.13027668E-01 0.20016730E+02</pdfrwt>
<totfact> 0.10206484E+06</totfact>
</mgrwt>
</event>
<event>
 5    1  0.4710515E-007  0.2000480E+02  0.7818608E-02  0.1745233E+00
          4   -1    0    0  501    0  0.00000000000E+00  0.00000000000E+00  0.25231040862E+02  0.25270967987E+02  0.14200000000E+01 0. -1.
         -4   -1    0    0    0  501 -0.00000000000E+00 -0.00000000000E+00 -0.37935835707E+01  0.40506389999E+01  0.14200000000E+01 0.  1.
       1023    2    1    2    0    0  0.00000000000E+00  0.00000000000E+00  0.21437457292E+02  0.29321606987E+02  0.20004800953E+02 0.  0.
        -13    1    3    3    0    0 -0.97792187964E+01 -0.20949404667E+01  0.10539531886E+02  0.14529790112E+02  0.10570000000E+00 0.  1.
         13    1    3    3    0    0  0.97792187964E+01  0.20949404667E+01  0.10897925406E+02  0.14791816875E+02  0.10570000000E+00 0. -1.
<mgrwt>
<rscale>  0 0.20004801E+02</rscale>
<asrwt>0</asrwt>
<pdfrwt beam="1">  1        4 0.39045434E-02 0.20004801E+02</pdfrwt>
<pdfrwt beam="2">  1       -4 0.60647305E-03 0.20004801E+02</pdfrwt>
<totfact> 0.12485233E+06</totfact>
</mgrwt>
</event>
<event>
 5    1  0.4710515E-007  0.2000747E+02  0.7818608E-02  0.1745180E+00
          4   -1    0    0  501    0  0.00000000000E+00  0.00000000000E+00  0.89142830632E+00  0.16766169584E+01  0.14200000000E+01 0. -1.
         -4   -1    0    0    0  501 -0.00000000000E+00 -0.00000000000E+00 -0.77144738901E+02  0.77157806734E+02  0.14200000000E+01 0.  1.
       1023    2    1    2    0    0  0.00000000000E+00  0.00000000000E+00 -0.76253310594E+02  0.78834423693E+02  0.20007473163E+02 0.  0.
        -13    1    3    3    0    0  0.74713902690E+01 -0.66505828698E+01 -0.37701399608E+02  0.39005879428E+02  0.10570000000E+00 0.  1.
         13    1    3    3    0    0 -0.74713902690E+01  0.66505828698E+01 -0.38551910986E+02  0.39828544264E+02  0.10570000000E+00 0. -1.
<mgrwt>
<rscale>  0 0.20007473E+02</rscale>
<asrwt>0</asrwt>
<pdfrwt beam="1">  1        4 0.19854722E-03 0.20007473E+02</pdfrwt>
<pdfrwt beam="2">  1       -4 0.11929822E-01 0.20007473E+02</pdfrwt>
<totfact> 0.10441610E+06</totfact>
</mgrwt>
</event>
<event>
 4    1  0.4710515E-007  0.2002511E+02  0.7818608E-02  0.1744829E+00
          4   -1    0    0  501    0  0.00000000000E+00  0.00000000000E+00  0.90885877834E+00  0.16859490737E+01  0.14200000000E+01 0.  1.
         -4   -1    0    0    0  501 -0.00000000000E+00 -0.00000000000E+00 -0.76484982732E+02  0.76498163269E+02  0.14200000000E+01 0. -1.
        -13    1    1    2    0    0 -0.95895335730E+01  0.28757936548E+01 -0.37383972122E+02  0.38701445547E+02  0.10570000000E+00 0. -1.
         13    1    1    2    0    0  0.95895335730E+01 -0.28757936548E+01 -0.38192151831E+02  0.39482666795E+02  0.10570000000E+00 0.  1.
<mgrwt>
<rscale>  0 0.20025107E+02</rscale>
<asrwt>0</asrwt>
<pdfrwt beam="1">  1        4 0.20061455E-03 0.20025107E+02</pdfrwt>
<pdfrwt beam="2">  1       -4 0.11827707E-01 0.20025107E+02</pdfrwt>
<totfact> 0.10444637E+06</totfact>
</mgrwt>
</event>
<event>
 4    1  0.4710515E-007  0.2224992E+02  0.7818608E-02  0.1703965E+00
         -4   -1    0    0    0  501 -0.00000000000E+00  0.00000000000E+00  0.33890873475E+02  0.33920608852E+02  0.14200000000E+01 0. -1.
          4   -1    0    0  501    0  0.00000000000E+00 -0.00000000000E+00 -0.34812275557E+01  0.37597001602E+01  0.14200000000E+01 0.  1.
        -13    1    1    2    0    0 -0.10203244966E+02  0.42329772142E+01  0.17431830127E+02  0.20637446015E+02  0.10570000000E+00 0.  1.
         13    1    1    2    0    0  0.10203244966E+02 -0.42329772142E+01  0.12977815792E+02  0.17042862997E+02  0.10570000000E+00 0. -1.
<mgrwt>
<rscale>  0 0.22249924E+02</rscale>
<asrwt>0</asrwt>
<pdfrwt beam="2">  1        4 0.55928178E-03 0.22249924E+02</pdfrwt>
<pdfrwt beam="1">  1       -4 0.52376888E-02 0.22249924E+02</pdfrwt>
<totfact> 0.96874185E+05</totfact>
</mgrwt>
</event>
<event>
 5    1  0.4747824E-007  0.2000202E+02  0.7818608E-02  0.1745288E+00
         -4   -1    0    0    0  501 -0.00000000000E+00  0.00000000000E+00  0.29570007812E+02  0.29604083536E+02  0.14200000000E+01 0.  1.
          4   -1    0    0  501    0  0.00000000000E+00 -0.00000000000E+00 -0.31957369976E+01  0.34970180093E+01  0.14200000000E+01 0. -1.
       1023    2    1    2    0    0  0.00000000000E+00  0.00000000000E+00  0.26374270815E+02  0.33101101546E+02  0.20002018961E+02 0.  0.
        -13    1    3    3    0    0 -0.93808941812E+01 -0.34640989045E+01  0.13333864188E+02  0.16667461220E+02  0.10570000000E+00 0.  1.
         13    1    3    3    0    0  0.93808941812E+01  0.34640989045E+01  0.13040406627E+02  0.16433640325E+02  0.10570000000E+00 0. -1.
<mgrwt>
<rscale>  0 0.20002019E+02</rscale>
<asrwt>0</asrwt>
<pdfrwt beam="2">  1        4 0.51744854E-03 0.20002019E+02</pdfrwt>
<pdfrwt beam="1">  1       -4 0.45750284E-02 0.20002019E+02</pdfrwt>
<totfact> 0.12294084E+06</totfact>
</mgrwt>
</event>
<event>
 5    1  0.4744655E-007  0.2000174E+02  0.7818608E-02  0.1745293E+00
         -4   -1    0    0    0  501 -0.00000000000E+00  0.00000000000E+00  0.54624643046E+01  0.56440159709E+01  0.14200000000E+01 0.  1.
          4   -1    0    0  501    0  0.00000000000E+00 -0.00000000000E+00 -0.17800348750E+02  0.17856898264E+02  0.14200000000E+01 0. -1.
       1023    2    1    2    0    0  0.00000000000E+00  0.00000000000E+00 -0.12337884445E+02  0.23500914235E+02  0.20001739357E+02 0.  0.
        -13    1    3    3    0    0 -0.16817539081E+01 -0.98578676534E+01 -0.61915718674E+01  0.11762337589E+02  0.10570000000E+00 0.  1.
         13    1    3    3    0    0  0.16817539081E+01  0.98578676534E+01 -0.61463125778E+01  0.11738576646E+02  0.10570000000E+00 0. -1.
<mgrwt>
<rscale>  0 0.20001739E+02</rscale>
<asrwt>0</asrwt>
<pdfrwt beam="2">  1        4 0.27568306E-02 0.20001739E+02</pdfrwt>
<pdfrwt beam="1">  1       -4 0.85869461E-03 0.20001739E+02</pdfrwt>
<totfact> 0.12807744E+06</totfact>
</mgrwt>
</event>
<event>
 5    1  0.4710515E-007  0.2000159E+02  0.7818608E-02  0.1745296E+00
         -4   -1    0    0    0  501 -0.00000000000E+00  0.00000000000E+00  0.55536704997E+01  0.57323342558E+01  0.14200000000E+01 0. -1.
          4   -1    0    0  501    0  0.00000000000E+00 -0.00000000000E+00 -0.17516027029E+02  0.17573491482E+02  0.14200000000E+01 0.  1.
       1023    2    1    2    0    0  0.00000000000E+00  0.00000000000E+00 -0.11962356529E+02  0.23305825738E+02  0.20001588427E+02 0.  0.
        -13    1    3    3    0    0 -0.45010434708E+01  0.89299873376E+01 -0.60107989258E+01  0.11668116489E+02  0.10570000000E+00 0.  1.
         13    1    3    3    0    0  0.45010434708E+01 -0.89299873376E+01 -0.59515576032E+01  0.11637709249E+02  0.10570000000E+00 0. -1.
<mgrwt>
<rscale>  0 0.20001588E+02</rscale>
<asrwt>0</asrwt>
<pdfrwt beam="2">  1        4 0.27129371E-02 0.20001588E+02</pdfrwt>
<pdfrwt beam="1">  1       -4 0.87257456E-03 0.20001588E+02</pdfrwt>
<totfact> 0.12819038E+06</totfact>
</mgrwt>
</event>
<event>
 5    1  0.4710515E-007  0.2000298E+02  0.7818608E-02  0.1745269E+00
         -4   -1    0    0    0  501 -0.00000000000E+00  0.00000000000E+00  0.26162533326E+02  0.26201041010E+02  0.14200000000E+01 0. -1.
          4   -1    0    0  501    0  0.00000000000E+00 -0.00000000000E+00 -0.36486928513E+01  0.39152725989E+01  0.14200000000E+01 0.  1.
       1023    2    1    2    0    0  0.00000000000E+00  0.00000000000E+00  0.22513840474E+02  0.30116313609E+02  0.20002983090E+02 0.  0.
        -13    1    3    3    0    0 -0.78693478735E+01 -0.61715004752E+01  0.11154733238E+02  0.14981765589E+02  0.10570000000E+00 0. -1.
         13    1    3    3    0    0  0.78693478735E+01  0.61715004752E+01  0.11359107236E+02  0.15134548020E+02  0.10570000000E+00 0.  1.
<mgrwt>
<rscale>  0 0.20002983E+02</rscale>
<asrwt>0</asrwt>
<pdfrwt beam="2">  1        4 0.58480563E-03 0.20002983E+02</pdfrwt>
<pdfrwt beam="1">  1       -4 0.40484733E-02 0.20002983E+02</pdfrwt>
<totfact> 0.12445897E+06</totfact>
</mgrwt>
</event>
<event>
 5    1  0.4710515E-007  0.2000116E+02  0.7818608E-02  0.1745305E+00
         -4   -1    0    0    0  501 -0.00000000000E+00  0.00000000000E+00  0.24432479453E+01  0.28259264892E+01  0.14200000000E+01 0.  1.
          4   -1    0    0  501    0  0.00000000000E+00 -0.00000000000E+00 -0.37563940350E+02  0.37590770338E+02  0.14200000000E+01 0. -1.
       1023    2    1    2    0    0  0.00000000000E+00  0.00000000000E+00 -0.35120692404E+02  0.40416696827E+02  0.20001158653E+02 0.  0.
        -13    1    3    3    0    0  0.17182405269E+01  0.98512894830E+01 -0.17585857332E+02  0.20230516691E+02  0.10570000000E+00 0.  1.
         13    1    3    3    0    0 -0.17182405269E+01 -0.98512894830E+01 -0.17534835072E+02  0.20186180136E+02  0.10570000000E+00 0. -1.
<mgrwt>
<rscale>  0 0.20001159E+02</rscale>
<asrwt>0</asrwt>
<pdfrwt beam="2">  1        4 0.58105680E-02 0.20001159E+02</pdfrwt>
<pdfrwt beam="1">  1       -4 0.40738498E-03 0.20001159E+02</pdfrwt>
<totfact> 0.11941858E+06</totfact>
</mgrwt>
</event>
<event>
 5    1  0.4710515E-007  0.2000252E+02  0.7818608E-02  0.1745278E+00
         -4   -1    0    0    0  501 -0.00000000000E+00  0.00000000000E+00  0.50546096930E+01  0.52502837207E+01  0.14200000000E+01 0.  1.
          4   -1    0    0  501    0  0.00000000000E+00 -0.00000000000E+00 -0.19190743581E+02  0.19243207612E+02  0.14200000000E+01 0. -1.
       1023    2    1    2    0    0  0.00000000000E+00  0.00000000000E+00 -0.14136133888E+02  0.24493491332E+02  0.20002520750E+02 0.  0.
        -13    1    3    3    0    0  0.96697746187E+01  0.25510452824E+01 -0.71180085949E+01  0.12275568910E+02  0.10570000000E+00 0. -1.
         13    1    3    3    0    0 -0.96697746187E+01 -0.25510452824E+01 -0.70181252929E+01  0.12217922423E+02  0.10570000000E+00 0.  1.
<mgrwt>
<rscale>  0 0.20002521E+02</rscale>
<asrwt>0</asrwt>
<pdfrwt beam="2">  1        4 0.29715096E-02 0.20002521E+02</pdfrwt>
<pdfrwt beam="1">  1       -4 0.79671981E-03 0.20002521E+02</pdfrwt>
<totfact> 0.12750693E+06</totfact>
</mgrwt>
</event>
<event>
 5    1  0.4710515E-007  0.2000423E+02  0.7818608E-02  0.1745244E+00
         -4   -1    0    0    0  501 -0.00000000000E+00  0.00000000000E+00  0.68354030722E+01  0.69813419311E+01  0.14200000000E+01 0. -1.
          4   -1    0    0  501    0  0.00000000000E+00 -0.00000000000E+00 -0.14299836935E+02  0.14370168279E+02  0.14200000000E+01 0.  1.
       1023    2    1    2    0    0  0.00000000000E+00  0.00000000000E+00 -0.74644338624E+01  0.21351510210E+02  0.20004229936E+02 0.  0.
        -13    1    3    3    0    0 -0.73595058729E+01 -0.67722892051E+01 -0.38069586825E+01  0.10701884632E+02  0.10570000000E+00 0. -1.
         13    1    3    3    0    0  0.73595058729E+01  0.67722892051E+01 -0.36574751799E+01  0.10649625578E+02  0.10570000000E+00 0.  1.
<mgrwt>
<rscale>  0 0.20004230E+02</rscale>
<asrwt>0</asrwt>
<pdfrwt beam="2">  1        4 0.22166111E-02 0.20004230E+02</pdfrwt>
<pdfrwt beam="1">  1       -4 0.10682366E-02 0.20004230E+02</pdfrwt>
<totfact> 0.12928487E+06</totfact>
</mgrwt>
</event>
<event>
 5    1  0.4710515E-007  0.2000224E+02  0.7818608E-02  0.1745284E+00
          4   -1    0    0  501    0  0.00000000000E+00  0.00000000000E+00  0.25258615895E+02  0.25298499500E+02  0.14200000000E+01 0. -1.
         -4   -1    0    0    0  501 -0.00000000000E+00 -0.00000000000E+00 -0.37881220773E+01  0.40455245485E+01  0.14200000000E+01 0.  1.
       1023    2    1    2    0    0  0.00000000000E+00  0.00000000000E+00  0.21470493818E+02  0.29344024048E+02  0.20002240938E+02 0.  0.
        -13    1    3    3    0    0  0.91402776885E+01 -0.40570771307E+01  0.10615280596E+02  0.14584234834E+02  0.10570000000E+00 0.  1.
         13    1    3    3    0    0 -0.91402776885E+01  0.40570771307E+01  0.10855213221E+02  0.14759789214E+02  0.10570000000E+00 0. -1.
<mgrwt>
<rscale>  0 0.20002241E+02</rscale>
<asrwt>0</asrwt>
<pdfrwt beam="1">  1        4 0.39088091E-02 0.20002241E+02</pdfrwt>
<pdfrwt beam="2">  1       -4 0.60565617E-03 0.20002241E+02</pdfrwt>
<totfact> 0.12487301E+06</totfact>
</mgrwt>
</event>
<event>
 4    1  0.4710515E-007  0.2007199E+02  0.7818608E-02  0.1743900E+00
         -4   -1    0    0    0  501 -0.00000000000E+00  0.00000000000E+00  0.95669026988E+02  0.95679564823E+02  0.14200000000E+01 0.  1.
          4   -1    0    0  501    0  0.00000000000E+00 -0.00000000000E+00 -0.55849109524E+00  0.15258808287E+01  0.14200000000E+01 0. -1.
        -13    1    1    2    0    0  0.32310635739E+01  0.94979112054E+01  0.48740479439E+02  0.49762391397E+02  0.10570000000E+00 0.  1.
         13    1    1    2    0    0 -0.32310635739E+01 -0.94979112054E+01  0.46370056453E+02  0.47443054255E+02  0.10570000000E+00 0. -1.
<mgrwt>
<rscale>  0 0.20071986E+02</rscale>
<asrwt>0</asrwt>
<pdfrwt beam="2">  1        4 0.16114688E-03 0.20071986E+02</pdfrwt>
<pdfrwt beam="1">  1       -4 0.14793539E-01 0.20071986E+02</pdfrwt>
<totfact> 0.98109158E+05</totfact>
</mgrwt>
</event>
<event>
 5    1  0.4710515E-007  0.2000603E+02  0.7818608E-02  0.1745208E+00
          4   -1    0    0  501    0  0.00000000000E+00  0.00000000000E+00  0.59390061291E+01  0.61064059644E+01  0.14200000000E+01 0. -1.
         -4   -1    0    0    0  501 -0.00000000000E+00 -0.00000000000E+00 -0.16415364969E+02  0.16476668567E+02  0.14200000000E+01 0.  1.
       1023    2    1    2    0    0  0.00000000000E+00  0.00000000000E+00 -0.10476358840E+02  0.22583074531E+02  0.20006028110E+02 0.  0.
        -13    1    3    3    0    0  0.21876982962E+01  0.97592527036E+01 -0.53981388148E+01  0.11365742929E+02  0.10570000000E+00 0. -1.
         13    1    3    3    0    0 -0.21876982962E+01 -0.97592527036E+01 -0.50782200247E+01  0.11217331602E+02  0.10570000000E+00 0.  1.
<mgrwt>
<rscale>  0 0.20006028E+02</rscale>
<asrwt>0</asrwt>
<pdfrwt beam="1">  1        4 0.93128583E-03 0.20006028E+02</pdfrwt>
<pdfrwt beam="2">  1       -4 0.25430333E-02 0.20006028E+02</pdfrwt>
<totfact> 0.12854612E+06</totfact>
</mgrwt>
</event>
<event>
 5    1  0.4710515E-007  0.2000230E+02  0.7818608E-02  0.1745282E+00
          4   -1    0    0  501    0  0.00000000000E+00  0.00000000000E+00  0.25862701453E+02  0.25901654898E+02  0.14200000000E+01 0. -1.
         -4   -1    0    0    0  501 -0.00000000000E+00 -0.00000000000E+00 -0.36937251558E+01  0.39572724857E+01  0.14200000000E+01 0.  1.
       1023    2    1    2    0    0  0.00000000000E+00  0.00000000000E+00  0.22168976297E+02  0.29858927383E+02  0.20002300728E+02 0.  0.
        -13    1    3    3    0    0  0.12063056042E+01  0.99274522239E+01  0.11012042443E+02  0.14875675855E+02  0.10570000000E+00 0.  1.
         13    1    3    3    0    0 -0.12063056042E+01 -0.99274522239E+01  0.11156933854E+02  0.14983251529E+02  0.10570000000E+00 0. -1.
<mgrwt>
<rscale>  0 0.20002301E+02</rscale>
<asrwt>0</asrwt>
<pdfrwt beam="1">  1        4 0.40021464E-02 0.20002301E+02</pdfrwt>
<pdfrwt beam="2">  1       -4 0.59153471E-03 0.20002301E+02</pdfrwt>
<totfact> 0.12460202E+06</totfact>
</mgrwt>
</event>
<event>
 5    1  0.4805979E-007  0.2000288E+02  0.7818608E-02  0.1745271E+00
         -4   -1    0    0    0  501 -0.00000000000E+00  0.00000000000E+00  0.50957441089E+01  0.52898967876E+01  0.14200000000E+01 0.  1.
          4   -1    0    0  501    0  0.00000000000E+00 -0.00000000000E+00 -0.19041812609E+02  0.19094685843E+02  0.14200000000E+01 0. -1.
       1023    2    1    2    0    0  0.00000000000E+00  0.00000000000E+00 -0.13946068500E+02  0.24384582630E+02  0.20002875880E+02 0.  0.
        -13    1    3    3    0    0  0.44670954070E+01 -0.89474799741E+01 -0.70613556074E+01  0.12242804204E+02  0.10570000000E+00 0. -1.
         13    1    3    3    0    0 -0.44670954070E+01  0.89474799741E+01 -0.68847128927E+01  0.12141778427E+02  0.10570000000E+00 0.  1.
<mgrwt>
<rscale>  0 0.20002876E+02</rscale>
<asrwt>0</asrwt>
<pdfrwt beam="2">  1        4 0.29485116E-02 0.20002876E+02</pdfrwt>
<pdfrwt beam="1">  1       -4 0.80296263E-03 0.20002876E+02</pdfrwt>
<totfact> 0.12756356E+06</totfact>
</mgrwt>
</event>
<event>
 4    1  0.4710515E-007  0.2001625E+02  0.7818608E-02  0.1745005E+00
          4   -1    0    0  501    0  0.00000000000E+00  0.00000000000E+00  0.41221086065E+02  0.41245537169E+02  0.14200000000E+01 0. -1.
         -4   -1    0    0    0  501 -0.00000000000E+00 -0.00000000000E+00 -0.21950175353E+01  0.26142880446E+01  0.14200000000E+01 0.  1.
        -13    1    1    2    0    0 -0.38039456270E+01 -0.92499462953E+01  0.18754357932E+02  0.21254849393E+02  0.10570000000E+00 0.  1.
         13    1    1    2    0    0  0.38039456270E+01  0.92499462953E+01  0.20271710597E+02  0.22604975820E+02  0.10570000000E+00 0. -1.
<mgrwt>
<rscale>  0 0.20016249E+02</rscale>
<asrwt>0</asrwt>
<pdfrwt beam="1">  1        4 0.63758374E-02 0.20016249E+02</pdfrwt>
<pdfrwt beam="2">  1       -4 0.37182747E-03 0.20016249E+02</pdfrwt>
<totfact> 0.11767187E+06</totfact>
</mgrwt>
</event>
<event>
 5    1  0.4710515E-007  0.2000127E+02  0.7818608E-02  0.1745303E+00
         -4   -1    0    0    0  501 -0.00000000000E+00  0.00000000000E+00  0.11641192473E+03  0.11642058504E+03  0.14200000000E+01 0. -1.
          4   -1    0    0  501    0  0.00000000000E+00 -0.00000000000E+00 -0.25764316417E+00  0.14431839800E+01  0.14200000000E+01 0.  1.
       1023    2    1    2    0    0  0.00000000000E+00  0.00000000000E+00  0.11615428157E+03  0.11786376902E+03  0.20001272954E+02 0.  0.
        -13    1    3    3    0    0 -0.91814744323E+01 -0.39624400230E+01  0.57876978411E+02  0.58734625275E+02  0.10570000000E+00 0.  1.
         13    1    3    3    0    0  0.91814744323E+01  0.39624400230E+01  0.58277303157E+02  0.59129143740E+02  0.10570000000E+00 0. -1.
<mgrwt>
<rscale>  0 0.20001273E+02</rscale>
<asrwt>0</asrwt>
<pdfrwt beam="2">  1        4 0.13149907E-03 0.20001273E+02</pdfrwt>
<pdfrwt beam="1">  1       -4 0.18001383E-01 0.20001273E+02</pdfrwt>
<totfact> 0.93187643E+05</totfact>
</mgrwt>
</event>
<event>
 5    1  0.4710515E-007  0.2000667E+02  0.7818608E-02  0.1745195E+00
         -4   -1    0    0    0  501 -0.00000000000E+00  0.00000000000E+00  0.17144584181E+01  0.22261553557E+01  0.14200000000E+01 0.  1.
          4   -1    0    0  501    0  0.00000000000E+00 -0.00000000000E+00 -0.50264371612E+02  0.50284425557E+02  0.14200000000E+01 0. -1.
       1023    2    1    2    0    0  0.00000000000E+00  0.00000000000E+00 -0.48549913194E+02  0.52510580913E+02  0.20006674801E+02 0.  0.
        -13    1    3    3    0    0  0.90022524499E+01 -0.43592915407E+01 -0.23992093104E+02  0.25993762250E+02  0.10570000000E+00 0. -1.
         13    1    3    3    0    0 -0.90022524499E+01  0.43592915407E+01 -0.24557820090E+02  0.26516818662E+02  0.10570000000E+00 0.  1.
<mgrwt>
<rscale>  0 0.20006675E+02</rscale>
<asrwt>0</asrwt>
<pdfrwt beam="2">  1        4 0.77738832E-02 0.20006675E+02</pdfrwt>
<pdfrwt beam="1">  1       -4 0.30466679E-03 0.20006675E+02</pdfrwt>
<totfact> 0.11408231E+06</totfact>
</mgrwt>
</event>
<event>
 5    1  0.4710515E-007  0.2000581E+02  0.7818608E-02  0.1745213E+00
          4   -1    0    0  501    0  0.00000000000E+00  0.00000000000E+00  0.90148154550E+00  0.16819836435E+01  0.14200000000E+01 0. -1.
         -4   -1    0    0    0  501 -0.00000000000E+00 -0.00000000000E+00 -0.76671318696E+02  0.76684467205E+02  0.14200000000E+01 0.  1.
       1023    2    1    2    0    0  0.00000000000E+00  0.00000000000E+00 -0.75769837150E+02  0.78366450849E+02  0.20005809077E+02 0.  0.
        -13    1    3    3    0    0  0.49042614227E+01 -0.87155456419E+01 -0.38611561962E+02  0.39885792027E+02  0.10570000000E+00 0. -1.
         13    1    3    3    0    0 -0.49042614227E+01  0.87155456419E+01 -0.37158275188E+02  0.38480658822E+02  0.10570000000E+00 0.  1.
<mgrwt>
<rscale>  0 0.20005809E+02</rscale>
<asrwt>0</asrwt>
<pdfrwt beam="1">  1        4 0.19973958E-03 0.20005809E+02</pdfrwt>
<pdfrwt beam="2">  1       -4 0.11856634E-01 0.20005809E+02</pdfrwt>
<totfact> 0.10458797E+06</totfact>
</mgrwt>
</event>
<event>
 5    1  0.4710515E-007  0.2000181E+02  0.7818608E-02  0.1745292E+00
         -4   -1    0    0    0  501 -0.00000000000E+00  0.00000000000E+00  0.41071986593E+02  0.41096526407E+02  0.14200000000E+01 0. -1.
          4   -1    0    0  501    0  0.00000000000E+00 -0.00000000000E+00 -0.22006784984E+01  0.26190429269E+01  0.14200000000E+01 0.  1.
       1023    2    1    2    0    0  0.00000000000E+00  0.00000000000E+00  0.38871308095E+02  0.43715569334E+02  0.20001810148E+02 0.  0.
        -13    1    3    3    0    0 -0.78132548237E+01 -0.62415354048E+01  0.19559571955E+02  0.21967970838E+02  0.10570000000E+00 0. -1.
         13    1    3    3    0    0  0.78132548237E+01  0.62415354048E+01  0.19311736140E+02  0.21747598497E+02  0.10570000000E+00 0.  1.
<mgrwt>
<rscale>  0 0.20001810E+02</rscale>
<asrwt>0</asrwt>
<pdfrwt beam="2">  1        4 0.37263549E-03 0.20001810E+02</pdfrwt>
<pdfrwt beam="1">  1       -4 0.63528365E-02 0.20001810E+02</pdfrwt>
<totfact> 0.11790824E+06</totfact>
</mgrwt>
</event>
<event>
 5    1  0.4790283E-007  0.2000361E+02  0.7818608E-02  0.1745256E+00
         -4   -1    0    0    0  501 -0.00000000000E+00  0.00000000000E+00  0.72309173894E+01  0.73690274998E+01  0.14200000000E+01 0.  1.
          4   -1    0    0  501    0  0.00000000000E+00 -0.00000000000E+00 -0.13528006034E+02  0.13602328743E+02  0.14200000000E+01 0. -1.
       1023    2    1    2    0    0  0.00000000000E+00  0.00000000000E+00 -0.62970886441E+01  0.20971356243E+02  0.20003611106E+02 0.  0.
        -13    1    3    3    0    0 -0.84330196823E+01  0.53762693673E+01 -0.30755440434E+01  0.10463758260E+02  0.10570000000E+00 0. -1.
         13    1    3    3    0    0  0.84330196823E+01 -0.53762693673E+01 -0.32215446007E+01  0.10507597983E+02  0.10570000000E+00 0.  1.
<mgrwt>
<rscale>  0 0.20003611E+02</rscale>
<asrwt>0</asrwt>
<pdfrwt beam="2">  1        4 0.20975727E-02 0.20003611E+02</pdfrwt>
<pdfrwt beam="1">  1       -4 0.11287898E-02 0.20003611E+02</pdfrwt>
<totfact> 0.12951669E+06</totfact>
</mgrwt>
</event>
<event>
 5    1  0.4710515E-007  0.2001171E+02  0.7818608E-02  0.1745095E+00
          4   -1    0    0  501    0  0.00000000000E+00  0.00000000000E+00  0.61288233486E+02  0.61304681419E+02  0.14200000000E+01 0.  1.
         -4   -1    0    0    0  501 -0.00000000000E+00 -0.00000000000E+00 -0.13050542636E+01  0.19286178033E+01  0.14200000000E+01 0. -1.
       1023    2    1    2    0    0  0.00000000000E+00  0.00000000000E+00  0.59983179223E+02  0.63233299222E+02  0.20011705096E+02 0.  0.
        -13    1    3    3    0    0 -0.94869018227E+01 -0.31745390987E+01  0.29473263848E+02  0.31124965205E+02  0.10570000000E+00 0. -1.
         13    1    3    3    0    0  0.94869018227E+01  0.31745390987E+01  0.30509915375E+02  0.32108334017E+02  0.10570000000E+00 0.  1.
<mgrwt>
<rscale>  0 0.20011705E+02</rscale>
<asrwt>0</asrwt>
<pdfrwt beam="1">  1        4 0.94781903E-02 0.20011705E+02</pdfrwt>
<pdfrwt beam="2">  1       -4 0.25000924E-03 0.20011705E+02</pdfrwt>
<totfact> 0.10983513E+06</totfact>
</mgrwt>
</event>
<event>
 5    1  0.4710515E-007  0.2000161E+02  0.7818608E-02  0.1745296E+00
         -4   -1    0    0    0  501 -0.00000000000E+00  0.00000000000E+00  0.32709834596E+02  0.32740642622E+02  0.14200000000E+01 0. -1.
          4   -1    0    0  501    0  0.00000000000E+00 -0.00000000000E+00 -0.28587269865E+01  0.31919774409E+01  0.14200000000E+01 0.  1.
       1023    2    1    2    0    0  0.00000000000E+00  0.00000000000E+00  0.29851107609E+02  0.35932620062E+02  0.20001613911E+02 0.  0.
        -13    1    3    3    0    0  0.28513567929E+01  0.95849771924E+01  0.15023027618E+02  0.18047286628E+02  0.10570000000E+00 0. -1.
         13    1    3    3    0    0 -0.28513567929E+01 -0.95849771924E+01  0.14828079991E+02  0.17885333434E+02  0.10570000000E+00 0.  1.
<mgrwt>
<rscale>  0 0.20001614E+02</rscale>
<asrwt>0</asrwt>
<pdfrwt beam="2">  1        4 0.46780863E-03 0.20001614E+02</pdfrwt>
<pdfrwt beam="1">  1       -4 0.50602869E-02 0.20001614E+02</pdfrwt>
<totfact> 0.12154304E+06</totfact>
</mgrwt>
</event>
<event>
 4    1  0.4710515E-007  0.2009783E+02  0.7818608E-02  0.1743390E+00
          4   -1    0    0  501    0  0.00000000000E+00  0.00000000000E+00  0.29133879093E+02  0.29168464324E+02  0.14200000000E+01 0. -1.
         -4   -1    0    0    0  501 -0.00000000000E+00 -0.00000000000E+00 -0.32823670796E+01  0.35763575947E+01  0.14200000000E+01 0.  1.
        -13    1    1    2    0    0 -0.98842771771E+01 -0.18079743151E+01  0.12856759742E+02  0.16317939514E+02  0.10570000000E+00 0.  1.
         13    1    1    2    0    0  0.98842771771E+01  0.18079743151E+01  0.12994752272E+02  0.16426882405E+02  0.10570000000E+00 0. -1.
<mgrwt>
<rscale>  0 0.20097828E+02</rscale>
<asrwt>0</asrwt>
<pdfrwt beam="1">  1        4 0.45074103E-02 0.20097828E+02</pdfrwt>
<pdfrwt beam="2">  1       -4 0.53025460E-03 0.20097828E+02</pdfrwt>
<totfact> 0.12193162E+06</totfact>
</mgrwt>
</event>
<event>
 5    1  0.4710515E-007  0.2001208E+02  0.7818608E-02  0.1745088E+00
         -4   -1    0    0    0  501 -0.00000000000E+00  0.00000000000E+00  0.32098426946E+00  0.14558265354E+01  0.14200000000E+01 0.  1.
          4   -1    0    0  501    0  0.00000000000E+00 -0.00000000000E+00 -0.11155503677E+03  0.11156407409E+03  0.14200000000E+01 0. -1.
       1023    2    1    2    0    0  0.00000000000E+00  0.00000000000E+00 -0.11123405250E+03  0.11301990063E+03  0.20012083922E+02 0.  0.
        -13    1    3    3    0    0  0.27527062659E+01 -0.96190352708E+01 -0.55162688668E+02  0.56062791805E+02  0.10570000000E+00 0. -1.
         13    1    3    3    0    0 -0.27527062659E+01  0.96190352708E+01 -0.56071363829E+02  0.56957108823E+02  0.10570000000E+00 0.  1.
<mgrwt>
<rscale>  0 0.20012084E+02</rscale>
<asrwt>0</asrwt>
<pdfrwt beam="2">  1        4 0.17250293E-01 0.20012084E+02</pdfrwt>
<pdfrwt beam="1">  1       -4 0.13737302E-03 0.20012084E+02</pdfrwt>
<totfact> 0.94339260E+05</totfact>
</mgrwt>
</event>
<event>
 5    1  0.4710515E-007  0.2000154E+02  0.7818608E-02  0.1745297E+00
         -4   -1    0    0    0  501 -0.00000000000E+00  0.00000000000E+00  0.86821461529E+00  0.16643907649E+01  0.14200000000E+01 0. -1.
          4   -1    0    0  501    0  0.00000000000E+00 -0.00000000000E+00 -0.78177589290E+02  0.78190484505E+02  0.14200000000E+01 0.  1.
       1023    2    1    2    0    0  0.00000000000E+00  0.00000000000E+00 -0.77309374674E+02  0.79854875270E+02  0.20001542237E+02 0.  0.
        -13    1    3    3    0    0 -0.94741857112E+01  0.32005651759E+01 -0.38571118906E+02  0.39846533080E+02  0.10570000000E+00 0.  1.
         13    1    3    3    0    0  0.94741857112E+01 -0.32005651759E+01 -0.38738255768E+02  0.40008342190E+02  0.10570000000E+00 0. -1.
<mgrwt>
<rscale>  0 0.20001542E+02</rscale>
<asrwt>0</asrwt>
<pdfrwt beam="2">  1        4 0.12089554E-01 0.20001542E+02</pdfrwt>
<pdfrwt beam="1">  1       -4 0.19580780E-03 0.20001542E+02</pdfrwt>
<totfact> 0.10414299E+06</totfact>
</mgrwt>
</event>
<event>
 4    1  0.4710515E-007  0.2005671E+02  0.7818608E-02  0.1744203E+00
          4   -1    0    0  501    0  0.00000000000E+00  0.00000000000E+00  0.16495782435E+01  0.21765818113E+01  0.14200000000E+01 0.  1.
         -4   -1    0    0    0  501 -0.00000000000E+00 -0.00000000000E+00 -0.52030550002E+02  0.52049923472E+02  0.14200000000E+01 0. -1.
        -13    1    1    2    0    0 -0.24308648091E+01 -0.97226073837E+01 -0.24259706489E+02  0.26248480517E+02  0.10570000000E+00 0.  1.
         13    1    1    2    0    0  0.24308648091E+01  0.97226073837E+01 -0.26121265269E+02  0.27978024766E+02  0.10570000000E+00 0. -1.
<mgrwt>
<rscale>  0 0.20056709E+02</rscale>
<asrwt>0</asrwt>
<pdfrwt beam="1">  1        4 0.29581031E-03 0.20056709E+02</pdfrwt>
<pdfrwt beam="2">  1       -4 0.80467279E-02 0.20056709E+02</pdfrwt>
<totfact> 0.11281467E+06</totfact>
</mgrwt>
</event>
<event>
 5    1  0.4804919E-007  0.2000178E+02  0.7818608E-02  0.1745293E+00
         -4   -1    0    0    0  501 -0.00000000000E+00  0.00000000000E+00  0.80635110331E+01  0.81875887892E+01  0.14200000000E+01 0.  1.
          4   -1    0    0  501    0  0.00000000000E+00 -0.00000000000E+00 -0.12143287136E+02  0.12226030528E+02  0.14200000000E+01 0. -1.
       1023    2    1    2    0    0  0.00000000000E+00  0.00000000000E+00 -0.40797761027E+01  0.20413619317E+02  0.20001781935E+02 0.  0.
        -13    1    3    3    0    0 -0.53411286855E+01  0.84545209552E+01 -0.20482689012E+01  0.10208484618E+02  0.10570000000E+00 0. -1.
         13    1    3    3    0    0  0.53411286855E+01 -0.84545209552E+01 -0.20315072014E+01  0.10205134699E+02  0.10570000000E+00 0.  1.
<mgrwt>
<rscale>  0 0.20001782E+02</rscale>
<asrwt>0</asrwt>
<pdfrwt beam="2">  1        4 0.18841073E-02 0.20001782E+02</pdfrwt>
<pdfrwt beam="1">  1       -4 0.12564495E-02 0.20001782E+02</pdfrwt>
<totfact> 0.12987079E+06</totfact>
</mgrwt>
</event>
<event>
 5    1  0.4779078E-007  0.2000332E+02  0.7818608E-02  0.1745262E+00
         -4   -1    0    0    0  501 -0.00000000000E+00  0.00000000000E+00  0.40341536901E+02  0.40366520775E+02  0.14200000000E+01 0. -1.
          4   -1    0    0  501    0  0.00000000000E+00 -0.00000000000E+00 -0.22484107556E+01  0.26592763914E+01  0.14200000000E+01 0.  1.
       1023    2    1    2    0    0  0.00000000000E+00  0.00000000000E+00  0.38093126145E+02  0.43025797167E+02  0.20003323782E+02 0.  0.
        -13    1    3    3    0    0 -0.29497023648E+01 -0.95561143208E+01  0.19142831173E+02  0.21598130076E+02  0.10570000000E+00 0.  1.
         13    1    3    3    0    0  0.29497023648E+01  0.95561143208E+01  0.18950294972E+02  0.21427667091E+02  0.10570000000E+00 0. -1.
<mgrwt>
<rscale>  0 0.20003324E+02</rscale>
<asrwt>0</asrwt>
<pdfrwt beam="2">  1        4 0.37943624E-03 0.20003324E+02</pdfrwt>
<pdfrwt beam="1">  1       -4 0.62399171E-02 0.20003324E+02</pdfrwt>
<totfact> 0.11820031E+06</totfact>
</mgrwt>
</event>
<event>
 4    1  0.4710515E-007  0.2001458E+02  0.7818608E-02  0.1745038E+00
         -4   -1    0    0    0  501 -0.00000000000E+00  0.00000000000E+00  0.17376100738E+01  0.22440340391E+01  0.14200000000E+01 0.  1.
          4   -1    0    0  501    0  0.00000000000E+00 -0.00000000000E+00 -0.49785930567E+02  0.49806177151E+02  0.14200000000E+01 0. -1.
        -13    1    1    2    0    0  0.99937210241E+00  0.99528863150E+01 -0.23307302311E+02  0.25363363423E+02  0.10570000000E+00 0. -1.
         13    1    1    2    0    0 -0.99937210241E+00 -0.99528863150E+01 -0.24741018181E+02  0.26686847767E+02  0.10570000000E+00 0.  1.
<mgrwt>
<rscale>  0 0.20014579E+02</rscale>
<asrwt>0</asrwt>
<pdfrwt beam="2">  1        4 0.76998861E-02 0.20014579E+02</pdfrwt>
<pdfrwt beam="1">  1       -4 0.30783778E-03 0.20014579E+02</pdfrwt>
<totfact> 0.11418057E+06</totfact>
</mgrwt>
</event>
<event>
 5    1  0.5091390E-007  0.2000178E+02  0.7818608E-02  0.1745293E+00
         -4   -1    0    0    0  501 -0.00000000000E+00  0.00000000000E+00  0.10017126223E+02  0.10117273237E+02  0.14200000000E+01 0.  1.
          4   -1    0    0  501    0  0.00000000000E+00 -0.00000000000E+00 -0.97833555451E+01  0.98858710148E+01  0.14200000000E+01 0. -1.
       1023    2    1    2    0    0  0.00000000000E+00  0.00000000000E+00  0.23377067742E+00  0.20003144252E+02  0.20001778202E+02 0.  0.
        -13    1    3    3    0    0  0.99776231998E+01  0.67352358559E+00  0.12028882587E+00  0.10001611902E+02  0.10570000000E+00 0. -1.
         13    1    3    3    0    0 -0.99776231998E+01 -0.67352358559E+00  0.11348185154E+00  0.10001532351E+02  0.10570000000E+00 0.  1.
<mgrwt>
<rscale>  0 0.20001778E+02</rscale>
<asrwt>0</asrwt>
<pdfrwt beam="2">  1        4 0.15207210E-02 0.20001778E+02</pdfrwt>
<pdfrwt beam="1">  1       -4 0.15566858E-02 0.20001778E+02</pdfrwt>
<totfact> 0.13011496E+06</totfact>
</mgrwt>
</event>
<event>
 5    1  0.4710515E-007  0.2000985E+02  0.7818608E-02  0.1745132E+00
         -4   -1    0    0    0  501 -0.00000000000E+00  0.00000000000E+00  0.10593881313E+01  0.17716385672E+01  0.14200000000E+01 0. -1.
          4   -1    0    0  501    0  0.00000000000E+00 -0.00000000000E+00 -0.69994100300E+02  0.70008502889E+02  0.14200000000E+01 0.  1.
       1023    2    1    2    0    0  0.00000000000E+00  0.00000000000E+00 -0.68934712168E+02  0.71780141456E+02  0.20009851717E+02 0.  0.
        -13    1    3    3    0    0  0.68413651621E+01 -0.72990052533E+01 -0.34154340305E+02  0.35589463175E+02  0.10570000000E+00 0.  1.
         13    1    3    3    0    0 -0.68413651621E+01  0.72990052533E+01 -0.34780371864E+02  0.36190678281E+02  0.10570000000E+00 0. -1.
<mgrwt>
<rscale>  0 0.20009852E+02</rscale>
<asrwt>0</asrwt>
<pdfrwt beam="2">  1        4 0.10824217E-01 0.20009852E+02</pdfrwt>
<pdfrwt beam="1">  1       -4 0.21887923E-03 0.20009852E+02</pdfrwt>
<totfact> 0.10677848E+06</totfact>
</mgrwt>
</event>
<event>
 5    1  0.4710515E-007  0.2000742E+02  0.7818608E-02  0.1745181E+00
          4   -1    0    0  501    0  0.00000000000E+00  0.00000000000E+00  0.52442450480E+01  0.54330936053E+01  0.14200000000E+01 0.  1.
         -4   -1    0    0    0  501 -0.00000000000E+00 -0.00000000000E+00 -0.18528661997E+02  0.18582995329E+02  0.14200000000E+01 0. -1.
       1023    2    1    2    0    0  0.00000000000E+00  0.00000000000E+00 -0.13284416949E+02  0.24016088934E+02  0.20007418475E+02 0.  0.
        -13    1    3    3    0    0 -0.84553497700E+01 -0.53450725189E+01 -0.66219068126E+01  0.11996814673E+02  0.10570000000E+00 0. -1.
         13    1    3    3    0    0  0.84553497700E+01  0.53450725189E+01 -0.66625101359E+01  0.12019274261E+02  0.10570000000E+00 0.  1.
<mgrwt>
<rscale>  0 0.20007418E+02</rscale>
<asrwt>0</asrwt>
<pdfrwt beam="1">  1        4 0.82551324E-03 0.20007418E+02</pdfrwt>
<pdfrwt beam="2">  1       -4 0.28692697E-02 0.20007418E+02</pdfrwt>
<totfact> 0.12771198E+06</totfact>
</mgrwt>
</event>
<event>
 4    1  0.4710515E-007  0.2026867E+02  0.7818608E-02  0.1740037E+00
          4   -1    0    0  501    0  0.00000000000E+00  0.00000000000E+00  0.79929935585E+00  0.16295028261E+01  0.14200000000E+01 0.  1.
         -4   -1    0    0    0  501 -0.00000000000E+00 -0.00000000000E+00 -0.83734090977E+02  0.83746130608E+02  0.14200000000E+01 0. -1.
        -13    1    1    2    0    0 -0.55356737403E-01  0.10133512019E+02 -0.41257713093E+02  0.42484128712E+02  0.10570000000E+00 0. -1.
         13    1    1    2    0    0  0.55356737403E-01 -0.10133512019E+02 -0.41677078528E+02  0.42891504722E+02  0.10570000000E+00 0.  1.
<mgrwt>
<rscale>  0 0.20268673E+02</rscale>
<asrwt>0</asrwt>
<pdfrwt beam="1">  1        4 0.18775713E-03 0.20268673E+02</pdfrwt>
<pdfrwt beam="2">  1       -4 0.12946951E-01 0.20268673E+02</pdfrwt>
<totfact> 0.99685777E+05</totfact>
</mgrwt>
</event>
<event>
 4    1  0.4710515E-007  0.2002223E+02  0.7818608E-02  0.1744886E+00
          4   -1    0    0  501    0  0.00000000000E+00  0.00000000000E+00  0.10447628632E+03  0.10448593591E+03  0.14200000000E+01 0. -1.
         -4   -1    0    0    0  501 -0.00000000000E+00 -0.00000000000E+00 -0.41869131188E+00  0.14804399396E+01  0.14200000000E+01 0.  1.
        -13    1    1    2    0    0 -0.97474366862E+01 -0.22693045432E+01  0.50857321080E+02  0.51832813400E+02  0.10570000000E+00 0. -1.
         13    1    1    2    0    0  0.97474366862E+01  0.22693045432E+01  0.53200273932E+02  0.54133562454E+02  0.10570000000E+00 0.  1.
<mgrwt>
<rscale>  0 0.20022231E+02</rscale>
<asrwt>0</asrwt>
<pdfrwt beam="1">  1        4 0.16155698E-01 0.20022231E+02</pdfrwt>
<pdfrwt beam="2">  1       -4 0.14682922E-03 0.20022231E+02</pdfrwt>
<totfact> 0.96132425E+05</totfact>
</mgrwt>
</event>
<event>
 5    1  0.5591466E-007  0.2000337E+02  0.7818608E-02  0.1745261E+00
         -4   -1    0    0    0  501 -0.00000000000E+00  0.00000000000E+00  0.35497543571E+01  0.38232389405E+01  0.14200000000E+01 0. -1.
          4   -1    0    0  501    0  0.00000000000E+00 -0.00000000000E+00 -0.26842217275E+02  0.26879751268E+02  0.14200000000E+01 0.  1.
       1023    2    1    2    0    0  0.00000000000E+00  0.00000000000E+00 -0.23292462917E+02  0.30702990208E+02  0.20003369190E+02 0.  0.
        -13    1    3    3    0    0 -0.10000097323E+02  0.12316551796E-02 -0.11426070851E+02  0.15184472845E+02  0.10570000000E+00 0.  1.
         13    1    3    3    0    0  0.10000097323E+02 -0.12316551796E-02 -0.11866392066E+02  0.15518517363E+02  0.10570000000E+00 0. -1.
<mgrwt>
<rscale>  0 0.20003369E+02</rscale>
<asrwt>0</asrwt>
<pdfrwt beam="2">  1        4 0.41534963E-02 0.20003369E+02</pdfrwt>
<pdfrwt beam="1">  1       -4 0.57004058E-03 0.20003369E+02</pdfrwt>
<totfact> 0.12414935E+06</totfact>
</mgrwt>
</event>
<event>
 4    1  0.4710515E-007  0.2003891E+02  0.7818608E-02  0.1744555E+00
         -4   -1    0    0    0  501 -0.00000000000E+00  0.00000000000E+00  0.55095490421E+01  0.56895984610E+01  0.14200000000E+01 0.  1.
          4   -1    0    0  501    0  0.00000000000E+00 -0.00000000000E+00 -0.17719146045E+02  0.17775953886E+02  0.14200000000E+01 0.  1.
        -13    1    1    2    0    0 -0.98452212337E+01 -0.18393443292E+01 -0.64072946674E+01  0.11890170989E+02  0.10570000000E+00 0. -1.
         13    1    1    2    0    0  0.98452212337E+01  0.18393443292E+01 -0.58023023352E+01  0.11575381358E+02  0.10570000000E+00 0.  1.
<mgrwt>
<rscale>  0 0.20038909E+02</rscale>
<asrwt>0</asrwt>
<pdfrwt beam="2">  1        4 0.27442422E-02 0.20038909E+02</pdfrwt>
<pdfrwt beam="1">  1       -4 0.86584273E-03 0.20038909E+02</pdfrwt>
<totfact> 0.12761364E+06</totfact>
</mgrwt>
</event>
<event>
 4    1  0.5079828E-007  0.2116335E+02  0.7818608E-02  0.1723136E+00
         -4   -1    0    0    0  501 -0.00000000000E+00  0.00000000000E+00  0.45241841125E+01  0.47417973263E+01  0.14200000000E+01 0.  1.
          4   -1    0    0  501    0  0.00000000000E+00 -0.00000000000E+00 -0.23929216241E+02  0.23971311811E+02  0.14200000000E+01 0. -1.
        -13    1    1    2    0    0 -0.73504380205E+01 -0.73490225071E+01 -0.12389951581E+02  0.16172790222E+02  0.10570000000E+00 0. -1.
         13    1    1    2    0    0  0.73504380205E+01  0.73490225071E+01 -0.70150805475E+01  0.12540318915E+02  0.10570000000E+00 0.  1.
<mgrwt>
<rscale>  0 0.21163350E+02</rscale>
<asrwt>0</asrwt>
<pdfrwt beam="2">  1        4 0.37013954E-02 0.21163350E+02</pdfrwt>
<pdfrwt beam="1">  1       -4 0.71600594E-03 0.21163350E+02</pdfrwt>
<totfact> 0.11148491E+06</totfact>
</mgrwt>
</event>
<event>
 5    1  0.4710515E-007  0.2000406E+02  0.7818608E-02  0.1745247E+00
         -4   -1    0    0    0  501 -0.00000000000E+00  0.00000000000E+00  0.74140465135E+02  0.74154062400E+02  0.14200000000E+01 0.  1.
          4   -1    0    0  501    0  0.00000000000E+00 -0.00000000000E+00 -0.95814555293E+00  0.17130215704E+01  0.14200000000E+01 0. -1.
       1023    2    1    2    0    0  0.00000000000E+00  0.00000000000E+00  0.73182319582E+02  0.75867083971E+02  0.20004062857E+02 0.  0.
        -13    1    3    3    0    0 -0.80324176992E+01  0.59565777142E+01  0.35946330858E+02  0.37311532089E+02  0.10570000000E+00 0. -1.
         13    1    3    3    0    0  0.80324176992E+01 -0.59565777142E+01  0.37235988724E+02  0.38555551882E+02  0.10570000000E+00 0.  1.
<mgrwt>
<rscale>  0 0.20004063E+02</rscale>
<asrwt>0</asrwt>
<pdfrwt beam="2">  1        4 0.20652030E-03 0.20004063E+02</pdfrwt>
<pdfrwt beam="1">  1       -4 0.11465341E-01 0.20004063E+02</pdfrwt>
<totfact> 0.10544079E+06</totfact>
</mgrwt>
</event>
<event>
 5    1  0.5702226E-007  0.2000404E+02  0.7818608E-02  0.1745248E+00
          4   -1    0    0  501    0  0.00000000000E+00  0.00000000000E+00  0.79505369571E+01  0.80763505314E+01  0.14200000000E+01 0.  1.
         -4   -1    0    0    0  501 -0.00000000000E+00 -0.00000000000E+00 -0.12317152219E+02  0.12398735371E+02  0.14200000000E+01 0. -1.
       1023    2    1    2    0    0  0.00000000000E+00  0.00000000000E+00 -0.43666152623E+01  0.20475085902E+02  0.20004044937E+02 0.  0.
        -13    1    3    3    0    0 -0.99946574348E+01 -0.33101432146E+00 -0.23500335717E+01  0.10273099727E+02  0.10570000000E+00 0. -1.
         13    1    3    3    0    0  0.99946574348E+01  0.33101432146E+00 -0.20165816906E+01  0.10201986175E+02  0.10570000000E+00 0.  1.
<mgrwt>
<rscale>  0 0.20004045E+02</rscale>
<asrwt>0</asrwt>
<pdfrwt beam="1">  1        4 0.12391131E-02 0.20004045E+02</pdfrwt>
<pdfrwt beam="2">  1       -4 0.19109001E-02 0.20004045E+02</pdfrwt>
<totfact> 0.12980438E+06</totfact>
</mgrwt>
</event>
<event>
 5    1  0.4710515E-007  0.2000650E+02  0.7818608E-02  0.1745199E+00
         -4   -1    0    0    0  501 -0.00000000000E+00  0.00000000000E+00  0.32704721224E+01  0.35654435774E+01  0.14200000000E+01 0.  1.
          4   -1    0    0  501    0  0.00000000000E+00 -0.00000000000E+00 -0.28963153861E+02  0.28997942713E+02  0.14200000000E+01 0. -1.
       1023    2    1    2    0    0  0.00000000000E+00  0.00000000000E+00 -0.25692681739E+02  0.32563386291E+02  0.20006504736E+02 0.  0.
        -13    1    3    3    0    0  0.99940366798E+01 -0.36173298915E+00 -0.13180960605E+02  0.16545709863E+02  0.10570000000E+00 0. -1.
         13    1    3    3    0    0 -0.99940366798E+01  0.36173298915E+00 -0.12511721134E+02  0.16017676427E+02  0.10570000000E+00 0.  1.
<mgrwt>
<rscale>  0 0.20006505E+02</rscale>
<asrwt>0</asrwt>
<pdfrwt beam="2">  1        4 0.44812358E-02 0.20006505E+02</pdfrwt>
<pdfrwt beam="1">  1       -4 0.52851575E-03 0.20006505E+02</pdfrwt>
<totfact> 0.12315657E+06</totfact>
</mgrwt>
</event>
<event>
 5    1  0.4710515E-007  0.2000509E+02  0.7818608E-02  0.1745227E+00
          4   -1    0    0  501    0  0.00000000000E+00  0.00000000000E+00  0.47297981641E+01  0.49383591074E+01  0.14200000000E+01 0.  1.
         -4   -1    0    0    0  501 -0.00000000000E+00 -0.00000000000E+00 -0.20463291158E+02  0.20512500701E+02  0.14200000000E+01 0. -1.
       1023    2    1    2    0    0  0.00000000000E+00  0.00000000000E+00 -0.15733492994E+02  0.25450859809E+02  0.20005085934E+02 0.  0.
        -13    1    3    3    0    0 -0.80070252095E+01  0.59934860941E+01 -0.77735608894E+01  0.12667823399E+02  0.10570000000E+00 0.  1.
         13    1    3    3    0    0  0.80070252095E+01 -0.59934860941E+01 -0.79599321047E+01  0.12783036410E+02  0.10570000000E+00 0. -1.
<mgrwt>
<rscale>  0 0.20005086E+02</rscale>
<asrwt>0</asrwt>
<pdfrwt beam="1">  1        4 0.74748977E-03 0.20005086E+02</pdfrwt>
<pdfrwt beam="2">  1       -4 0.31680271E-02 0.20005086E+02</pdfrwt>
<totfact> 0.12693938E+06</totfact>
</mgrwt>
</event>
<event>
 4    1  0.4710515E-007  0.2001348E+02  0.7818608E-02  0.1745060E+00
         -4   -1    0    0    0  501 -0.00000000000E+00  0.00000000000E+00  0.47603313937E+01  0.49676105904E+01  0.14200000000E+01 0.  1.
          4   -1    0    0  501    0  0.00000000000E+00 -0.00000000000E+00 -0.20354518573E+02  0.20403990451E+02  0.14200000000E+01 0. -1.
        -13    1    1    2    0    0  0.71868868546E+01  0.69609686828E+01 -0.76305130426E+01  0.12583414856E+02  0.10570000000E+00 0.  1.
         13    1    1    2    0    0 -0.71868868546E+01 -0.69609686828E+01 -0.79636741366E+01  0.12788186185E+02  0.10570000000E+00 0. -1.
<mgrwt>
<rscale>  0 0.20013482E+02</rscale>
<asrwt>0</asrwt>
<pdfrwt beam="2">  1        4 0.31512144E-02 0.20013482E+02</pdfrwt>
<pdfrwt beam="1">  1       -4 0.75210877E-03 0.20013482E+02</pdfrwt>
<totfact> 0.12687488E+06</totfact>
</mgrwt>
</event>
<event>
 5    1  0.4710515E-007  0.2000225E+02  0.7818608E-02  0.1745283E+00
          4   -1    0    0  501    0  0.00000000000E+00  0.00000000000E+00  0.37052090571E+02  0.37079290927E+02  0.14200000000E+01 0.  1.
         -4   -1    0    0    0  501 -0.00000000000E+00 -0.00000000000E+00 -0.24825364111E+01  0.28599627676E+01  0.14200000000E+01 0. -1.
       1023    2    1    2    0    0  0.00000000000E+00  0.00000000000E+00  0.34569554160E+02  0.39939253695E+02  0.20002247646E+02 0.  0.
        -13    1    3    3    0    0  0.73028327149E+01  0.68322511684E+01  0.17318399745E+02  0.19998729058E+02  0.10570000000E+00 0. -1.
         13    1    3    3    0    0 -0.73028327149E+01 -0.68322511684E+01  0.17251154414E+02  0.19940524637E+02  0.10570000000E+00 0.  1.
<mgrwt>
<rscale>  0 0.20002248E+02</rscale>
<asrwt>0</asrwt>
<pdfrwt beam="1">  1        4 0.57314463E-02 0.20002248E+02</pdfrwt>
<pdfrwt beam="2">  1       -4 0.41305384E-03 0.20002248E+02</pdfrwt>
<totfact> 0.11962716E+06</totfact>
</mgrwt>
</event>
<event>
 5    1  0.5294103E-007  0.2000165E+02  0.7818608E-02  0.1745295E+00
         -4   -1    0    0    0  501 -0.00000000000E+00  0.00000000000E+00  0.12825883750E+02  0.12904251004E+02  0.14200000000E+01 0.  1.
          4   -1    0    0  501    0  0.00000000000E+00 -0.00000000000E+00 -0.76301955846E+01  0.77612038151E+01  0.14200000000E+01 0. -1.
       1023    2    1    2    0    0  0.00000000000E+00  0.00000000000E+00  0.51956881656E+01  0.20665454819E+02  0.20001646116E+02 0.  0.
        -13    1    3    3    0    0 -0.37596205830E+01 -0.92666263343E+01  0.25840285696E+01  0.10329253927E+02  0.10570000000E+00 0. -1.
         13    1    3    3    0    0  0.37596205830E+01  0.92666263343E+01  0.26116595961E+01  0.10336200892E+02  0.10570000000E+00 0.  1.
<mgrwt>
<rscale>  0 0.20001646E+02</rscale>
<asrwt>0</asrwt>
<pdfrwt beam="2">  1        4 0.11899821E-02 0.20001646E+02</pdfrwt>
<pdfrwt beam="1">  1       -4 0.19893187E-02 0.20001646E+02</pdfrwt>
<totfact> 0.12972361E+06</totfact>
</mgrwt>
</event>
<event>
 5    1  0.4960622E-007  0.2000160E+02  0.7818608E-02  0.1745296E+00
          4   -1    0    0  501    0  0.00000000000E+00  0.00000000000E+00  0.62920534129E+01  0.64502973692E+01  0.14200000000E+01 0.  1.
         -4   -1    0    0    0  501 -0.00000000000E+00 -0.00000000000E+00 -0.15507121052E+02  0.15572000620E+02  0.14200000000E+01 0. -1.
       1023    2    1    2    0    0  0.00000000000E+00  0.00000000000E+00 -0.92150676388E+01  0.22022297989E+02  0.20001603364E+02 0.  0.
        -13    1    3    3    0    0 -0.38713069833E+00  0.99925525562E+01 -0.45389068195E+01  0.10982432534E+02  0.10570000000E+00 0.  1.
         13    1    3    3    0    0  0.38713069833E+00 -0.99925525562E+01 -0.46761608193E+01  0.11039865455E+02  0.10570000000E+00 0. -1.
<mgrwt>
<rscale>  0 0.20001603E+02</rscale>
<asrwt>0</asrwt>
<pdfrwt beam="1">  1        4 0.98517157E-03 0.20001603E+02</pdfrwt>
<pdfrwt beam="2">  1       -4 0.24028743E-02 0.20001603E+02</pdfrwt>
<totfact> 0.12892822E+06</totfact>
</mgrwt>
</event>
<event>
 5    1  0.4710515E-007  0.2000396E+02  0.7818608E-02  0.1745249E+00
         -4   -1    0    0    0  501 -0.00000000000E+00  0.00000000000E+00  0.55691803635E+01  0.57473619967E+01  0.14200000000E+01 0.  1.
          4   -1    0    0  501    0  0.00000000000E+00 -0.00000000000E+00 -0.17472798584E+02  0.17530404740E+02  0.14200000000E+01 0.  1.
       1023    2    1    2    0    0  0.00000000000E+00  0.00000000000E+00 -0.11903618220E+02  0.23277766737E+02  0.20003957046E+02 0.  0.
        -13    1    3    3    0    0  0.97639453228E+01 -0.21663157144E+01 -0.59178859696E+01  0.11621535995E+02  0.10570000000E+00 0.  1.
         13    1    3    3    0    0 -0.97639453228E+01  0.21663157144E+01 -0.59857322508E+01  0.11656230742E+02  0.10570000000E+00 0. -1.
<mgrwt>
<rscale>  0 0.20003957E+02</rscale>
<asrwt>0</asrwt>
<pdfrwt beam="2">  1        4 0.27062604E-02 0.20003957E+02</pdfrwt>
<pdfrwt beam="1">  1       -4 0.87493451E-03 0.20003957E+02</pdfrwt>
<totfact> 0.12817543E+06</totfact>
</mgrwt>
</event>
<event>
 4    1  0.4710515E-007  0.2016089E+02  0.7818608E-02  0.1742147E+00
         -4   -1    0    0    0  501 -0.00000000000E+00  0.00000000000E+00  0.16230651114E+02  0.16292649741E+02  0.14200000000E+01 0.  1.
          4   -1    0    0  501    0  0.00000000000E+00 -0.00000000000E+00 -0.61051372001E+01  0.62681018046E+01  0.14200000000E+01 0. -1.
        -13    1    1    2    0    0  0.10058101444E+02  0.33036283746E+00  0.44202582384E+01  0.10992015268E+02  0.10570000000E+00 0. -1.
         13    1    1    2    0    0 -0.10058101444E+02 -0.33036283746E+00  0.57052556752E+01  0.11568736278E+02  0.10570000000E+00 0.  1.
<mgrwt>
<rscale>  0 0.20160890E+02</rscale>
<asrwt>0</asrwt>
<pdfrwt beam="2">  1        4 0.95655677E-03 0.20160890E+02</pdfrwt>
<pdfrwt beam="1">  1       -4 0.25143280E-02 0.20160890E+02</pdfrwt>
<totfact> 0.12655150E+06</totfact>
</mgrwt>
</event>
<event>
 4    1  0.4710515E-007  0.2363812E+02  0.7818608E-02  0.1681370E+00
          4   -1    0    0  501    0  0.00000000000E+00  0.00000000000E+00  0.27720735080E+02  0.27757081139E+02  0.14200000000E+01 0.  1.
         -4   -1    0    0    0  501 -0.00000000000E+00 -0.00000000000E+00 -0.48986500643E+01  0.51003110153E+01  0.14200000000E+01 0. -1.
        -13    1    1    2    0    0 -0.65212930772E+01  0.98280392343E+01  0.10369574845E+02  0.15705313545E+02  0.10570000000E+00 0. -1.
         13    1    1    2    0    0  0.65212930772E+01 -0.98280392343E+01  0.12452510171E+02  0.17152078610E+02  0.10570000000E+00 0.  1.
<mgrwt>
<rscale>  0 0.23638119E+02</rscale>
<asrwt>0</asrwt>
<pdfrwt beam="1">  1        4 0.42830367E-02 0.23638119E+02</pdfrwt>
<pdfrwt beam="2">  1       -4 0.77194670E-03 0.23638119E+02</pdfrwt>
<totfact> 0.86881849E+05</totfact>
</mgrwt>
</event>
<event>
 5    1  0.4710515E-007  0.2001182E+02  0.7818608E-02  0.1745093E+00
         -4   -1    0    0    0  501 -0.00000000000E+00  0.00000000000E+00  0.28331635534E+01  0.31691032991E+01  0.14200000000E+01 0. -1.
          4   -1    0    0  501    0  0.00000000000E+00 -0.00000000000E+00 -0.33008097545E+02  0.33038627447E+02  0.14200000000E+01 0.  1.
       1023    2    1    2    0    0  0.00000000000E+00  0.00000000000E+00 -0.30174933992E+02  0.36207730746E+02  0.20011824613E+02 0.  0.
        -13    1    3    3    0    0 -0.55993736961E+01 -0.82857235078E+01 -0.15662217090E+02  0.18582852755E+02  0.10570000000E+00 0. -1.
         13    1    3    3    0    0  0.55993736961E+01  0.82857235078E+01 -0.14512716902E+02  0.17624877991E+02  0.10570000000E+00 0.  1.
<mgrwt>
<rscale>  0 0.20011825E+02</rscale>
<asrwt>0</asrwt>
<pdfrwt beam="2">  1        4 0.51063586E-02 0.20011825E+02</pdfrwt>
<pdfrwt beam="1">  1       -4 0.46406131E-03 0.20011825E+02</pdfrwt>
<totfact> 0.12128367E+06</totfact>
</mgrwt>
</event>
<event>
 4    1  0.4710515E-007  0.2005459E+02  0.7818608E-02  0.1744245E+00
         -4   -1    0    0    0  501 -0.00000000000E+00  0.00000000000E+00  0.20203492153E+02  0.20253332940E+02  0.14200000000E+01 0.  1.
          4   -1    0    0  501    0  0.00000000000E+00 -0.00000000000E+00 -0.48181534498E+01  0.50230471495E+01  0.14200000000E+01 0. -1.
        -13    1    1    2    0    0 -0.38889878793E+01  0.92416840699E+01  0.76288714009E+01  0.12599357226E+02  0.10570000000E+00 0.  1.
         13    1    1    2    0    0  0.38889878793E+01 -0.92416840699E+01  0.77564673022E+01  0.12677022863E+02  0.10570000000E+00 0. -1.
<mgrwt>
<rscale>  0 0.20054594E+02</rscale>
<asrwt>0</asrwt>
<pdfrwt beam="2">  1        4 0.76084931E-03 0.20054594E+02</pdfrwt>
<pdfrwt beam="1">  1       -4 0.31278246E-02 0.20054594E+02</pdfrwt>
<totfact> 0.12639823E+06</totfact>
</mgrwt>
</event>
<event>
 5    1  0.4710515E-007  0.2000377E+02  0.7818608E-02  0.1745253E+00
          4   -1    0    0  501    0  0.00000000000E+00  0.00000000000E+00  0.36525616440E+02  0.36553208564E+02  0.14200000000E+01 0.  1.
         -4   -1    0    0    0  501 -0.00000000000E+00 -0.00000000000E+00 -0.25241346832E+01  0.28961450066E+01  0.14200000000E+01 0. -1.
       1023    2    1    2    0    0  0.00000000000E+00  0.00000000000E+00  0.34001481757E+02  0.39449353570E+02  0.20003768032E+02 0.  0.
        -13    1    3    3    0    0 -0.13117476625E+01  0.99149162995E+01  0.17032797125E+02  0.19752306133E+02  0.10570000000E+00 0. -1.
         13    1    3    3    0    0  0.13117476625E+01 -0.99149162995E+01  0.16968684631E+02  0.19697047438E+02  0.10570000000E+00 0.  1.
<mgrwt>
<rscale>  0 0.20003768E+02</rscale>
<asrwt>0</asrwt>
<pdfrwt beam="1">  1        4 0.56500641E-02 0.20003768E+02</pdfrwt>
<pdfrwt beam="2">  1       -4 0.41906707E-03 0.20003768E+02</pdfrwt>
<totfact> 0.11983745E+06</totfact>
</mgrwt>
</event>
<event>
 5    1  0.4710515E-007  0.2000379E+02  0.7818608E-02  0.1745253E+00
         -4   -1    0    0    0  501 -0.00000000000E+00  0.00000000000E+00  0.41666762956E+01  0.44019985634E+01  0.14200000000E+01 0.  1.
          4   -1    0    0  501    0  0.00000000000E+00 -0.00000000000E+00 -0.23091954922E+02  0.23135573953E+02  0.14200000000E+01 0. -1.
       1023    2    1    2    0    0  0.00000000000E+00  0.00000000000E+00 -0.18925278626E+02  0.27537572516E+02  0.20003792865E+02 0.  0.
        -13    1    3    3    0    0  0.60175886356E+01 -0.79872049236E+01 -0.96570510531E+01  0.13902396305E+02  0.10570000000E+00 0. -1.
         13    1    3    3    0    0 -0.60175886356E+01  0.79872049236E+01 -0.92682275733E+01  0.13635176212E+02  0.10570000000E+00 0.  1.
<mgrwt>
<rscale>  0 0.20003793E+02</rscale>
<asrwt>0</asrwt>
<pdfrwt beam="2">  1        4 0.35740654E-02 0.20003793E+02</pdfrwt>
<pdfrwt beam="1">  1       -4 0.66248416E-03 0.20003793E+02</pdfrwt>
<totfact> 0.12581555E+06</totfact>
</mgrwt>
</event>
<event>
 5    1  0.4710515E-007  0.2000766E+02  0.7818608E-02  0.1745176E+00
         -4   -1    0    0    0  501 -0.00000000000E+00  0.00000000000E+00  0.93162257463E+02  0.93173078814E+02  0.14200000000E+01 0. -1.
          4   -1    0    0  501    0  0.00000000000E+00 -0.00000000000E+00 -0.58922044834E+00  0.15373941384E+01  0.14200000000E+01 0.  1.
       1023    2    1    2    0    0  0.00000000000E+00  0.00000000000E+00  0.92573037015E+02  0.94710472952E+02  0.20007661149E+02 0.  0.
        -13    1    3    3    0    0  0.94760203956E+01  0.32017351122E+01  0.45627470922E+02  0.46711062346E+02  0.10570000000E+00 0.  1.
         13    1    3    3    0    0 -0.94760203956E+01 -0.32017351122E+01  0.46945566093E+02  0.47999410606E+02  0.10570000000E+00 0. -1.
<mgrwt>
<rscale>  0 0.20007661E+02</rscale>
<asrwt>0</asrwt>
<pdfrwt beam="2">  1        4 0.16441816E-03 0.20007661E+02</pdfrwt>
<pdfrwt beam="1">  1       -4 0.14406423E-01 0.20007661E+02</pdfrwt>
<totfact> 0.99469194E+05</totfact>
</mgrwt>
</event>
<event>
 4    1  0.4710515E-007  0.2001442E+02  0.7818608E-02  0.1745042E+00
         -4   -1    0    0    0  501 -0.00000000000E+00  0.00000000000E+00  0.46846497624E+02  0.46868014036E+02  0.14200000000E+01 0.  1.
          4   -1    0    0  501    0  0.00000000000E+00 -0.00000000000E+00 -0.18773759307E+01  0.23539202164E+01  0.14200000000E+01 0. -1.
        -13    1    1    2    0    0  0.38460527470E-01  0.10002860635E+02  0.21813954962E+02  0.23998302100E+02  0.10570000000E+00 0. -1.
         13    1    1    2    0    0 -0.38460527470E-01 -0.10002860635E+02  0.23155166731E+02  0.25223632152E+02  0.10570000000E+00 0.  1.
<mgrwt>
<rscale>  0 0.20014417E+02</rscale>
<asrwt>0</asrwt>
<pdfrwt beam="2">  1        4 0.32713943E-03 0.20014417E+02</pdfrwt>
<pdfrwt beam="1">  1       -4 0.72454658E-02 0.20014417E+02</pdfrwt>
<totfact> 0.11536274E+06</totfact>
</mgrwt>
</event>
<event>
 5    1  0.4710515E-007  0.2000309E+02  0.7818608E-02  0.1745267E+00
         -4   -1    0    0    0  501 -0.00000000000E+00  0.00000000000E+00  0.65486718520E+02  0.65502112199E+02  0.14200000000E+01 0. -1.
          4   -1    0    0  501    0  0.00000000000E+00 -0.00000000000E+00 -0.11784631499E+01  0.18453117340E+01  0.14200000000E+01 0.  1.
       1023    2    1    2    0    0  0.00000000000E+00  0.00000000000E+00  0.64308255370E+02  0.67347423933E+02  0.20003094802E+02 0.  0.
        -13    1    3    3    0    0  0.23579990653E+01 -0.97185968669E+01  0.31843842379E+02  0.33377428820E+02  0.10570000000E+00 0.  1.
         13    1    3    3    0    0 -0.23579990653E+01  0.97185968669E+01  0.32464412991E+02  0.33969995113E+02  0.10570000000E+00 0. -1.
<mgrwt>
<rscale>  0 0.20003095E+02</rscale>
<asrwt>0</asrwt>
<pdfrwt beam="2">  1        4 0.23378219E-03 0.20003095E+02</pdfrwt>
<pdfrwt beam="1">  1       -4 0.10127360E-01 0.20003095E+02</pdfrwt>
<totfact> 0.10842089E+06</totfact>
</mgrwt>
</event>
<event>
 5    1  0.4710515E-007  0.2000120E+02  0.7818608E-02  0.1745304E+00
          4   -1    0    0  501    0  0.00000000000E+00  0.00000000000E+00  0.22571420538E+02  0.22616043534E+02  0.14200000000E+01 0.  1.
         -4   -1    0    0    0  501 -0.00000000000E+00 -0.00000000000E+00 -0.42667585445E+01  0.44968465036E+01  0.14200000000E+01 0. -1.
       1023    2    1    2    0    0  0.00000000000E+00  0.00000000000E+00  0.18304661994E+02  0.27112890037E+02  0.20001203851E+02 0.  0.
        -13    1    3    3    0    0 -0.99158585728E+01 -0.12947167451E+01  0.91279424330E+01  0.13539979625E+02  0.10570000000E+00 0.  1.
         13    1    3    3    0    0  0.99158585728E+01  0.12947167451E+01  0.91767195609E+01  0.13572910413E+02  0.10570000000E+00 0. -1.
<mgrwt>
<rscale>  0 0.20001204E+02</rscale>
<asrwt>0</asrwt>
<pdfrwt beam="1">  1        4 0.34936578E-02 0.20001204E+02</pdfrwt>
<pdfrwt beam="2">  1       -4 0.67755601E-03 0.20001204E+02</pdfrwt>
<totfact> 0.12607826E+06</totfact>
</mgrwt>
</event>
<event>
 5    1  0.5014898E-007  0.2000309E+02  0.7818608E-02  0.1745267E+00
          4   -1    0    0  501    0  0.00000000000E+00  0.00000000000E+00  0.62141986727E+01  0.63743756669E+01  0.14200000000E+01 0. -1.
         -4   -1    0    0    0  501 -0.00000000000E+00 -0.00000000000E+00 -0.15699697804E+02  0.15763784797E+02  0.14200000000E+01 0.  1.
       1023    2    1    2    0    0  0.00000000000E+00  0.00000000000E+00 -0.94854991315E+01  0.22138160464E+02  0.20003086136E+02 0.  0.
        -13    1    3    3    0    0 -0.89918152740E+01 -0.43776658709E+01 -0.46822235489E+01  0.11043146755E+02  0.10570000000E+00 0. -1.
         13    1    3    3    0    0  0.89918152740E+01  0.43776658709E+01 -0.48032755826E+01  0.11095013709E+02  0.10570000000E+00 0.  1.
<mgrwt>
<rscale>  0 0.20003086E+02</rscale>
<asrwt>0</asrwt>
<pdfrwt beam="1">  1        4 0.97328165E-03 0.20003086E+02</pdfrwt>
<pdfrwt beam="2">  1       -4 0.24325892E-02 0.20003086E+02</pdfrwt>
<totfact> 0.12884157E+06</totfact>
</mgrwt>
</event>
<event>
 5    1  0.4710515E-007  0.2000174E+02  0.7818608E-02  0.1745294E+00
          4   -1    0    0  501    0  0.00000000000E+00  0.00000000000E+00  0.25830814135E+01  0.29476617155E+01  0.14200000000E+01 0. -1.
         -4   -1    0    0    0  501 -0.00000000000E+00 -0.00000000000E+00 -0.35788194200E+02  0.35816354422E+02  0.14200000000E+01 0.  1.
       1023    2    1    2    0    0  0.00000000000E+00  0.00000000000E+00 -0.33205112787E+02  0.38764016138E+02  0.20001735724E+02 0.  0.
        -13    1    3    3    0    0 -0.16231856136E+01 -0.98676331009E+01 -0.16533464750E+02  0.19322824423E+02  0.10570000000E+00 0. -1.
         13    1    3    3    0    0  0.16231856136E+01  0.98676331009E+01 -0.16671648037E+02  0.19441191715E+02  0.10570000000E+00 0.  1.
<mgrwt>
<rscale>  0 0.20001736E+02</rscale>
<asrwt>0</asrwt>
<pdfrwt beam="1">  1        4 0.42760798E-03 0.20001736E+02</pdfrwt>
<pdfrwt beam="2">  1       -4 0.55360865E-02 0.20001736E+02</pdfrwt>
<totfact> 0.12018418E+06</totfact>
</mgrwt>
</event>
<event>
 4    1  0.4710515E-007  0.2041551E+02  0.7818608E-02  0.1737189E+00
          4   -1    0    0  501    0  0.00000000000E+00  0.00000000000E+00  0.12242815716E+01  0.18749040953E+01  0.14200000000E+01 0. -1.
         -4   -1    0    0    0  501 -0.00000000000E+00 -0.00000000000E+00 -0.66582578315E+02  0.66597718692E+02  0.14200000000E+01 0.  1.
        -13    1    1    2    0    0  0.10120121867E+02  0.79015925813E-01 -0.37133716543E+02  0.38488273369E+02  0.10570000000E+00 0. -1.
         13    1    1    2    0    0 -0.10120121867E+02 -0.79015925813E-01 -0.28224580200E+02  0.29984349419E+02  0.10570000000E+00 0.  1.
<mgrwt>
<rscale>  0 0.20415512E+02</rscale>
<asrwt>0</asrwt>
<pdfrwt beam="1">  1        4 0.23956359E-03 0.20415512E+02</pdfrwt>
<pdfrwt beam="2">  1       -4 0.10294684E-01 0.20415512E+02</pdfrwt>
<totfact> 0.10366049E+06</totfact>
</mgrwt>
</event>
<event>
 5    1  0.4710515E-007  0.2000938E+02  0.7818608E-02  0.1745142E+00
          4   -1    0    0  501    0  0.00000000000E+00  0.00000000000E+00  0.54594902183E+02  0.54613365986E+02  0.14200000000E+01 0. -1.
         -4   -1    0    0    0  501 -0.00000000000E+00 -0.00000000000E+00 -0.15367648034E+01  0.20923780875E+01  0.14200000000E+01 0.  1.
       1023    2    1    2    0    0  0.00000000000E+00  0.00000000000E+00  0.53058137379E+02  0.56705744074E+02  0.20009384518E+02 0.  0.
        -13    1    3    3    0    0  0.96921660627E+01  0.24728655684E+01  0.27016209419E+02  0.28808677355E+02  0.10570000000E+00 0. -1.
         13    1    3    3    0    0 -0.96921660627E+01 -0.24728655684E+01  0.26041927961E+02  0.27897066719E+02  0.10570000000E+00 0.  1.
<mgrwt>
<rscale>  0 0.20009385E+02</rscale>
<asrwt>0</asrwt>
<pdfrwt beam="1">  1        4 0.84433764E-02 0.20009385E+02</pdfrwt>
<pdfrwt beam="2">  1       -4 0.28058510E-03 0.20009385E+02</pdfrwt>
<totfact> 0.11236418E+06</totfact>
</mgrwt>
</event>
<event>
 5    1  0.4710515E-007  0.2000421E+02  0.7818608E-02  0.1745244E+00
         -4   -1    0    0    0  501 -0.00000000000E+00  0.00000000000E+00  0.18203235111E+01  0.23086744433E+01  0.14200000000E+01 0.  1.
          4   -1    0    0  501    0  0.00000000000E+00 -0.00000000000E+00 -0.47958193052E+02  0.47979210923E+02  0.14200000000E+01 0. -1.
       1023    2    1    2    0    0  0.00000000000E+00  0.00000000000E+00 -0.46137869541E+02  0.50287885367E+02  0.20004209779E+02 0.  0.
        -13    1    3    3    0    0 -0.47381105416E+01 -0.88064154349E+01 -0.22646146224E+02  0.24756044830E+02  0.10570000000E+00 0.  1.
         13    1    3    3    0    0  0.47381105416E+01  0.88064154349E+01 -0.23491723317E+02  0.25531840537E+02  0.10570000000E+00 0. -1.
<mgrwt>
<rscale>  0 0.20004210E+02</rscale>
<asrwt>0</asrwt>
<pdfrwt beam="2">  1        4 0.74173649E-02 0.20004210E+02</pdfrwt>
<pdfrwt beam="1">  1       -4 0.31923202E-03 0.20004210E+02</pdfrwt>
<totfact> 0.11503241E+06</totfact>
</mgrwt>
</event>
<event>
 4    1  0.4710515E-007  0.2005498E+02  0.7818608E-02  0.1744237E+00
         -4   -1    0    0    0  501 -0.00000000000E+00  0.00000000000E+00  0.97069605693E+02  0.97079991499E+02  0.14200000000E+01 0. -1.
          4   -1    0    0  501    0  0.00000000000E+00 -0.00000000000E+00 -0.53377666469E+00  0.15170094027E+01  0.14200000000E+01 0.  1.
        -13    1    1    2    0    0 -0.97222433449E+01  0.23960097311E+01  0.45682631275E+02  0.46767262598E+02  0.10570000000E+00 0. -1.
         13    1    1    2    0    0  0.97222433449E+01 -0.23960097311E+01  0.50853197754E+02  0.51829738303E+02  0.10570000000E+00 0.  1.
<mgrwt>
<rscale>  0 0.20054982E+02</rscale>
<asrwt>0</asrwt>
<pdfrwt beam="2">  1        4 0.15855163E-03 0.20054982E+02</pdfrwt>
<pdfrwt beam="1">  1       -4 0.15010222E-01 0.20054982E+02</pdfrwt>
<totfact> 0.97875965E+05</totfact>
</mgrwt>
</event>
<event>
 5    1  0.4710515E-007  0.2000724E+02  0.7818608E-02  0.1745184E+00
          4   -1    0    0  501    0  0.00000000000E+00  0.00000000000E+00  0.59739520314E+01  0.61403992438E+01  0.14200000000E+01 0.  1.
         -4   -1    0    0    0  501 -0.00000000000E+00 -0.00000000000E+00 -0.16323613513E+02  0.16385260393E+02  0.14200000000E+01 0. -1.
       1023    2    1    2    0    0  0.00000000000E+00  0.00000000000E+00 -0.10349661482E+02  0.22525659636E+02  0.20007244919E+02 0.  0.
        -13    1    3    3    0    0 -0.85650010168E+01 -0.51664515813E+01 -0.52864314159E+01  0.11314105973E+02  0.10570000000E+00 0.  1.
         13    1    3    3    0    0  0.85650010168E+01  0.51664515813E+01 -0.50632300660E+01  0.11211553664E+02  0.10570000000E+00 0. -1.
<mgrwt>
<rscale>  0 0.20007245E+02</rscale>
<asrwt>0</asrwt>
<pdfrwt beam="1">  1        4 0.93661525E-03 0.20007245E+02</pdfrwt>
<pdfrwt beam="2">  1       -4 0.25288708E-02 0.20007245E+02</pdfrwt>
<totfact> 0.12856323E+06</totfact>
</mgrwt>
</event>
<event>
 4    1  0.4710515E-007  0.2003874E+02  0.7818608E-02  0.1744559E+00
         -4   -1    0    0    0  501 -0.00000000000E+00  0.00000000000E+00  0.19305452373E+02  0.19357605517E+02  0.14200000000E+01 0. -1.
          4   -1    0    0  501    0  0.00000000000E+00 -0.00000000000E+00 -0.50426079953E+01  0.52387303228E+01  0.14200000000E+01 0.  1.
        -13    1    1    2    0    0  0.26073683501E+01  0.96683965989E+01  0.75201868455E+01  0.12523603522E+02  0.10570000000E+00 0.  1.
         13    1    1    2    0    0 -0.26073683501E+01 -0.96683965989E+01  0.67426575325E+01  0.12072732317E+02  0.10570000000E+00 0. -1.
<mgrwt>
<rscale>  0 0.20038738E+02</rscale>
<asrwt>0</asrwt>
<pdfrwt beam="2">  1        4 0.79488396E-03 0.20038738E+02</pdfrwt>
<pdfrwt beam="1">  1       -4 0.29891677E-02 0.20038738E+02</pdfrwt>
<totfact> 0.12698034E+06</totfact>
</mgrwt>
</event>
<event>
 4    1  0.4710515E-007  0.2004073E+02  0.7818608E-02  0.1744519E+00
          4   -1    0    0  501    0  0.00000000000E+00  0.00000000000E+00  0.41928595669E+02  0.41952634420E+02  0.14200000000E+01 0. -1.
         -4   -1    0    0    0  501 -0.00000000000E+00 -0.00000000000E+00 -0.21572400272E+01  0.25826506800E+01  0.14200000000E+01 0.  1.
        -13    1    1    2    0    0  0.80296979334E+01 -0.59747494502E+01  0.20934776749E+02  0.23204519601E+02  0.10570000000E+00 0.  1.
         13    1    1    2    0    0 -0.80296979334E+01  0.59747494502E+01  0.18836578893E+02  0.21330765499E+02  0.10570000000E+00 0. -1.
<mgrwt>
<rscale>  0 0.20040731E+02</rscale>
<asrwt>0</asrwt>
<pdfrwt beam="1">  1        4 0.64851256E-02 0.20040731E+02</pdfrwt>
<pdfrwt beam="2">  1       -4 0.36645615E-03 0.20040731E+02</pdfrwt>
<totfact> 0.11708155E+06</totfact>
</mgrwt>
</event>
<event>
 4    1  0.4710515E-007  0.2020052E+02  0.7818608E-02  0.1741370E+00
         -4   -1    0    0    0  501 -0.00000000000E+00  0.00000000000E+00  0.27979180867E+02  0.28015191629E+02  0.14200000000E+01 0.  1.
          4   -1    0    0  501    0  0.00000000000E+00 -0.00000000000E+00 -0.34679355110E+01  0.37473959904E+01  0.14200000000E+01 0. -1.
        -13    1    1    2    0    0  0.54477848302E+01  0.84795983094E+01  0.11234085786E+02  0.15092971973E+02  0.10570000000E+00 0. -1.
         13    1    1    2    0    0 -0.54477848302E+01 -0.84795983094E+01  0.13277159570E+02  0.16669615646E+02  0.10570000000E+00 0.  1.
<mgrwt>
<rscale>  0 0.20200515E+02</rscale>
<asrwt>0</asrwt>
<pdfrwt beam="2">  1        4 0.55779557E-03 0.20200515E+02</pdfrwt>
<pdfrwt beam="1">  1       -4 0.43287563E-02 0.20200515E+02</pdfrwt>
<totfact> 0.12116350E+06</totfact>
</mgrwt>
</event>
<event>
 5    1  0.4900112E-007  0.2000216E+02  0.7818608E-02  0.1745285E+00
         -4   -1    0    0    0  501 -0.00000000000E+00  0.00000000000E+00  0.31010296902E+01  0.34106869014E+01  0.14200000000E+01 0.  1.
          4   -1    0    0  501    0  0.00000000000E+00 -0.00000000000E+00 -0.30393484534E+02  0.30426638035E+02  0.14200000000E+01 0. -1.
       1023    2    1    2    0    0  0.00000000000E+00  0.00000000000E+00 -0.27292454844E+02  0.33837324936E+02  0.20002161570E+02 0.  0.
        -13    1    3    3    0    0 -0.76975634441E+01 -0.63838060124E+01 -0.13765634310E+02  0.17014973483E+02  0.10570000000E+00 0.  1.
         13    1    3    3    0    0  0.76975634441E+01  0.63838060124E+01 -0.13526820534E+02  0.16822351453E+02  0.10570000000E+00 0. -1.
<mgrwt>
<rscale>  0 0.20002162E+02</rscale>
<asrwt>0</asrwt>
<pdfrwt beam="2">  1        4 0.47022906E-02 0.20002162E+02</pdfrwt>
<pdfrwt beam="1">  1       -4 0.50345157E-03 0.20002162E+02</pdfrwt>
<totfact> 0.12256977E+06</totfact>
</mgrwt>
</event>
<event>
 5    1  0.4710515E-007  0.2000191E+02  0.7818608E-02  0.1745290E+00
          4   -1    0    0  501    0  0.00000000000E+00  0.00000000000E+00  0.72940195309E+02  0.72954016282E+02  0.14200000000E+01 0.  1.
         -4   -1    0    0    0  501 -0.00000000000E+00 -0.00000000000E+00 -0.98585288616E+00  0.17286717193E+01  0.14200000000E+01 0. -1.
       1023    2    1    2    0    0  0.00000000000E+00  0.00000000000E+00  0.71954342423E+02  0.74682688001E+02  0.20001912250E+02 0.  0.
        -13    1    3    3    0    0 -0.48211472453E+01 -0.87614806647E+01  0.36092055134E+02  0.37452030926E+02  0.10570000000E+00 0.  1.
         13    1    3    3    0    0  0.48211472453E+01  0.87614806647E+01  0.35862287288E+02  0.37230657075E+02  0.10570000000E+00 0. -1.
<mgrwt>
<rscale>  0 0.20001912E+02</rscale>
<asrwt>0</asrwt>
<pdfrwt beam="1">  1        4 0.11279775E-01 0.20001912E+02</pdfrwt>
<pdfrwt beam="2">  1       -4 0.20987267E-03 0.20001912E+02</pdfrwt>
<totfact> 0.10586469E+06</totfact>
</mgrwt>
</event>
<event>
 5    1  0.4710515E-007  0.2000129E+02  0.7818608E-02  0.1745302E+00
          4   -1    0    0  501    0  0.00000000000E+00  0.00000000000E+00  0.60733468012E+02  0.60750066147E+02  0.14200000000E+01 0. -1.
         -4   -1    0    0    0  501 -0.00000000000E+00 -0.00000000000E+00 -0.13206010481E+01  0.19391717635E+01  0.14200000000E+01 0.  1.
       1023    2    1    2    0    0  0.00000000000E+00  0.00000000000E+00  0.59412866964E+02  0.62689237910E+02  0.20001294679E+02 0.  0.
        -13    1    3    3    0    0  0.84247644111E+01  0.53874352826E+01  0.29786979150E+02  0.31420955009E+02  0.10570000000E+00 0. -1.
         13    1    3    3    0    0 -0.84247644111E+01 -0.53874352826E+01  0.29625887814E+02  0.31268282901E+02  0.10570000000E+00 0.  1.
<mgrwt>
<rscale>  0 0.20001295E+02</rscale>
<asrwt>0</asrwt>
<pdfrwt beam="1">  1        4 0.93924711E-02 0.20001295E+02</pdfrwt>
<pdfrwt beam="2">  1       -4 0.25202849E-03 0.20001295E+02</pdfrwt>
<totfact> 0.11015366E+06</totfact>
</mgrwt>
</event>
<event>
 5    1  0.4774758E-007  0.2000202E+02  0.7818608E-02  0.1745288E+00
          4   -1    0    0  501    0  0.00000000000E+00  0.00000000000E+00  0.74016134609E+01  0.75365961696E+01  0.14200000000E+01 0.  1.
         -4   -1    0    0    0  501 -0.00000000000E+00 -0.00000000000E+00 -0.13217839066E+02  0.13293895951E+02  0.14200000000E+01 0. -1.
       1023    2    1    2    0    0  0.00000000000E+00  0.00000000000E+00 -0.58162256047E+01  0.20830492121E+02  0.20002022941E+02 0.  0.
        -13    1    3    3    0    0  0.10269031706E+01 -0.99475890445E+01 -0.29079666321E+01  0.10415205247E+02  0.10570000000E+00 0. -1.
         13    1    3    3    0    0 -0.10269031706E+01  0.99475890445E+01 -0.29082589727E+01  0.10415286874E+02  0.10570000000E+00 0.  1.
<mgrwt>
<rscale>  0 0.20002023E+02</rscale>
<asrwt>0</asrwt>
<pdfrwt beam="1">  1        4 0.11549436E-02 0.20002023E+02</pdfrwt>
<pdfrwt beam="2">  1       -4 0.20497475E-02 0.20002023E+02</pdfrwt>
<totfact> 0.12962095E+06</totfact>
</mgrwt>
</event>
<event>
 4    1  0.4710515E-007  0.2001735E+02  0.7818608E-02  0.1744983E+00
          4   -1    0    0  501    0  0.00000000000E+00  0.00000000000E+00  0.11738042690E+01  0.18423399420E+01  0.14200000000E+01 0.  1.
         -4   -1    0    0    0  501 -0.00000000000E+00 -0.00000000000E+00 -0.65747041061E+02  0.65762373804E+02  0.14200000000E+01 0. -1.
        -13    1    1    2    0    0 -0.99397212108E+01  0.11677961541E+01 -0.32202211924E+02  0.33721735289E+02  0.10570000000E+00 0. -1.
         13    1    1    2    0    0  0.99397212108E+01 -0.11677961541E+01 -0.32371024868E+02  0.33882978457E+02  0.10570000000E+00 0.  1.
<mgrwt>
<rscale>  0 0.20017353E+02</rscale>
<asrwt>0</asrwt>
<pdfrwt beam="1">  1        4 0.23319059E-03 0.20017353E+02</pdfrwt>
<pdfrwt beam="2">  1       -4 0.10167532E-01 0.20017353E+02</pdfrwt>
<totfact> 0.10817331E+06</totfact>
</mgrwt>
</event>
<event>
 4    1  0.4710515E-007  0.2004614E+02  0.7818608E-02  0.1744412E+00
          4   -1    0    0  501    0  0.00000000000E+00  0.00000000000E+00  0.25891436482E+02  0.25930346760E+02  0.14200000000E+01 0. -1.
         -4   -1    0    0    0  501 -0.00000000000E+00 -0.00000000000E+00 -0.37068636316E+01  0.39695387621E+01  0.14200000000E+01 0.  1.
        -13    1    1    2    0    0 -0.10001844728E+02  0.58422316715E+00  0.10690442958E+02  0.14651790259E+02  0.10570000000E+00 0.  1.
         13    1    1    2    0    0  0.10001844728E+02 -0.58422316715E+00  0.11494129892E+02  0.15248095263E+02  0.10570000000E+00 0. -1.
<mgrwt>
<rscale>  0 0.20046144E+02</rscale>
<asrwt>0</asrwt>
<pdfrwt beam="1">  1        4 0.40064967E-02 0.20046144E+02</pdfrwt>
<pdfrwt beam="2">  1       -4 0.59348560E-03 0.20046144E+02</pdfrwt>
<totfact> 0.12402738E+06</totfact>
</mgrwt>
</event>
<event>
 5    1  0.4768159E-007  0.2000131E+02  0.7818608E-02  0.1745302E+00
          4   -1    0    0  501    0  0.00000000000E+00  0.00000000000E+00  0.18135423739E+02  0.18190931647E+02  0.14200000000E+01 0. -1.
         -4   -1    0    0    0  501 -0.00000000000E+00 -0.00000000000E+00 -0.53582314031E+01  0.55431979731E+01  0.14200000000E+01 0.  1.
       1023    2    1    2    0    0  0.00000000000E+00  0.00000000000E+00  0.12777192336E+02  0.23734129620E+02  0.20001306579E+02 0.  0.
        -13    1    3    3    0    0  0.16613005353E+01 -0.98611307805E+01  0.63988028116E+01  0.11872559524E+02  0.10570000000E+00 0.  1.
         13    1    3    3    0    0 -0.16613005353E+01  0.98611307805E+01  0.63783895244E+01  0.11861570096E+02  0.10570000000E+00 0. -1.
<mgrwt>
<rscale>  0 0.20001307E+02</rscale>
<asrwt>0</asrwt>
<pdfrwt beam="1">  1        4 0.28085631E-02 0.20001307E+02</pdfrwt>
<pdfrwt beam="2">  1       -4 0.84284136E-03 0.20001307E+02</pdfrwt>
<totfact> 0.12795083E+06</totfact>
</mgrwt>
</event>
<event>
 4    1  0.4710515E-007  0.2006303E+02  0.7818608E-02  0.1744078E+00
          4   -1    0    0  501    0  0.00000000000E+00  0.00000000000E+00  0.22396543556E+01  0.26518770018E+01  0.14200000000E+01 0. -1.
         -4   -1    0    0    0  501 -0.00000000000E+00 -0.00000000000E+00 -0.40719453603E+02  0.40744205744E+02  0.14200000000E+01 0.  1.
        -13    1    1    2    0    0 -0.48936190636E+01  0.87423521601E+01 -0.20308031488E+02  0.22645166024E+02  0.10570000000E+00 0.  1.
         13    1    1    2    0    0  0.48936190636E+01 -0.87423521601E+01 -0.18171767759E+02  0.20750916722E+02  0.10570000000E+00 0. -1.
<mgrwt>
<rscale>  0 0.20063027E+02</rscale>
<asrwt>0</asrwt>
<pdfrwt beam="1">  1        4 0.37817568E-03 0.20063027E+02</pdfrwt>
<pdfrwt beam="2">  1       -4 0.62981443E-02 0.20063027E+02</pdfrwt>
<totfact> 0.11732421E+06</totfact>
</mgrwt>
</event>
<event>
 5    1  0.4710515E-007  0.2000145E+02  0.7818608E-02  0.1745299E+00
          4   -1    0    0  501    0  0.00000000000E+00  0.00000000000E+00  0.42466464331E+01  0.44777679627E+01  0.14200000000E+01 0. -1.
         -4   -1    0    0    0  501 -0.00000000000E+00 -0.00000000000E+00 -0.22673570733E+02  0.22717993084E+02  0.14200000000E+01 0.  1.
       1023    2    1    2    0    0  0.00000000000E+00  0.00000000000E+00 -0.18426924300E+02  0.27195761047E+02  0.20001446942E+02 0.  0.
        -13    1    3    3    0    0 -0.70125928859E+01  0.71292835411E+01 -0.92303715763E+01  0.13609337777E+02  0.10570000000E+00 0. -1.
         13    1    3    3    0    0  0.70125928859E+01 -0.71292835411E+01 -0.91965527233E+01  0.13586423270E+02  0.10570000000E+00 0.  1.
<mgrwt>
<rscale>  0 0.20001447E+02</rscale>
<asrwt>0</asrwt>
<pdfrwt beam="1">  1        4 0.67452592E-03 0.20001447E+02</pdfrwt>
<pdfrwt beam="2">  1       -4 0.35094373E-02 0.20001447E+02</pdfrwt>
<totfact> 0.12603024E+06</totfact>
</mgrwt>
</event>
<event>
 4    1  0.4710515E-007  0.2007131E+02  0.7818608E-02  0.1743914E+00
          4   -1    0    0  501    0  0.00000000000E+00  0.00000000000E+00  0.23487567404E+01  0.27446417299E+01  0.14200000000E+01 0. -1.
         -4   -1    0    0    0  501 -0.00000000000E+00 -0.00000000000E+00 -0.39137254309E+02  0.39163006458E+02  0.14200000000E+01 0.  1.
        -13    1    1    2    0    0  0.94898893947E+00  0.99875814768E+01 -0.17923560801E+02  0.20540632123E+02  0.10570000000E+00 0.  1.
         13    1    1    2    0    0 -0.94898893947E+00 -0.99875814768E+01 -0.18864936768E+02  0.21367016065E+02  0.10570000000E+00 0. -1.
<mgrwt>
<rscale>  0 0.20071308E+02</rscale>
<asrwt>0</asrwt>
<pdfrwt beam="1">  1        4 0.39378085E-03 0.20071308E+02</pdfrwt>
<pdfrwt beam="2">  1       -4 0.60535492E-02 0.20071308E+02</pdfrwt>
<totfact> 0.11789510E+06</totfact>
</mgrwt>
</event>
<event>
 5    1  0.4710515E-007  0.2000246E+02  0.7818608E-02  0.1745279E+00
         -4   -1    0    0    0  501 -0.00000000000E+00  0.00000000000E+00  0.95244507299E+01  0.96297228260E+01  0.14200000000E+01 0.  1.
          4   -1    0    0  501    0  0.00000000000E+00 -0.00000000000E+00 -0.10289858370E+02  0.10387376246E+02  0.14200000000E+01 0. -1.
       1023    2    1    2    0    0  0.00000000000E+00  0.00000000000E+00 -0.76540764045E+00  0.20017099072E+02  0.20002460009E+02 0.  0.
        -13    1    3    3    0    0  0.98236821306E+01 -0.18730179592E+01 -0.40513081867E+00  0.10009407093E+02  0.10570000000E+00 0.  1.
         13    1    3    3    0    0 -0.98236821306E+01  0.18730179592E+01 -0.36027682178E+00  0.10007691979E+02  0.10570000000E+00 0. -1.
<mgrwt>
<rscale>  0 0.20002460E+02</rscale>
<asrwt>0</asrwt>
<pdfrwt beam="2">  1        4 0.15986544E-02 0.20002460E+02</pdfrwt>
<pdfrwt beam="1">  1       -4 0.14808993E-02 0.20002460E+02</pdfrwt>
<totfact> 0.13009762E+06</totfact>
</mgrwt>
</event>
<event>
 5    1  0.4710515E-007  0.2000372E+02  0.7818608E-02  0.1745254E+00
         -4   -1    0    0    0  501 -0.00000000000E+00  0.00000000000E+00  0.57132555793E+02  0.57150199750E+02  0.14200000000E+01 0.  1.
          4   -1    0    0  501    0  0.00000000000E+00 -0.00000000000E+00 -0.14421261688E+01  0.20238892971E+01  0.14200000000E+01 0. -1.
       1023    2    1    2    0    0  0.00000000000E+00  0.00000000000E+00  0.55690429624E+02  0.59174089047E+02  0.20003721224E+02 0.  0.
        -13    1    3    3    0    0 -0.35306702767E+01  0.93562067023E+01  0.28282048643E+02  0.29998161350E+02  0.10570000000E+00 0. -1.
         13    1    3    3    0    0  0.35306702767E+01 -0.93562067023E+01  0.27408380981E+02  0.29175927697E+02  0.10570000000E+00 0.  1.
<mgrwt>
<rscale>  0 0.20003721E+02</rscale>
<asrwt>0</asrwt>
<pdfrwt beam="2">  1        4 0.26797381E-03 0.20003721E+02</pdfrwt>
<pdfrwt beam="1">  1       -4 0.88357321E-02 0.20003721E+02</pdfrwt>
<totfact> 0.11146483E+06</totfact>
</mgrwt>
</event>
<event>
 5    1  0.4710515E-007  0.2000216E+02  0.7818608E-02  0.1745285E+00
          4   -1    0    0  501    0  0.00000000000E+00  0.00000000000E+00  0.26953917354E+01  0.30465614399E+01  0.14200000000E+01 0.  1.
         -4   -1    0    0    0  501 -0.00000000000E+00 -0.00000000000E+00 -0.34472186581E+02  0.34501420951E+02  0.14200000000E+01 0. -1.
       1023    2    1    2    0    0  0.00000000000E+00  0.00000000000E+00 -0.31776794845E+02  0.37547982391E+02  0.20002157159E+02 0.  0.
        -13    1    3    3    0    0 -0.53263943965E+01 -0.84639404450E+01 -0.15812489553E+02  0.18709750492E+02  0.10570000000E+00 0.  1.
         13    1    3    3    0    0  0.53263943965E+01  0.84639404450E+01 -0.15964305293E+02  0.18838231899E+02  0.10570000000E+00 0. -1.
<mgrwt>
<rscale>  0 0.20002157E+02</rscale>
<asrwt>0</asrwt>
<pdfrwt beam="1">  1        4 0.44393753E-03 0.20002157E+02</pdfrwt>
<pdfrwt beam="2">  1       -4 0.53326749E-02 0.20002157E+02</pdfrwt>
<totfact> 0.12075663E+06</totfact>
</mgrwt>
</event>
<event>
 4    1  0.4710515E-007  0.2001977E+02  0.7818608E-02  0.1744935E+00
          4   -1    0    0  501    0  0.00000000000E+00  0.00000000000E+00  0.68280218000E+02  0.68294982027E+02  0.14200000000E+01 0. -1.
         -4   -1    0    0    0  501 -0.00000000000E+00 -0.00000000000E+00 -0.11054301053E+01  0.17995487539E+01  0.14200000000E+01 0.  1.
        -13    1    1    2    0    0 -0.45573171993E+01 -0.89089903220E+01  0.34349336394E+02  0.35777469611E+02  0.10570000000E+00 0. -1.
         13    1    1    2    0    0  0.45573171993E+01  0.89089903220E+01  0.32825451501E+02  0.34317061170E+02  0.10570000000E+00 0.  1.
<mgrwt>
<rscale>  0 0.20019768E+02</rscale>
<asrwt>0</asrwt>
<pdfrwt beam="1">  1        4 0.10559179E-01 0.20019768E+02</pdfrwt>
<pdfrwt beam="2">  1       -4 0.22459560E-03 0.20019768E+02</pdfrwt>
<totfact> 0.10726175E+06</totfact>
</mgrwt>
</event>
<event>
 5    1  0.4710515E-007  0.2000790E+02  0.7818608E-02  0.1745171E+00
         -4   -1    0    0    0  501 -0.00000000000E+00  0.00000000000E+00  0.23609031672E+02  0.23651697116E+02  0.14200000000E+01 0. -1.
          4   -1    0    0  501    0  0.00000000000E+00 -0.00000000000E+00 -0.40721732413E+01  0.43126552039E+01  0.14200000000E+01 0.  1.
       1023    2    1    2    0    0  0.00000000000E+00  0.00000000000E+00  0.19536858430E+02  0.27964352320E+02  0.20007902523E+02 0.  0.
        -13    1    3    3    0    0  0.38195479784E+01  0.92442894761E+01  0.95609633638E+01  0.13837233380E+02  0.10570000000E+00 0.  1.
         13    1    3    3    0    0 -0.38195479784E+01 -0.92442894761E+01  0.99758950667E+01  0.14127118940E+02  0.10570000000E+00 0. -1.
<mgrwt>
<rscale>  0 0.20007903E+02</rscale>
<asrwt>0</asrwt>
<pdfrwt beam="2">  1        4 0.64826876E-03 0.20007903E+02</pdfrwt>
<pdfrwt beam="1">  1       -4 0.36539393E-02 0.20007903E+02</pdfrwt>
<totfact> 0.12553371E+06</totfact>
</mgrwt>
</event>
<event>
 4    1  0.4710515E-007  0.2015248E+02  0.7818608E-02  0.1742313E+00
         -4   -1    0    0    0  501 -0.00000000000E+00  0.00000000000E+00  0.90324691358E+02  0.90335852621E+02  0.14200000000E+01 0.  1.
          4   -1    0    0  501    0  0.00000000000E+00 -0.00000000000E+00 -0.65980395485E+00  0.15658037102E+01  0.14200000000E+01 0. -1.
        -13    1    1    2    0    0 -0.87659455703E+01  0.49270083076E+01  0.41940269653E+02  0.43129045940E+02  0.10570000000E+00 0.  1.
         13    1    1    2    0    0  0.87659455703E+01 -0.49270083076E+01  0.47724617749E+02  0.48772610392E+02  0.10570000000E+00 0. -1.
<mgrwt>
<rscale>  0 0.20152479E+02</rscale>
<asrwt>0</asrwt>
<pdfrwt beam="2">  1        4 0.17205910E-03 0.20152479E+02</pdfrwt>
<pdfrwt beam="1">  1       -4 0.13966661E-01 0.20152479E+02</pdfrwt>
<totfact> 0.98868456E+05</totfact>
</mgrwt>
</event>
<event>
 5    1  0.4710515E-007  0.2000948E+02  0.7818608E-02  0.1745140E+00
         -4   -1    0    0    0  501 -0.00000000000E+00  0.00000000000E+00  0.53173068294E+02  0.53192025641E+02  0.14200000000E+01 0. -1.
          4   -1    0    0  501    0  0.00000000000E+00 -0.00000000000E+00 -0.15925210817E+01  0.21336643119E+01  0.14200000000E+01 0.  1.
       1023    2    1    2    0    0  0.00000000000E+00  0.00000000000E+00  0.51580547212E+02  0.55325689953E+02  0.20009475706E+02 0.  0.
        -13    1    3    3    0    0 -0.80213281102E+00 -0.99718018764E+01  0.25630064576E+02  0.27513480920E+02  0.10570000000E+00 0. -1.
         13    1    3    3    0    0  0.80213281102E+00  0.99718018764E+01  0.25950482637E+02  0.27812209033E+02  0.10570000000E+00 0.  1.
<mgrwt>
<rscale>  0 0.20009476E+02</rscale>
<asrwt>0</asrwt>
<pdfrwt beam="2">  1        4 0.28808795E-03 0.20009476E+02</pdfrwt>
<pdfrwt beam="1">  1       -4 0.82235553E-02 0.20009476E+02</pdfrwt>
<totfact> 0.11291089E+06</totfact>
</mgrwt>
</event>
<event>
 5    1  0.4710515E-007  0.2000138E+02  0.7818608E-02  0.1745301E+00
          4   -1    0    0  501    0  0.00000000000E+00  0.00000000000E+00  0.14884472228E+02  0.14952053822E+02  0.14200000000E+01 0.  1.
         -4   -1    0    0    0  501 -0.00000000000E+00 -0.00000000000E+00 -0.65604011565E+01  0.67123217544E+01  0.14200000000E+01 0. -1.
       1023    2    1    2    0    0  0.00000000000E+00  0.00000000000E+00  0.83240710715E+01  0.21664375577E+02  0.20001375201E+02 0.  0.
        -13    1    3    3    0    0 -0.13571582305E+01  0.99076035531E+01  0.41515696804E+01  0.10828166508E+02  0.10570000000E+00 0.  1.
         13    1    3    3    0    0  0.13571582305E+01 -0.99076035531E+01  0.41725013911E+01  0.10836209069E+02  0.10570000000E+00 0. -1.
<mgrwt>
<rscale>  0 0.20001375E+02</rscale>
<asrwt>0</asrwt>
<pdfrwt beam="1">  1        4 0.23068036E-02 0.20001375E+02</pdfrwt>
<pdfrwt beam="2">  1       -4 0.10261773E-02 0.20001375E+02</pdfrwt>
<totfact> 0.12913948E+06</totfact>
</mgrwt>
</event>
<event>
 4    1  0.4710515E-007  0.2015086E+02  0.7818608E-02  0.1742345E+00
         -4   -1    0    0    0  501 -0.00000000000E+00  0.00000000000E+00  0.39989494823E+02  0.40014698502E+02  0.14200000000E+01 0.  1.
          4   -1    0    0  501    0  0.00000000000E+00 -0.00000000000E+00 -0.23118176498E+01  0.27130980163E+01  0.14200000000E+01 0. -1.
        -13    1    1    2    0    0  0.10004051581E+02  0.10882117047E+01  0.17804649966E+02  0.20451943322E+02  0.10570000000E+00 0. -1.
         13    1    1    2    0    0 -0.10004051581E+02 -0.10882117047E+01  0.19873027207E+02  0.22275853196E+02  0.10570000000E+00 0.  1.
<mgrwt>
<rscale>  0 0.20150862E+02</rscale>
<asrwt>0</asrwt>
<pdfrwt beam="2">  1        4 0.38847073E-03 0.20150862E+02</pdfrwt>
<pdfrwt beam="1">  1       -4 0.61850363E-02 0.20150862E+02</pdfrwt>
<totfact> 0.11658768E+06</totfact>
</mgrwt>
</event>
<event>
 5    1  0.4710515E-007  0.2000241E+02  0.7818608E-02  0.1745280E+00
         -4   -1    0    0    0  501 -0.00000000000E+00  0.00000000000E+00  0.14725266682E+01  0.20456624327E+01  0.14200000000E+01 0.  1.
          4   -1    0    0  501    0  0.00000000000E+00 -0.00000000000E+00 -0.56277550464E+02  0.56295462394E+02  0.14200000000E+01 0. -1.
       1023    2    1    2    0    0  0.00000000000E+00  0.00000000000E+00 -0.54805023795E+02  0.58341124827E+02  0.20002405177E+02 0.  0.
        -13    1    3    3    0    0 -0.98447257726E+01 -0.17576329479E+01 -0.27196649345E+02  0.28977177351E+02  0.10570000000E+00 0.  1.
         13    1    3    3    0    0  0.98447257726E+01  0.17576329479E+01 -0.27608374450E+02  0.29363947476E+02  0.10570000000E+00 0. -1.
<mgrwt>
<rscale>  0 0.20002405E+02</rscale>
<asrwt>0</asrwt>
<pdfrwt beam="2">  1        4 0.87035485E-02 0.20002405E+02</pdfrwt>
<pdfrwt beam="1">  1       -4 0.27200782E-03 0.20002405E+02</pdfrwt>
<totfact> 0.11180238E+06</totfact>
</mgrwt>
</event>
<event>
 4    1  0.4710515E-007  0.2002338E+02  0.7818608E-02  0.1744864E+00
         -4   -1    0    0    0  501 -0.00000000000E+00  0.00000000000E+00  0.32745326300E+02  0.32776100966E+02  0.14200000000E+01 0. -1.
          4   -1    0    0  501    0  0.00000000000E+00 -0.00000000000E+00 -0.28622841547E+01  0.31951636237E+01  0.14200000000E+01 0.  1.
        -13    1    1    2    0    0  0.22210935586E+01 -0.97525801861E+01  0.14186434174E+02  0.17358345657E+02  0.10570000000E+00 0.  1.
         13    1    1    2    0    0 -0.22210935586E+01  0.97525801861E+01  0.15696607972E+02  0.18612918933E+02  0.10570000000E+00 0. -1.
<mgrwt>
<rscale>  0 0.20023378E+02</rscale>
<asrwt>0</asrwt>
<pdfrwt beam="2">  1        4 0.46832481E-03 0.20023378E+02</pdfrwt>
<pdfrwt beam="1">  1       -4 0.50657158E-02 0.20023378E+02</pdfrwt>
<totfact> 0.12125657E+06</totfact>
</mgrwt>
</event>
<event>
 5    1  0.4710515E-007  0.2000623E+02  0.7818608E-02  0.1745204E+00
         -4   -1    0    0    0  501 -0.00000000000E+00  0.00000000000E+00  0.47718038804E+00  0.14980324171E+01  0.14200000000E+01 0.  1.
          4   -1    0    0  501    0  0.00000000000E+00 -0.00000000000E+00 -0.10028951417E+03  0.10029956656E+03  0.14200000000E+01 0. -1.
       1023    2    1    2    0    0  0.00000000000E+00  0.00000000000E+00 -0.99812333782E+02  0.10179759898E+03  0.20006228601E+02 0.  0.
        -13    1    3    3    0    0  0.63189448957E+01 -0.77532027226E+01 -0.49399730239E+02  0.50402239407E+02  0.10570000000E+00 0. -1.
         13    1    3    3    0    0 -0.63189448957E+01  0.77532027226E+01 -0.50412603543E+02  0.51395359571E+02  0.10570000000E+00 0.  1.
<mgrwt>
<rscale>  0 0.20006229E+02</rscale>
<asrwt>0</asrwt>
<pdfrwt beam="2">  1        4 0.15508448E-01 0.20006229E+02</pdfrwt>
<pdfrwt beam="1">  1       -4 0.15271279E-03 0.20006229E+02</pdfrwt>
<totfact> 0.97443080E+05</totfact>
</mgrwt>
</event>
<event>
 5    1  0.4710515E-007  0.2000560E+02  0.7818608E-02  0.1745217E+00
          4   -1    0    0  501    0  0.00000000000E+00  0.00000000000E+00  0.44747425730E+02  0.44769950966E+02  0.14200000000E+01 0.  1.
         -4   -1    0    0    0  501 -0.00000000000E+00 -0.00000000000E+00 -0.19850678468E+01  0.24406749796E+01  0.14200000000E+01 0. -1.
       1023    2    1    2    0    0  0.00000000000E+00  0.00000000000E+00  0.42762357883E+02  0.47210625945E+02  0.20005597977E+02 0.  0.
        -13    1    3    3    0    0 -0.32831128525E+01 -0.94465519550E+01  0.21780557156E+02  0.23967061071E+02  0.10570000000E+00 0. -1.
         13    1    3    3    0    0  0.32831128525E+01  0.94465519550E+01  0.20981800727E+02  0.23243564875E+02  0.10570000000E+00 0.  1.
<mgrwt>
<rscale>  0 0.20005598E+02</rscale>
<asrwt>0</asrwt>
<pdfrwt beam="1">  1        4 0.69209985E-02 0.20005598E+02</pdfrwt>
<pdfrwt beam="2">  1       -4 0.34217448E-03 0.20005598E+02</pdfrwt>
<totfact> 0.11632578E+06</totfact>
</mgrwt>
</event>
<event>
 5    1  0.4819662E-007  0.2000169E+02  0.7818608E-02  0.1745294E+00
          4   -1    0    0  501    0  0.00000000000E+00  0.00000000000E+00  0.11042400172E+02  0.11133328413E+02  0.14200000000E+01 0.  1.
         -4   -1    0    0    0  501 -0.00000000000E+00 -0.00000000000E+00 -0.88727780532E+01  0.89856880861E+01  0.14200000000E+01 0. -1.
       1023    2    1    2    0    0  0.00000000000E+00  0.00000000000E+00  0.21696221186E+01  0.20119016499E+02  0.20001689048E+02 0.  0.
        -13    1    3    3    0    0  0.58068947265E+01 -0.81415234310E+01  0.11209180930E+01  0.10063402009E+02  0.10570000000E+00 0. -1.
         13    1    3    3    0    0 -0.58068947265E+01  0.81415234310E+01  0.10487040255E+01  0.10055614490E+02  0.10570000000E+00 0.  1.
<mgrwt>
<rscale>  0 0.20001689E+02</rscale>
<asrwt>0</asrwt>
<pdfrwt beam="1">  1        4 0.17145107E-02 0.20001689E+02</pdfrwt>
<pdfrwt beam="2">  1       -4 0.13807226E-02 0.20001689E+02</pdfrwt>
<totfact> 0.13004738E+06</totfact>
</mgrwt>
</event>
<event>
 4    1  0.4710515E-007  0.2001577E+02  0.7818608E-02  0.1745015E+00
         -4   -1    0    0    0  501 -0.00000000000E+00  0.00000000000E+00  0.21548476944E+02  0.21595213790E+02  0.14200000000E+01 0.  1.
          4   -1    0    0  501    0  0.00000000000E+00 -0.00000000000E+00 -0.44864505658E+01  0.47058090356E+01  0.14200000000E+01 0. -1.
        -13    1    1    2    0    0  0.56540119835E+01  0.82530128451E+01  0.81921110154E+01  0.12930658448E+02  0.10570000000E+00 0. -1.
         13    1    1    2    0    0 -0.56540119835E+01 -0.82530128451E+01  0.88699153632E+01  0.13370364377E+02  0.10570000000E+00 0.  1.
<mgrwt>
<rscale>  0 0.20015770E+02</rscale>
<asrwt>0</asrwt>
<pdfrwt beam="2">  1        4 0.71069204E-03 0.20015770E+02</pdfrwt>
<pdfrwt beam="1">  1       -4 0.33356192E-02 0.20015770E+02</pdfrwt>
<totfact> 0.12633348E+06</totfact>
</mgrwt>
</event>
<event>
 5    1  0.4710515E-007  0.2000269E+02  0.7818608E-02  0.1745275E+00
         -4   -1    0    0    0  501 -0.00000000000E+00  0.00000000000E+00  0.17465336226E+01  0.22509508424E+01  0.14200000000E+01 0. -1.
          4   -1    0    0  501    0  0.00000000000E+00 -0.00000000000E+00 -0.49529052571E+02  0.49549404119E+02  0.14200000000E+01 0.  1.
       1023    2    1    2    0    0  0.00000000000E+00  0.00000000000E+00 -0.47782518948E+02  0.51800354962E+02  0.20002691247E+02 0.  0.
        -13    1    3    3    0    0  0.84744041358E+01 -0.53098194402E+01 -0.23690099632E+02  0.25714620374E+02  0.10570000000E+00 0.  1.
         13    1    3    3    0    0 -0.84744041358E+01  0.53098194402E+01 -0.24092419316E+02  0.26085734587E+02  0.10570000000E+00 0. -1.
<mgrwt>
<rscale>  0 0.20002691E+02</rscale>
<asrwt>0</asrwt>
<pdfrwt beam="2">  1        4 0.76602201E-02 0.20002691E+02</pdfrwt>
<pdfrwt beam="1">  1       -4 0.30906435E-03 0.20002691E+02</pdfrwt>
<totfact> 0.11442056E+06</totfact>
</mgrwt>
</event>
<event>
 4    1  0.4710515E-007  0.2002017E+02  0.7818608E-02  0.1744927E+00
          4   -1    0    0  501    0  0.00000000000E+00  0.00000000000E+00  0.96224539464E+01  0.97266654075E+01  0.14200000000E+01 0. -1.
         -4   -1    0    0    0  501 -0.00000000000E+00 -0.00000000000E+00 -0.10203602861E+02  0.10301937262E+02  0.14200000000E+01 0. -1.
        -13    1    1    2    0    0  0.91857000646E+01  0.39661375674E+01 -0.18487783533E-02  0.10005923685E+02  0.10570000000E+00 0. -1.
         13    1    1    2    0    0 -0.91857000646E+01 -0.39661375674E+01 -0.57930013602E+00  0.10022678984E+02  0.10570000000E+00 0.  1.
<mgrwt>
<rscale>  0 0.20020170E+02</rscale>
<asrwt>0</asrwt>
<pdfrwt beam="1">  1        4 0.14959580E-02 0.20020170E+02</pdfrwt>
<pdfrwt beam="2">  1       -4 0.15853655E-02 0.20020170E+02</pdfrwt>
<totfact> 0.12985588E+06</totfact>
</mgrwt>
</event>
<event>
 4    1  0.4710515E-007  0.2002749E+02  0.7818608E-02  0.1744782E+00
          4   -1    0    0  501    0  0.00000000000E+00  0.00000000000E+00  0.19913434333E+02  0.19963999272E+02  0.14200000000E+01 0. -1.
         -4   -1    0    0    0  501 -0.00000000000E+00 -0.00000000000E+00 -0.48772172680E+01  0.50797291541E+01  0.14200000000E+01 0.  1.
        -13    1    1    2    0    0 -0.59618973018E+01 -0.80440903653E+01  0.76570496499E+01  0.12605284252E+02  0.10570000000E+00 0. -1.
         13    1    1    2    0    0  0.59618973018E+01  0.80440903653E+01  0.73791674150E+01  0.12438444174E+02  0.10570000000E+00 0.  1.
<mgrwt>
<rscale>  0 0.20027494E+02</rscale>
<asrwt>0</asrwt>
<pdfrwt beam="1">  1        4 0.30830727E-02 0.20027494E+02</pdfrwt>
<pdfrwt beam="2">  1       -4 0.76980857E-03 0.20027494E+02</pdfrwt>
<totfact> 0.12687608E+06</totfact>
</mgrwt>
</event>
<event>
 5    1  0.4710515E-007  0.2000166E+02  0.7818608E-02  0.1745295E+00
         -4   -1    0    0    0  501 -0.00000000000E+00  0.00000000000E+00  0.19974970644E+02  0.20025380202E+02  0.14200000000E+01 0. -1.
          4   -1    0    0  501    0  0.00000000000E+00 -0.00000000000E+00 -0.48484166970E+01  0.50520831810E+01  0.14200000000E+01 0.  1.
       1023    2    1    2    0    0  0.00000000000E+00  0.00000000000E+00  0.15126553947E+02  0.25077463383E+02  0.20001663316E+02 0.  0.
        -13    1    3    3    0    0  0.44513380358E-01 -0.10000140276E+02  0.75307182886E+01  0.12519092516E+02  0.10570000000E+00 0.  1.
         13    1    3    3    0    0 -0.44513380358E-01  0.10000140276E+02  0.75958356581E+01  0.12558370867E+02  0.10570000000E+00 0. -1.
<mgrwt>
<rscale>  0 0.20001663E+02</rscale>
<asrwt>0</asrwt>
<pdfrwt beam="2">  1        4 0.76545456E-03 0.20001663E+02</pdfrwt>
<pdfrwt beam="1">  1       -4 0.30926168E-02 0.20001663E+02</pdfrwt>
<totfact> 0.12719121E+06</totfact>
</mgrwt>
</event>
<event>
 5    1  0.4710515E-007  0.2000876E+02  0.7818608E-02  0.1745154E+00
          4   -1    0    0  501    0  0.00000000000E+00  0.00000000000E+00  0.26761036642E+02  0.26798684336E+02  0.14200000000E+01 0.  1.
         -4   -1    0    0    0  501 -0.00000000000E+00 -0.00000000000E+00 -0.35634245375E+01  0.38359346234E+01  0.14200000000E+01 0.  1.
       1023    2    1    2    0    0  0.00000000000E+00  0.00000000000E+00  0.23197612105E+02  0.30634618960E+02  0.20008764866E+02 0.  0.
        -13    1    3    3    0    0  0.85241804793E+00 -0.99665260971E+01  0.11805563790E+02  0.15473873719E+02  0.10570000000E+00 0. -1.
         13    1    3    3    0    0 -0.85241804793E+00  0.99665260971E+01  0.11392048314E+02  0.15160745241E+02  0.10570000000E+00 0.  1.
<mgrwt>
<rscale>  0 0.20008765E+02</rscale>
<asrwt>0</asrwt>
<pdfrwt beam="1">  1        4 0.41409408E-02 0.20008765E+02</pdfrwt>
<pdfrwt beam="2">  1       -4 0.57207745E-03 0.20008765E+02</pdfrwt>
<totfact> 0.12411673E+06</totfact>
</mgrwt>
</event>
<event>
 5    1  0.4710515E-007  0.2000732E+02  0.7818608E-02  0.1745182E+00
         -4   -1    0    0    0  501 -0.00000000000E+00  0.00000000000E+00  0.34984785806E+02  0.35013592188E+02  0.14200000000E+01 0. -1.
          4   -1    0    0  501    0  0.00000000000E+00 -0.00000000000E+00 -0.26523215429E+01  0.30085228214E+01  0.14200000000E+01 0.  1.
       1023    2    1    2    0    0  0.00000000000E+00  0.00000000000E+00  0.32332464263E+02  0.38022115009E+02  0.20007323270E+02 0.  0.
        -13    1    3    3    0    0  0.64402215837E+01 -0.76540414859E+01  0.16098546962E+02  0.18953500782E+02  0.10570000000E+00 0. -1.
         13    1    3    3    0    0 -0.64402215837E+01  0.76540414859E+01  0.16233917301E+02  0.19068614227E+02  0.10570000000E+00 0.  1.
<mgrwt>
<rscale>  0 0.20007323E+02</rscale>
<asrwt>0</asrwt>
<pdfrwt beam="2">  1        4 0.43766543E-03 0.20007323E+02</pdfrwt>
<pdfrwt beam="1">  1       -4 0.54118909E-02 0.20007323E+02</pdfrwt>
<totfact> 0.12046746E+06</totfact>
</mgrwt>
</event>
<event>
 5    1  0.5030593E-007  0.2000242E+02  0.7818608E-02  0.1745280E+00
          4   -1    0    0  501    0  0.00000000000E+00  0.00000000000E+00  0.84005382241E+01  0.85197090592E+01  0.14200000000E+01 0.  1.
         -4   -1    0    0    0  501 -0.00000000000E+00 -0.00000000000E+00 -0.11660467966E+02  0.11746612839E+02  0.14200000000E+01 0. -1.
       1023    2    1    2    0    0  0.00000000000E+00  0.00000000000E+00 -0.32599297421E+01  0.20266321898E+02  0.20002416388E+02 0.  0.
        -13    1    3    3    0    0 -0.99593027242E+01 -0.90530339094E+00 -0.17065120951E+01  0.10145473917E+02  0.10570000000E+00 0. -1.
         13    1    3    3    0    0  0.99593027242E+01  0.90530339094E+00 -0.15534176471E+01  0.10120847981E+02  0.10570000000E+00 0.  1.
<mgrwt>
<rscale>  0 0.20002416E+02</rscale>
<asrwt>0</asrwt>
<pdfrwt beam="1">  1        4 0.13081840E-02 0.20002416E+02</pdfrwt>
<pdfrwt beam="2">  1       -4 0.18097117E-02 0.20002416E+02</pdfrwt>
<totfact> 0.12994987E+06</totfact>
</mgrwt>
</event>
<event>
 5    1  0.4710515E-007  0.2000119E+02  0.7818608E-02  0.1745304E+00
         -4   -1    0    0    0  501 -0.00000000000E+00  0.00000000000E+00  0.14183706920E+01  0.20070314945E+01  0.14200000000E+01 0. -1.
          4   -1    0    0  501    0  0.00000000000E+00 -0.00000000000E+00 -0.57795354800E+02  0.57812796477E+02  0.14200000000E+01 0.  1.
       1023    2    1    2    0    0  0.00000000000E+00  0.00000000000E+00 -0.56376984108E+02  0.59819827971E+02  0.20001187000E+02 0.  0.
        -13    1    3    3    0    0 -0.79523879612E+01 -0.60629973485E+01 -0.28239135412E+02  0.29957642638E+02  0.10570000000E+00 0.  1.
         13    1    3    3    0    0  0.79523879612E+01  0.60629973485E+01 -0.28137848696E+02  0.29862185333E+02  0.10570000000E+00 0. -1.
<mgrwt>
<rscale>  0 0.20001187E+02</rscale>
<asrwt>0</asrwt>
<pdfrwt beam="2">  1        4 0.89382148E-02 0.20001187E+02</pdfrwt>
<pdfrwt beam="1">  1       -4 0.26483419E-03 0.20001187E+02</pdfrwt>
<totfact> 0.11124450E+06</totfact>
</mgrwt>
</event>
<event>
 5    1  0.4710515E-007  0.2000420E+02  0.7818608E-02  0.1745245E+00
          4   -1    0    0  501    0  0.00000000000E+00  0.00000000000E+00  0.20809595542E+02  0.20857988077E+02  0.14200000000E+01 0.  1.
         -4   -1    0    0    0  501 -0.00000000000E+00 -0.00000000000E+00 -0.46473458556E+01  0.48594468308E+01  0.14200000000E+01 0. -1.
       1023    2    1    2    0    0  0.00000000000E+00  0.00000000000E+00  0.16162249686E+02  0.25717434907E+02  0.20004203141E+02 0.  0.
        -13    1    3    3    0    0  0.90860784125E+00  0.99596621165E+01  0.79498571073E+01  0.12776221593E+02  0.10570000000E+00 0. -1.
         13    1    3    3    0    0 -0.90860784125E+00 -0.99596621165E+01  0.82123925786E+01  0.12941213314E+02  0.10570000000E+00 0.  1.
<mgrwt>
<rscale>  0 0.20004203E+02</rscale>
<asrwt>0</asrwt>
<pdfrwt beam="1">  1        4 0.32215143E-02 0.20004203E+02</pdfrwt>
<pdfrwt beam="2">  1       -4 0.73501422E-03 0.20004203E+02</pdfrwt>
<totfact> 0.12680327E+06</totfact>
</mgrwt>
</event>
<event>
 5    1  0.4710515E-007  0.2000633E+02  0.7818608E-02  0.1745202E+00
          4   -1    0    0  501    0  0.00000000000E+00  0.00000000000E+00  0.17520502939E+02  0.17577952760E+02  0.14200000000E+01 0.  1.
         -4   -1    0    0    0  501 -0.00000000000E+00 -0.00000000000E+00 -0.55549573195E+01  0.57335809771E+01  0.14200000000E+01 0. -1.
       1023    2    1    2    0    0  0.00000000000E+00  0.00000000000E+00  0.11965545619E+02  0.23311533737E+02  0.20006332078E+02 0.  0.
        -13    1    3    3    0    0 -0.17434338135E+01 -0.98474560366E+01  0.62164150010E+01  0.11775692753E+02  0.10570000000E+00 0.  1.
         13    1    3    3    0    0  0.17434338135E+01  0.98474560366E+01  0.57491306182E+01  0.11535840984E+02  0.10570000000E+00 0. -1.
<mgrwt>
<rscale>  0 0.20006332E+02</rscale>
<asrwt>0</asrwt>
<pdfrwt beam="1">  1        4 0.27136215E-02 0.20006332E+02</pdfrwt>
<pdfrwt beam="2">  1       -4 0.87276833E-03 0.20006332E+02</pdfrwt>
<totfact> 0.12812519E+06</totfact>
</mgrwt>
</event>
<event>
 5    1  0.4710515E-007  0.2000896E+02  0.7818608E-02  0.1745150E+00
          4   -1    0    0  501    0  0.00000000000E+00  0.00000000000E+00  0.20021552518E+01  0.24545927671E+01  0.14200000000E+01 0. -1.
         -4   -1    0    0    0  501 -0.00000000000E+00 -0.00000000000E+00 -0.44451042136E+02  0.44473717485E+02  0.14200000000E+01 0.  1.
       1023    2    1    2    0    0  0.00000000000E+00  0.00000000000E+00 -0.42448886884E+02  0.46928310252E+02  0.20008955631E+02 0.  0.
        -13    1    3    3    0    0 -0.34825009397E+01  0.93765067083E+01 -0.21642109656E+02  0.23841954066E+02  0.10570000000E+00 0.  1.
         13    1    3    3    0    0  0.34825009397E+01 -0.93765067083E+01 -0.20806777228E+02  0.23086356186E+02  0.10570000000E+00 0. -1.
<mgrwt>
<rscale>  0 0.20008956E+02</rscale>
<asrwt>0</asrwt>
<pdfrwt beam="1">  1        4 0.34457106E-03 0.20008956E+02</pdfrwt>
<pdfrwt beam="2">  1       -4 0.68751684E-02 0.20008956E+02</pdfrwt>
<totfact> 0.11640848E+06</totfact>
</mgrwt>
</event>
<event>
 5    1  0.4710515E-007  0.2001022E+02  0.7818608E-02  0.1745125E+00
         -4   -1    0    0    0  501 -0.00000000000E+00  0.00000000000E+00  0.29309065130E+01  0.32567795424E+01  0.14200000000E+01 0.  1.
          4   -1    0    0  501    0  0.00000000000E+00 -0.00000000000E+00 -0.32012870016E+02  0.32044348124E+02  0.14200000000E+01 0. -1.
       1023    2    1    2    0    0  0.00000000000E+00  0.00000000000E+00 -0.29081963503E+02  0.35301127666E+02  0.20010222720E+02 0.  0.
        -13    1    3    3    0    0 -0.94126922950E+01 -0.33871396662E+01 -0.14294066412E+02  0.17447148719E+02  0.10570000000E+00 0. -1.
         13    1    3    3    0    0  0.94126922950E+01  0.33871396662E+01 -0.14787897092E+02  0.17853978947E+02  0.10570000000E+00 0.  1.
<mgrwt>
<rscale>  0 0.20010223E+02</rscale>
<asrwt>0</asrwt>
<pdfrwt beam="2">  1        4 0.49525452E-02 0.20010223E+02</pdfrwt>
<pdfrwt beam="1">  1       -4 0.47839727E-03 0.20010223E+02</pdfrwt>
<totfact> 0.12174558E+06</totfact>
</mgrwt>
</event>
<event>
 5    1  0.4710515E-007  0.2000987E+02  0.7818608E-02  0.1745132E+00
         -4   -1    0    0    0  501 -0.00000000000E+00  0.00000000000E+00  0.12190136013E+02  0.12272563547E+02  0.14200000000E+01 0.  1.
          4   -1    0    0  501    0  0.00000000000E+00 -0.00000000000E+00 -0.80389248652E+01  0.81633763228E+01  0.14200000000E+01 0. -1.
       1023    2    1    2    0    0  0.00000000000E+00  0.00000000000E+00  0.41512111476E+01  0.20435939870E+02  0.20009874671E+02 0.  0.
        -13    1    3    3    0    0  0.62499053715E+01 -0.78112885225E+01  0.19732056746E+01  0.10197169149E+02  0.10570000000E+00 0.  1.
         13    1    3    3    0    0 -0.62499053715E+01  0.78112885225E+01  0.21780054730E+01  0.10238770720E+02  0.10570000000E+00 0. -1.
<mgrwt>
<rscale>  0 0.20009875E+02</rscale>
<asrwt>0</asrwt>
<pdfrwt beam="2">  1        4 0.12526714E-02 0.20009875E+02</pdfrwt>
<pdfrwt beam="1">  1       -4 0.18913193E-02 0.20009875E+02</pdfrwt>
<totfact> 0.12975038E+06</totfact>
</mgrwt>
</event>
<event>
 5    1  0.4710515E-007  0.2000205E+02  0.7818608E-02  0.1745287E+00
         -4   -1    0    0    0  501 -0.00000000000E+00  0.00000000000E+00  0.44611954568E+01  0.46817373809E+01  0.14200000000E+01 0. -1.
          4   -1    0    0  501    0  0.00000000000E+00 -0.00000000000E+00 -0.21634933410E+02  0.21681483889E+02  0.14200000000E+01 0.  1.
       1023    2    1    2    0    0  0.00000000000E+00  0.00000000000E+00 -0.17173737953E+02  0.26363221270E+02  0.20002053906E+02 0.  0.
        -13    1    3    3    0    0 -0.64593227353E+01  0.76344445440E+01 -0.85313562762E+01  0.13145448113E+02  0.10570000000E+00 0. -1.
         13    1    3    3    0    0  0.64593227353E+01 -0.76344445440E+01 -0.86423816768E+01  0.13217773157E+02  0.10570000000E+00 0.  1.
<mgrwt>
<rscale>  0 0.20002054E+02</rscale>
<asrwt>0</asrwt>
<pdfrwt beam="2">  1        4 0.33489968E-02 0.20002054E+02</pdfrwt>
<pdfrwt beam="1">  1       -4 0.70688334E-03 0.20002054E+02</pdfrwt>
<totfact> 0.12647580E+06</totfact>
</mgrwt>
</event>
<event>
 5    1  0.4710515E-007  0.2000334E+02  0.7818608E-02  0.1745262E+00
          4   -1    0    0  501    0  0.00000000000E+00  0.00000000000E+00  0.94319725616E+00  0.17047055652E+01  0.14200000000E+01 0.  1.
         -4   -1    0    0    0  501 -0.00000000000E+00 -0.00000000000E+00 -0.74786536075E+02  0.74800015896E+02  0.14200000000E+01 0. -1.
       1023    2    1    2    0    0  0.00000000000E+00  0.00000000000E+00 -0.73843338819E+02  0.76504721462E+02  0.20003342671E+02 0.  0.
        -13    1    3    3    0    0 -0.96828451473E+01 -0.25019678389E+01 -0.37190040483E+02  0.38511395935E+02  0.10570000000E+00 0.  1.
         13    1    3    3    0    0  0.96828451473E+01  0.25019678389E+01 -0.36653298335E+02  0.37993325527E+02  0.10570000000E+00 0. -1.
<mgrwt>
<rscale>  0 0.20003343E+02</rscale>
<asrwt>0</asrwt>
<pdfrwt beam="1">  1        4 0.20472180E-03 0.20003343E+02</pdfrwt>
<pdfrwt beam="2">  1       -4 0.11565232E-01 0.20003343E+02</pdfrwt>
<totfact> 0.10523397E+06</totfact>
</mgrwt>
</event>
<event>
 5    1  0.4710515E-007  0.2000829E+02  0.7818608E-02  0.1745163E+00
         -4   -1    0    0    0  501 -0.00000000000E+00  0.00000000000E+00  0.27247783852E+02  0.27284759937E+02  0.14200000000E+01 0. -1.
          4   -1    0    0  501    0  0.00000000000E+00 -0.00000000000E+00 -0.34947689770E+01  0.37722420658E+01  0.14200000000E+01 0.  1.
       1023    2    1    2    0    0  0.00000000000E+00  0.00000000000E+00  0.23753014875E+02  0.31057002003E+02  0.20008289726E+02 0.  0.
        -13    1    3    3    0    0  0.67262348368E+01 -0.74024050337E+01  0.11590688093E+02  0.15309900663E+02  0.10570000000E+00 0. -1.
         13    1    3    3    0    0 -0.67262348368E+01  0.74024050337E+01  0.12162326782E+02  0.15747101340E+02  0.10570000000E+00 0.  1.
<mgrwt>
<rscale>  0 0.20008290E+02</rscale>
<asrwt>0</asrwt>
<pdfrwt beam="2">  1        4 0.56184514E-03 0.20008290E+02</pdfrwt>
<pdfrwt beam="1">  1       -4 0.42161553E-02 0.20008290E+02</pdfrwt>
<totfact> 0.12390463E+06</totfact>
</mgrwt>
</event>
<event>
 5    1  0.4710515E-007  0.2000340E+02  0.7818608E-02  0.1745260E+00
          4   -1    0    0  501    0  0.00000000000E+00  0.00000000000E+00  0.52310804030E+01  0.54203876414E+01  0.14200000000E+01 0.  1.
         -4   -1    0    0    0  501 -0.00000000000E+00 -0.00000000000E+00 -0.18566241994E+02  0.18620465670E+02  0.14200000000E+01 0. -1.
       1023    2    1    2    0    0  0.00000000000E+00  0.00000000000E+00 -0.13335161591E+02  0.24040853312E+02  0.20003402043E+02 0.  0.
        -13    1    3    3    0    0  0.21993423320E+00  0.99977076356E+01 -0.68389082996E+01  0.12115459886E+02  0.10570000000E+00 0.  1.
         13    1    3    3    0    0 -0.21993423320E+00 -0.99977076356E+01 -0.64962532912E+01  0.11925393425E+02  0.10570000000E+00 0. -1.
<mgrwt>
<rscale>  0 0.20003402E+02</rscale>
<asrwt>0</asrwt>
<pdfrwt beam="1">  1        4 0.82351476E-03 0.20003402E+02</pdfrwt>
<pdfrwt beam="2">  1       -4 0.28750780E-02 0.20003402E+02</pdfrwt>
<totfact> 0.12775028E+06</totfact>
</mgrwt>
</event>
<event>
 4    1  0.4710515E-007  0.2002969E+02  0.7818608E-02  0.1744738E+00
          4   -1    0    0  501    0  0.00000000000E+00  0.00000000000E+00  0.24492743097E+02  0.24533871778E+02  0.14200000000E+01 0. -1.
         -4   -1    0    0    0  501 -0.00000000000E+00 -0.00000000000E+00 -0.39258438218E+01  0.41747634320E+01  0.14200000000E+01 0.  1.
        -13    1    1    2    0    0 -0.99870728331E+01  0.57067849730E+00  0.96132711092E+01  0.13874200937E+02  0.10570000000E+00 0.  1.
         13    1    1    2    0    0  0.99870728331E+01 -0.57067849730E+00  0.10953628166E+02  0.14834434273E+02  0.10570000000E+00 0. -1.
<mgrwt>
<rscale>  0 0.20029688E+02</rscale>
<asrwt>0</asrwt>
<pdfrwt beam="1">  1        4 0.37904257E-02 0.20029688E+02</pdfrwt>
<pdfrwt beam="2">  1       -4 0.62628739E-03 0.20029688E+02</pdfrwt>
<totfact> 0.12486030E+06</totfact>
</mgrwt>
</event>
<event>
 5    1  0.4710515E-007  0.2000299E+02  0.7818608E-02  0.1745269E+00
         -4   -1    0    0    0  501 -0.00000000000E+00  0.00000000000E+00  0.11898200218E+01  0.18525851355E+01  0.14200000000E+01 0.  1.
          4   -1    0    0  501    0  0.00000000000E+00 -0.00000000000E+00 -0.65084934639E+02  0.65100423324E+02  0.14200000000E+01 0. -1.
       1023    2    1    2    0    0  0.00000000000E+00  0.00000000000E+00 -0.63895114617E+02  0.66953008460E+02  0.20002991522E+02 0.  0.
        -13    1    3    3    0    0 -0.61751941023E+01  0.78666590967E+01 -0.31822433560E+02  0.33357095163E+02  0.10570000000E+00 0.  1.
         13    1    3    3    0    0  0.61751941023E+01 -0.78666590967E+01 -0.32072681057E+02  0.33595913297E+02  0.10570000000E+00 0. -1.
<mgrwt>
<rscale>  0 0.20002992E+02</rscale>
<asrwt>0</asrwt>
<pdfrwt beam="2">  1        4 0.10065238E-01 0.20002992E+02</pdfrwt>
<pdfrwt beam="1">  1       -4 0.23522265E-03 0.20002992E+02</pdfrwt>
<totfact> 0.10856448E+06</totfact>
</mgrwt>
</event>
<event>
 5    1  0.4710515E-007  0.2000765E+02  0.7818608E-02  0.1745176E+00
         -4   -1    0    0    0  501 -0.00000000000E+00  0.00000000000E+00  0.45234217721E+01  0.47410699772E+01  0.14200000000E+01 0.  1.
          4   -1    0    0  501    0  0.00000000000E+00 -0.00000000000E+00 -0.21362539365E+02  0.21409682112E+02  0.14200000000E+01 0. -1.
       1023    2    1    2    0    0  0.00000000000E+00  0.00000000000E+00 -0.16839117593E+02  0.26150752089E+02  0.20007647376E+02 0.  0.
        -13    1    3    3    0    0  0.77712408204E+01  0.62941952585E+01 -0.87295170938E+01  0.13274965877E+02  0.10570000000E+00 0. -1.
         13    1    3    3    0    0 -0.77712408204E+01 -0.62941952585E+01 -0.81096004990E+01  0.12875786212E+02  0.10570000000E+00 0.  1.
<mgrwt>
<rscale>  0 0.20007647E+02</rscale>
<asrwt>0</asrwt>
<pdfrwt beam="2">  1        4 0.33069130E-02 0.20007647E+02</pdfrwt>
<pdfrwt beam="1">  1       -4 0.71627959E-03 0.20007647E+02</pdfrwt>
<totfact> 0.12652030E+06</totfact>
</mgrwt>
</event>
<event>
 5    1  0.4710515E-007  0.2000945E+02  0.7818608E-02  0.1745140E+00
          4   -1    0    0  501    0  0.00000000000E+00  0.00000000000E+00  0.18110329763E+01  0.23013562178E+01  0.14200000000E+01 0.  1.
         -4   -1    0    0    0  501 -0.00000000000E+00 -0.00000000000E+00 -0.48177462284E+02  0.48198384539E+02  0.14200000000E+01 0. -1.
       1023    2    1    2    0    0  0.00000000000E+00  0.00000000000E+00 -0.46366429308E+02  0.50499740756E+02  0.20009449011E+02 0.  0.
        -13    1    3    3    0    0 -0.99737177359E+01 -0.76359094771E+00 -0.22782389265E+02  0.24881851815E+02  0.10570000000E+00 0.  1.
         13    1    3    3    0    0  0.99737177359E+01  0.76359094771E+00 -0.23584040042E+02  0.25617888941E+02  0.10570000000E+00 0. -1.
<mgrwt>
<rscale>  0 0.20009449E+02</rscale>
<asrwt>0</asrwt>
<pdfrwt beam="1">  1        4 0.31794707E-03 0.20009449E+02</pdfrwt>
<pdfrwt beam="2">  1       -4 0.74512430E-02 0.20009449E+02</pdfrwt>
<totfact> 0.11488299E+06</totfact>
</mgrwt>
</event>
<event>
 5    1  0.4710515E-007  0.2001006E+02  0.7818608E-02  0.1745128E+00
          4   -1    0    0  501    0  0.00000000000E+00  0.00000000000E+00  0.12781101782E+01  0.19104883218E+01  0.14200000000E+01 0. -1.
         -4   -1    0    0    0  501 -0.00000000000E+00 -0.00000000000E+00 -0.62144498418E+02  0.62160719781E+02  0.14200000000E+01 0.  1.
       1023    2    1    2    0    0  0.00000000000E+00  0.00000000000E+00 -0.60866388240E+02  0.64071208103E+02  0.20010059728E+02 0.  0.
        -13    1    3    3    0    0  0.11893621318E+01  0.99310501233E+01 -0.29723608084E+02  0.31361511266E+02  0.10570000000E+00 0. -1.
         13    1    3    3    0    0 -0.11893621318E+01 -0.99310501233E+01 -0.31142780156E+02  0.32709696837E+02  0.10570000000E+00 0.  1.
<mgrwt>
<rscale>  0 0.20010060E+02</rscale>
<asrwt>0</asrwt>
<pdfrwt beam="1">  1        4 0.24652465E-03 0.20010060E+02</pdfrwt>
<pdfrwt beam="2">  1       -4 0.96105824E-02 0.20010060E+02</pdfrwt>
<totfact> 0.10954189E+06</totfact>
</mgrwt>
</event>
<event>
 4    1  0.4710515E-007  0.2008378E+02  0.7818608E-02  0.1743667E+00
          4   -1    0    0  501    0  0.00000000000E+00  0.00000000000E+00  0.16666221810E+02  0.16726606034E+02  0.14200000000E+01 0. -1.
         -4   -1    0    0    0  501 -0.00000000000E+00 -0.00000000000E+00 -0.58947449723E+01  0.60633669103E+01  0.14200000000E+01 0.  1.
        -13    1    1    2    0    0  0.10007378559E+02 -0.82193376397E+00  0.53041853444E+01  0.11356441141E+02  0.10570000000E+00 0.  1.
         13    1    1    2    0    0 -0.10007378559E+02  0.82193376397E+00  0.54672914928E+01  0.11433531803E+02  0.10570000000E+00 0. -1.
<mgrwt>
<rscale>  0 0.20083778E+02</rscale>
<asrwt>0</asrwt>
<pdfrwt beam="1">  1        4 0.25816500E-02 0.20083778E+02</pdfrwt>
<pdfrwt beam="2">  1       -4 0.92449971E-03 0.20083778E+02</pdfrwt>
<totfact> 0.12741514E+06</totfact>
</mgrwt>
</event>
<event>
 4    1  0.4710515E-007  0.2066229E+02  0.7818608E-02  0.1732469E+00
         -4   -1    0    0    0  501 -0.00000000000E+00  0.00000000000E+00  0.55487531203E+02  0.55505698077E+02  0.14200000000E+01 0. -1.
          4   -1    0    0  501    0  0.00000000000E+00 -0.00000000000E+00 -0.16403998322E+01  0.21696339805E+01  0.14200000000E+01 0.  1.
        -13    1    1    2    0    0  0.71014271879E+01  0.73637080012E+01  0.30936640550E+02  0.32584373012E+02  0.10570000000E+00 0. -1.
         13    1    1    2    0    0 -0.71014271879E+01 -0.73637080012E+01  0.22910490821E+02  0.25090959045E+02  0.10570000000E+00 0.  1.
<mgrwt>
<rscale>  0 0.20662293E+02</rscale>
<asrwt>0</asrwt>
<pdfrwt beam="2">  1        4 0.29447696E-03 0.20662293E+02</pdfrwt>
<pdfrwt beam="1">  1       -4 0.85786514E-02 0.20662293E+02</pdfrwt>
<totfact> 0.10492225E+06</totfact>
</mgrwt>
</event>
<event>
 5    1  0.4710515E-007  0.2000711E+02  0.7818608E-02  0.1745187E+00
         -4   -1    0    0    0  501 -0.00000000000E+00  0.00000000000E+00  0.19905351825E+02  0.19955937244E+02  0.14200000000E+01 0.  1.
          4   -1    0    0  501    0  0.00000000000E+00 -0.00000000000E+00 -0.48688273836E+01  0.50716742887E+01  0.14200000000E+01 0. -1.
       1023    2    1    2    0    0  0.00000000000E+00  0.00000000000E+00  0.15036524442E+02  0.25027611533E+02  0.20007105531E+02 0.  0.
        -13    1    3    3    0    0  0.92103932488E+01  0.38985844401E+01  0.77334487337E+01  0.12643089268E+02  0.10570000000E+00 0. -1.
         13    1    3    3    0    0 -0.92103932488E+01 -0.38985844401E+01  0.73030757078E+01  0.12384522264E+02  0.10570000000E+00 0.  1.
<mgrwt>
<rscale>  0 0.20007106E+02</rscale>
<asrwt>0</asrwt>
<pdfrwt beam="2">  1        4 0.76854516E-03 0.20007106E+02</pdfrwt>
<pdfrwt beam="1">  1       -4 0.30818566E-02 0.20007106E+02</pdfrwt>
<totfact> 0.12714854E+06</totfact>
</mgrwt>
</event>
<event>
 5    1  0.4710515E-007  0.2001024E+02  0.7818608E-02  0.1745125E+00
         -4   -1    0    0    0  501 -0.00000000000E+00  0.00000000000E+00  0.46318288334E+01  0.48446092042E+01  0.14200000000E+01 0. -1.
          4   -1    0    0  501    0  0.00000000000E+00 -0.00000000000E+00 -0.20889163813E+02  0.20937372443E+02  0.14200000000E+01 0.  1.
       1023    2    1    2    0    0  0.00000000000E+00  0.00000000000E+00 -0.16257334979E+02  0.25781981647E+02  0.20010238304E+02 0.  0.
        -13    1    3    3    0    0  0.11419717777E+01  0.99380768880E+01 -0.83187504775E+01  0.13010851385E+02  0.10570000000E+00 0.  1.
         13    1    3    3    0    0 -0.11419717777E+01 -0.99380768880E+01 -0.79385845020E+01  0.12771130262E+02  0.10570000000E+00 0. -1.
<mgrwt>
<rscale>  0 0.20010238E+02</rscale>
<asrwt>0</asrwt>
<pdfrwt beam="2">  1        4 0.32337935E-02 0.20010238E+02</pdfrwt>
<pdfrwt beam="1">  1       -4 0.73266514E-03 0.20010238E+02</pdfrwt>
<totfact> 0.12668981E+06</totfact>
</mgrwt>
</event>
<event>
 4    1  0.4710515E-007  0.2004718E+02  0.7818608E-02  0.1744391E+00
         -4   -1    0    0    0  501 -0.00000000000E+00  0.00000000000E+00  0.42123660418E+02  0.42147587914E+02  0.14200000000E+01 0. -1.
          4   -1    0    0  501    0  0.00000000000E+00 -0.00000000000E+00 -0.21469552462E+01  0.25740662053E+01  0.14200000000E+01 0.  1.
        -13    1    1    2    0    0  0.52554407949E+01  0.85099812192E+01  0.18539629451E+02  0.21065812849E+02  0.10570000000E+00 0.  1.
         13    1    1    2    0    0 -0.52554407949E+01 -0.85099812192E+01  0.21437075720E+02  0.23655841271E+02  0.10570000000E+00 0. -1.
<mgrwt>
<rscale>  0 0.20047179E+02</rscale>
<asrwt>0</asrwt>
<pdfrwt beam="2">  1        4 0.36499610E-03 0.20047179E+02</pdfrwt>
<pdfrwt beam="1">  1       -4 0.65152580E-02 0.20047179E+02</pdfrwt>
<totfact> 0.11692311E+06</totfact>
</mgrwt>
</event>
<event>
 5    1  0.4906790E-007  0.2000156E+02  0.7818608E-02  0.1745297E+00
          4   -1    0    0  501    0  0.00000000000E+00  0.00000000000E+00  0.14805661273E+01  0.20514570571E+01  0.14200000000E+01 0.  1.
         -4   -1    0    0    0  501 -0.00000000000E+00 -0.00000000000E+00 -0.56052292462E+02  0.56070276353E+02  0.14200000000E+01 0. -1.
       1023    2    1    2    0    0  0.00000000000E+00  0.00000000000E+00 -0.54571726335E+02  0.58121733410E+02  0.20001564424E+02 0.  0.
        -13    1    3    3    0    0 -0.34063420516E+01  0.94021003972E+01 -0.27409637302E+02  0.29177080861E+02  0.10570000000E+00 0.  1.
         13    1    3    3    0    0  0.34063420516E+01 -0.94021003972E+01 -0.27162089033E+02  0.28944652549E+02  0.10570000000E+00 0. -1.
<mgrwt>
<rscale>  0 0.20001564E+02</rscale>
<asrwt>0</asrwt>
<pdfrwt beam="1">  1        4 0.27307751E-03 0.20001564E+02</pdfrwt>
<pdfrwt beam="2">  1       -4 0.86687263E-02 0.20001564E+02</pdfrwt>
<totfact> 0.11189727E+06</totfact>
</mgrwt>
</event>
<event>
 5    1  0.4710515E-007  0.2000477E+02  0.7818608E-02  0.1745233E+00
          4   -1    0    0  501    0  0.00000000000E+00  0.00000000000E+00  0.50848863138E+01  0.52794383058E+01  0.14200000000E+01 0.  1.
         -4   -1    0    0    0  501 -0.00000000000E+00 -0.00000000000E+00 -0.19084745904E+02  0.19137500522E+02  0.14200000000E+01 0. -1.
       1023    2    1    2    0    0  0.00000000000E+00  0.00000000000E+00 -0.13999859590E+02  0.24416938827E+02  0.20004770260E+02 0.  0.
        -13    1    3    3    0    0  0.52898977401E+00 -0.99867652636E+01 -0.68221086413E+01  0.12106512686E+02  0.10570000000E+00 0.  1.
         13    1    3    3    0    0 -0.52898977401E+00  0.99867652636E+01 -0.71777509486E+01  0.12310426141E+02  0.10570000000E+00 0. -1.
<mgrwt>
<rscale>  0 0.20004770E+02</rscale>
<asrwt>0</asrwt>
<pdfrwt beam="1">  1        4 0.80131379E-03 0.20004770E+02</pdfrwt>
<pdfrwt beam="2">  1       -4 0.29551383E-02 0.20004770E+02</pdfrwt>
<totfact> 0.12752075E+06</totfact>
</mgrwt>
</event>
<event>
 5    1  0.4710515E-007  0.2000537E+02  0.7818608E-02  0.1745221E+00
          4   -1    0    0  501    0  0.00000000000E+00  0.00000000000E+00  0.23753441696E+01  0.27674283955E+01  0.14200000000E+01 0. -1.
         -4   -1    0    0    0  501 -0.00000000000E+00 -0.00000000000E+00 -0.38504229779E+02  0.38530405019E+02  0.14200000000E+01 0.  1.
       1023    2    1    2    0    0  0.00000000000E+00  0.00000000000E+00 -0.36128885610E+02  0.41297833414E+02  0.20005366013E+02 0.  0.
        -13    1    3    3    0    0  0.89387417412E+01  0.44878971032E+01 -0.18091398725E+02  0.20672498752E+02  0.10570000000E+00 0. -1.
         13    1    3    3    0    0 -0.89387417412E+01 -0.44878971032E+01 -0.18037486885E+02  0.20625334662E+02  0.10570000000E+00 0.  1.
<mgrwt>
<rscale>  0 0.20005366E+02</rscale>
<asrwt>0</asrwt>
<pdfrwt beam="1">  1        4 0.39761140E-03 0.20005366E+02</pdfrwt>
<pdfrwt beam="2">  1       -4 0.59559010E-02 0.20005366E+02</pdfrwt>
<totfact> 0.11896169E+06</totfact>
</mgrwt>
</event>
<event>
 5    1  0.4710515E-007  0.2000285E+02  0.7818608E-02  0.1745271E+00
         -4   -1    0    0    0  501 -0.00000000000E+00  0.00000000000E+00  0.69322231894E+02  0.69336774044E+02  0.14200000000E+01 0. -1.
          4   -1    0    0  501    0  0.00000000000E+00 -0.00000000000E+00 -0.10752625027E+01  0.17811764229E+01  0.14200000000E+01 0.  1.
       1023    2    1    2    0    0  0.00000000000E+00  0.00000000000E+00  0.68246969391E+02  0.71117950467E+02  0.20002850983E+02 0.  0.
        -13    1    3    3    0    0  0.76581899346E+01 -0.64307912481E+01  0.33696982677E+02  0.35149690797E+02  0.10570000000E+00 0.  1.
         13    1    3    3    0    0 -0.76581899346E+01  0.64307912481E+01  0.34549986715E+02  0.35968259669E+02  0.10570000000E+00 0. -1.
<mgrwt>
<rscale>  0 0.20002851E+02</rscale>
<asrwt>0</asrwt>
<pdfrwt beam="2">  1        4 0.22084474E-03 0.20002851E+02</pdfrwt>
<pdfrwt beam="1">  1       -4 0.10720377E-01 0.20002851E+02</pdfrwt>
<totfact> 0.10708447E+06</totfact>
</mgrwt>
</event>
<event>
 4    1  0.4710515E-007  0.2002538E+02  0.7818608E-02  0.1744824E+00
         -4   -1    0    0    0  501 -0.00000000000E+00  0.00000000000E+00  0.14964337903E+02  0.15031560427E+02  0.14200000000E+01 0.  1.
          4   -1    0    0  501    0  0.00000000000E+00 -0.00000000000E+00 -0.65409338487E+01  0.66932963190E+01  0.14200000000E+01 0. -1.
        -13    1    1    2    0    0 -0.91040778686E+01 -0.41662888571E+01  0.41863285094E+01  0.10852590269E+02  0.10570000000E+00 0.  1.
         13    1    1    2    0    0  0.91040778686E+01  0.41662888571E+01  0.42370755449E+01  0.10872266477E+02  0.10570000000E+00 0. -1.
<mgrwt>
<rscale>  0 0.20025376E+02</rscale>
<asrwt>0</asrwt>
<pdfrwt beam="2">  1        4 0.10231887E-02 0.20025376E+02</pdfrwt>
<pdfrwt beam="1">  1       -4 0.23190970E-02 0.20025376E+02</pdfrwt>
<totfact> 0.12878874E+06</totfact>
</mgrwt>
</event>
<event>
 5    1  0.5201119E-007  0.2000178E+02  0.7818608E-02  0.1745293E+00
          4   -1    0    0  501    0  0.00000000000E+00  0.00000000000E+00  0.25087776976E+02  0.25127931742E+02  0.14200000000E+01 0. -1.
         -4   -1    0    0    0  501 -0.00000000000E+00 -0.00000000000E+00 -0.38154332624E+01  0.40711093058E+01  0.14200000000E+01 0.  1.
       1023    2    1    2    0    0  0.00000000000E+00  0.00000000000E+00  0.21272343714E+02  0.29199041048E+02  0.20001784696E+02 0.  0.
        -13    1    3    3    0    0 -0.90875032598E+01 -0.41741914668E+01  0.10649659512E+02  0.14609346669E+02  0.10570000000E+00 0. -1.
         13    1    3    3    0    0  0.90875032598E+01  0.41741914668E+01  0.10622684202E+02  0.14589694378E+02  0.10570000000E+00 0.  1.
<mgrwt>
<rscale>  0 0.20001785E+02</rscale>
<asrwt>0</asrwt>
<pdfrwt beam="1">  1        4 0.38824143E-02 0.20001785E+02</pdfrwt>
<pdfrwt beam="2">  1       -4 0.60974594E-03 0.20001785E+02</pdfrwt>
<totfact> 0.12495521E+06</totfact>
</mgrwt>
</event>
<event>
 5    1  0.4710515E-007  0.2000251E+02  0.7818608E-02  0.1745278E+00
          4   -1    0    0  501    0  0.00000000000E+00  0.00000000000E+00  0.77222601918E+02  0.77235656578E+02  0.14200000000E+01 0. -1.
         -4   -1    0    0    0  501 -0.00000000000E+00 -0.00000000000E+00 -0.88889845540E+00  0.16752732505E+01  0.14200000000E+01 0.  1.
       1023    2    1    2    0    0  0.00000000000E+00  0.00000000000E+00  0.76333703463E+02  0.78910929829E+02  0.20002513893E+02 0.  0.
        -13    1    3    3    0    0 -0.51659657731E+01 -0.85630661613E+01  0.38268475571E+02  0.39553769726E+02  0.10570000000E+00 0.  1.
         13    1    3    3    0    0  0.51659657731E+01  0.85630661613E+01  0.38065227891E+02  0.39357160103E+02  0.10570000000E+00 0. -1.
<mgrwt>
<rscale>  0 0.20002514E+02</rscale>
<asrwt>0</asrwt>
<pdfrwt beam="1">  1        4 0.11941896E-01 0.20002514E+02</pdfrwt>
<pdfrwt beam="2">  1       -4 0.19824816E-03 0.20002514E+02</pdfrwt>
<totfact> 0.10444273E+06</totfact>
</mgrwt>
</event>
<event>
 4    1  0.4710515E-007  0.2016330E+02  0.7818608E-02  0.1742100E+00
          4   -1    0    0  501    0  0.00000000000E+00  0.00000000000E+00  0.47969048772E+01  0.50026689277E+01  0.14200000000E+01 0.  1.
         -4   -1    0    0    0  501 -0.00000000000E+00 -0.00000000000E+00 -0.20512861337E+02  0.20561952248E+02  0.14200000000E+01 0. -1.
        -13    1    1    2    0    0 -0.51009638260E+01 -0.86898639939E+01 -0.82485619740E+01  0.13022423558E+02  0.10570000000E+00 0. -1.
         13    1    1    2    0    0  0.51009638260E+01  0.86898639939E+01 -0.74673944863E+01  0.12542197618E+02  0.10570000000E+00 0.  1.
<mgrwt>
<rscale>  0 0.20163298E+02</rscale>
<asrwt>0</asrwt>
<pdfrwt beam="1">  1        4 0.75758961E-03 0.20163298E+02</pdfrwt>
<pdfrwt beam="2">  1       -4 0.31754290E-02 0.20163298E+02</pdfrwt>
<totfact> 0.12485557E+06</totfact>
</mgrwt>
</event>
<event>
 5    1  0.4710515E-007  0.2000442E+02  0.7818608E-02  0.1745240E+00
          4   -1    0    0  501    0  0.00000000000E+00  0.00000000000E+00  0.28141842026E+01  0.31521473198E+01  0.14200000000E+01 0. -1.
         -4   -1    0    0    0  501 -0.00000000000E+00 -0.00000000000E+00 -0.33182254642E+02  0.33212624454E+02  0.14200000000E+01 0.  1.
       1023    2    1    2    0    0  0.00000000000E+00  0.00000000000E+00 -0.30368070439E+02  0.36364771773E+02  0.20004422610E+02 0.  0.
        -13    1    3    3    0    0  0.31420741306E+01 -0.94945091606E+01 -0.15404619443E+02  0.18366594859E+02  0.10570000000E+00 0.  1.
         13    1    3    3    0    0 -0.31420741306E+01  0.94945091606E+01 -0.14963450996E+02  0.17998176915E+02  0.10570000000E+00 0. -1.
<mgrwt>
<rscale>  0 0.20004423E+02</rscale>
<asrwt>0</asrwt>
<pdfrwt beam="1">  1        4 0.46128474E-03 0.20004423E+02</pdfrwt>
<pdfrwt beam="2">  1       -4 0.51332953E-02 0.20004423E+02</pdfrwt>
<totfact> 0.12129848E+06</totfact>
</mgrwt>
</event>
<event>
 4    1  0.4710515E-007  0.2001500E+02  0.7818608E-02  0.1745030E+00
          4   -1    0    0  501    0  0.00000000000E+00  0.00000000000E+00  0.18203248515E+01  0.23086755002E+01  0.14200000000E+01 0.  1.
         -4   -1    0    0    0  501 -0.00000000000E+00 -0.00000000000E+00 -0.48010459241E+02  0.48031454241E+02  0.14200000000E+01 0. -1.
        -13    1    1    2    0    0  0.55264548402E+01  0.83422129140E+01 -0.23266482794E+02  0.25327349121E+02  0.10570000000E+00 0.  1.
         13    1    1    2    0    0 -0.55264548402E+01 -0.83422129140E+01 -0.22923651595E+02  0.25012780620E+02  0.10570000000E+00 0. -1.
<mgrwt>
<rscale>  0 0.20014998E+02</rscale>
<asrwt>0</asrwt>
<pdfrwt beam="1">  1        4 0.31923045E-03 0.20014998E+02</pdfrwt>
<pdfrwt beam="2">  1       -4 0.74254041E-02 0.20014998E+02</pdfrwt>
<totfact> 0.11488548E+06</totfact>
</mgrwt>
</event>
<event>
 4    1  0.4710515E-007  0.2023786E+02  0.7818608E-02  0.1740639E+00
          4   -1    0    0  501    0  0.00000000000E+00  0.00000000000E+00  0.30254895627E+02  0.30288200828E+02  0.14200000000E+01 0. -1.
         -4   -1    0    0    0  501 -0.00000000000E+00 -0.00000000000E+00 -0.31985673524E+01  0.34996047074E+01  0.14200000000E+01 0.  1.
        -13    1    1    2    0    0 -0.33676181375E+01 -0.95098144491E+01  0.14825823877E+02  0.17933032339E+02  0.10570000000E+00 0. -1.
         13    1    1    2    0    0  0.33676181375E+01  0.95098144491E+01  0.12230504398E+02  0.15854773196E+02  0.10570000000E+00 0.  1.
<mgrwt>
<rscale>  0 0.20237858E+02</rscale>
<asrwt>0</asrwt>
<pdfrwt beam="1">  1        4 0.46803179E-02 0.20237858E+02</pdfrwt>
<pdfrwt beam="2">  1       -4 0.51780595E-03 0.20237858E+02</pdfrwt>
<totfact> 0.11971051E+06</totfact>
</mgrwt>
</event>
<event>
 5    1  0.4710515E-007  0.2000255E+02  0.7818608E-02  0.1745277E+00
          4   -1    0    0  501    0  0.00000000000E+00  0.00000000000E+00  0.34370048322E+01  0.37187904239E+01  0.14200000000E+01 0.  1.
         -4   -1    0    0    0  501 -0.00000000000E+00 -0.00000000000E+00 -0.27655771393E+02  0.27692202717E+02  0.14200000000E+01 0. -1.
       1023    2    1    2    0    0  0.00000000000E+00  0.00000000000E+00 -0.24218766561E+02  0.31410993141E+02  0.20002545748E+02 0.  0.
        -13    1    3    3    0    0  0.99782229803E+01 -0.67019684590E+00 -0.12087797358E+02  0.15688853212E+02  0.10570000000E+00 0.  1.
         13    1    3    3    0    0 -0.99782229803E+01  0.67019684590E+00 -0.12130969203E+02  0.15722139929E+02  0.10570000000E+00 0. -1.
<mgrwt>
<rscale>  0 0.20002546E+02</rscale>
<asrwt>0</asrwt>
<pdfrwt beam="1">  1        4 0.55324822E-03 0.20002546E+02</pdfrwt>
<pdfrwt beam="2">  1       -4 0.42792122E-02 0.20002546E+02</pdfrwt>
<totfact> 0.12379455E+06</totfact>
</mgrwt>
</event>
<event>
 5    1  0.4710515E-007  0.2000452E+02  0.7818608E-02  0.1745238E+00
         -4   -1    0    0    0  501 -0.00000000000E+00  0.00000000000E+00  0.57513093874E+02  0.57530621124E+02  0.14200000000E+01 0. -1.
          4   -1    0    0  501    0  0.00000000000E+00 -0.00000000000E+00 -0.14288896143E+01  0.20144789723E+01  0.14200000000E+01 0.  1.
       1023    2    1    2    0    0  0.00000000000E+00  0.00000000000E+00  0.56084204259E+02  0.59545100096E+02  0.20004523940E+02 0.  0.
        -13    1    3    3    0    0  0.93589287096E+01  0.35270237376E+01  0.27839585350E+02  0.29581804002E+02  0.10570000000E+00 0.  1.
         13    1    3    3    0    0 -0.93589287096E+01 -0.35270237376E+01  0.28244618909E+02  0.29963296094E+02  0.10570000000E+00 0. -1.
<mgrwt>
<rscale>  0 0.20004524E+02</rscale>
<asrwt>0</asrwt>
<pdfrwt beam="2">  1        4 0.26622277E-03 0.20004524E+02</pdfrwt>
<pdfrwt beam="1">  1       -4 0.88945615E-02 0.20004524E+02</pdfrwt>
<totfact> 0.11131286E+06</totfact>
</mgrwt>
</event>
<event>
 4    1  0.4710515E-007  0.2006313E+02  0.7818608E-02  0.1744076E+00
          4   -1    0    0  501    0  0.00000000000E+00  0.00000000000E+00  0.10659007527E+02  0.10753178203E+02  0.14200000000E+01 0. -1.
         -4   -1    0    0    0  501 -0.00000000000E+00 -0.00000000000E+00 -0.92509484033E+01  0.93592973219E+01  0.14200000000E+01 0.  1.
        -13    1    1    2    0    0 -0.68219451047E+01 -0.73480053052E+01  0.10030430488E+01  0.10077171469E+02  0.10570000000E+00 0.  1.
         13    1    1    2    0    0  0.68219451047E+01  0.73480053052E+01  0.40501607523E+00  0.10035304056E+02  0.10570000000E+00 0. -1.
<mgrwt>
<rscale>  0 0.20063126E+02</rscale>
<asrwt>0</asrwt>
<pdfrwt beam="1">  1        4 0.16554257E-02 0.20063126E+02</pdfrwt>
<pdfrwt beam="2">  1       -4 0.14388013E-02 0.20063126E+02</pdfrwt>
<totfact> 0.12923906E+06</totfact>
</mgrwt>
</event>
<event>
 5    1  0.4710515E-007  0.2000453E+02  0.7818608E-02  0.1745238E+00
         -4   -1    0    0    0  501 -0.00000000000E+00  0.00000000000E+00  0.71582316797E+01  0.72977175049E+01  0.14200000000E+01 0. -1.
          4   -1    0    0  501    0  0.00000000000E+00 -0.00000000000E+00 -0.13664774613E+02  0.13738357443E+02  0.14200000000E+01 0.  1.
       1023    2    1    2    0    0  0.00000000000E+00  0.00000000000E+00 -0.65065429334E+01  0.21036074948E+02  0.20004533193E+02 0.  0.
        -13    1    3    3    0    0 -0.74991163495E+01 -0.66173195268E+01 -0.33502257575E+01  0.10548025828E+02  0.10570000000E+00 0.  1.
         13    1    3    3    0    0  0.74991163495E+01  0.66173195268E+01 -0.31563171758E+01  0.10488049120E+02  0.10570000000E+00 0. -1.
<mgrwt>
<rscale>  0 0.20004533E+02</rscale>
<asrwt>0</asrwt>
<pdfrwt beam="2">  1        4 0.21186629E-02 0.20004533E+02</pdfrwt>
<pdfrwt beam="1">  1       -4 0.11176563E-02 0.20004533E+02</pdfrwt>
<totfact> 0.12946633E+06</totfact>
</mgrwt>
</event>
<event>
 4    1  0.4710515E-007  0.2001416E+02  0.7818608E-02  0.1745047E+00
         -4   -1    0    0    0  501 -0.00000000000E+00  0.00000000000E+00  0.22847816776E+02  0.22891901000E+02  0.14200000000E+01 0.  1.
          4   -1    0    0  501    0  0.00000000000E+00 -0.00000000000E+00 -0.42182660748E+01  0.44508615658E+01  0.14200000000E+01 0. -1.
        -13    1    1    2    0    0 -0.80905139442E+01 -0.58882099301E+01  0.92396756027E+01  0.13620213280E+02  0.10570000000E+00 0.  1.
         13    1    1    2    0    0  0.80905139442E+01  0.58882099301E+01  0.93898750980E+01  0.13722549286E+02  0.10570000000E+00 0. -1.
<mgrwt>
<rscale>  0 0.20014158E+02</rscale>
<asrwt>0</asrwt>
<pdfrwt beam="2">  1        4 0.67024706E-03 0.20014158E+02</pdfrwt>
<pdfrwt beam="1">  1       -4 0.35363318E-02 0.20014158E+02</pdfrwt>
<totfact> 0.12578803E+06</totfact>
</mgrwt>
</event>
<event>
 5    1  0.4710515E-007  0.2000870E+02  0.7818608E-02  0.1745155E+00
         -4   -1    0    0    0  501 -0.00000000000E+00  0.00000000000E+00  0.80357789612E+02  0.80370335021E+02  0.14200000000E+01 0. -1.
          4   -1    0    0  501    0  0.00000000000E+00 -0.00000000000E+00 -0.82394981293E+00  0.16417348429E+01  0.14200000000E+01 0.  1.
       1023    2    1    2    0    0  0.00000000000E+00  0.00000000000E+00  0.79533839799E+02  0.82012069863E+02  0.20008696362E+02 0.  0.
        -13    1    3    3    0    0 -0.71772721931E+01  0.69655670447E+01  0.38912537852E+02  0.40177470489E+02  0.10570000000E+00 0.  1.
         13    1    3    3    0    0  0.71772721931E+01 -0.69655670447E+01  0.40621301947E+02  0.41834599374E+02  0.10570000000E+00 0. -1.
<mgrwt>
<rscale>  0 0.20008696E+02</rscale>
<asrwt>0</asrwt>
<pdfrwt beam="2">  1        4 0.19063308E-03 0.20008696E+02</pdfrwt>
<pdfrwt beam="1">  1       -4 0.12426609E-01 0.20008696E+02</pdfrwt>
<totfact> 0.10336884E+06</totfact>
</mgrwt>
</event>
<event>
 5    1  0.5137692E-007  0.2000241E+02  0.7818608E-02  0.1745280E+00
         -4   -1    0    0    0  501 -0.00000000000E+00  0.00000000000E+00  0.14855129492E+02  0.14922843972E+02  0.14200000000E+01 0. -1.
          4   -1    0    0  501    0  0.00000000000E+00 -0.00000000000E+00 -0.65743055857E+01  0.67259121266E+01  0.14200000000E+01 0.  1.
       1023    2    1    2    0    0  0.00000000000E+00  0.00000000000E+00  0.82808239061E+01  0.21648756099E+02  0.20002414756E+02 0.  0.
        -13    1    3    3    0    0  0.43305280909E+01 -0.90144003618E+01  0.41506279363E+01  0.10828285745E+02  0.10570000000E+00 0. -1.
         13    1    3    3    0    0 -0.43305280909E+01  0.90144003618E+01  0.41301959698E+01  0.10820470353E+02  0.10570000000E+00 0.  1.
<mgrwt>
<rscale>  0 0.20002415E+02</rscale>
<asrwt>0</asrwt>
<pdfrwt beam="2">  1        4 0.10283025E-02 0.20002415E+02</pdfrwt>
<pdfrwt beam="1">  1       -4 0.23022754E-02 0.20002415E+02</pdfrwt>
<totfact> 0.12913490E+06</totfact>
</mgrwt>
</event>
<event>
 4    1  0.4710515E-007  0.2003752E+02  0.7818608E-02  0.1744583E+00
          4   -1    0    0  501    0  0.00000000000E+00  0.00000000000E+00  0.40034269368E+02  0.40059444877E+02  0.14200000000E+01 0. -1.
         -4   -1    0    0    0  501 -0.00000000000E+00 -0.00000000000E+00 -0.22780457850E+01  0.26843793694E+01  0.14200000000E+01 0.  1.
        -13    1    1    2    0    0  0.63983555487E+01  0.76908135977E+01  0.17755837145E+02  0.20380591079E+02  0.10570000000E+00 0. -1.
         13    1    1    2    0    0 -0.63983555487E+01 -0.76908135977E+01  0.20000386438E+02  0.22363233167E+02  0.10570000000E+00 0.  1.
<mgrwt>
<rscale>  0 0.20037517E+02</rscale>
<asrwt>0</asrwt>
<pdfrwt beam="1">  1        4 0.61923109E-02 0.20037517E+02</pdfrwt>
<pdfrwt beam="2">  1       -4 0.38366162E-03 0.20037517E+02</pdfrwt>
<totfact> 0.11791965E+06</totfact>
</mgrwt>
</event>
<event>
 5    1  0.5128362E-007  0.2000164E+02  0.7818608E-02  0.1745296E+00
         -4   -1    0    0    0  501 -0.00000000000E+00  0.00000000000E+00  0.12991868158E+02  0.13069240155E+02  0.14200000000E+01 0. -1.
          4   -1    0    0  501    0  0.00000000000E+00 -0.00000000000E+00 -0.75316113476E+01  0.76643048929E+01  0.14200000000E+01 0.  1.
       1023    2    1    2    0    0  0.00000000000E+00  0.00000000000E+00  0.54602568106E+01  0.20733545048E+02  0.20001637079E+02 0.  0.
        -13    1    3    3    0    0  0.14357493396E+01 -0.98966549765E+01  0.27369320244E+01  0.10368564283E+02  0.10570000000E+00 0.  1.
         13    1    3    3    0    0 -0.14357493396E+01  0.98966549765E+01  0.27233247862E+01  0.10364980766E+02  0.10570000000E+00 0. -1.
<mgrwt>
<rscale>  0 0.20001637E+02</rscale>
<asrwt>0</asrwt>
<pdfrwt beam="2">  1        4 0.11748683E-02 0.20001637E+02</pdfrwt>
<pdfrwt beam="1">  1       -4 0.20149078E-02 0.20001637E+02</pdfrwt>
<totfact> 0.12968350E+06</totfact>
</mgrwt>
</event>
<event>
 5    1  0.4710515E-007  0.2000154E+02  0.7818608E-02  0.1745297E+00
          4   -1    0    0  501    0  0.00000000000E+00  0.00000000000E+00  0.56384818112E+02  0.56402695977E+02  0.14200000000E+01 0. -1.
         -4   -1    0    0    0  501 -0.00000000000E+00 -0.00000000000E+00 -0.14684570885E+01  0.20427349855E+01  0.14200000000E+01 0.  1.
       1023    2    1    2    0    0  0.00000000000E+00  0.00000000000E+00  0.54916361023E+02  0.58445430963E+02  0.20001542250E+02 0.  0.
        -13    1    3    3    0    0 -0.67426203565E+01  0.73851811367E+01  0.27398231466E+02  0.29166386297E+02  0.10570000000E+00 0.  1.
         13    1    3    3    0    0  0.67426203565E+01 -0.73851811367E+01  0.27518129557E+02  0.29279044665E+02  0.10570000000E+00 0. -1.
<mgrwt>
<rscale>  0 0.20001542E+02</rscale>
<asrwt>0</asrwt>
<pdfrwt beam="1">  1        4 0.87201379E-02 0.20001542E+02</pdfrwt>
<pdfrwt beam="2">  1       -4 0.27146692E-03 0.20001542E+02</pdfrwt>
<totfact> 0.11177153E+06</totfact>
</mgrwt>
</event>
<event>
 5    1  0.4710515E-007  0.2000398E+02  0.7818608E-02  0.1745249E+00
          4   -1    0    0  501    0  0.00000000000E+00  0.00000000000E+00  0.17414940252E+02  0.17472737163E+02  0.14200000000E+01 0.  1.
         -4   -1    0    0    0  501 -0.00000000000E+00 -0.00000000000E+00 -0.55882249416E+01  0.57658180684E+01  0.14200000000E+01 0. -1.
       1023    2    1    2    0    0  0.00000000000E+00  0.00000000000E+00  0.11826715310E+02  0.23238555232E+02  0.20003980959E+02 0.  0.
        -13    1    3    3    0    0 -0.90220225934E+01  0.43162858765E+01  0.59572202989E+01  0.11641600475E+02  0.10570000000E+00 0.  1.
         13    1    3    3    0    0  0.90220225934E+01 -0.43162858765E+01  0.58694950113E+01  0.11596954756E+02  0.10570000000E+00 0. -1.
<mgrwt>
<rscale>  0 0.20003981E+02</rscale>
<asrwt>0</asrwt>
<pdfrwt beam="1">  1        4 0.26973285E-02 0.20003981E+02</pdfrwt>
<pdfrwt beam="2">  1       -4 0.87783385E-03 0.20003981E+02</pdfrwt>
<totfact> 0.12819746E+06</totfact>
</mgrwt>
</event>
<event>
 5    1  0.4710515E-007  0.2000136E+02  0.7818608E-02  0.1745301E+00
          4   -1    0    0  501    0  0.00000000000E+00  0.00000000000E+00  0.89526914948E+02  0.89538175658E+02  0.14200000000E+01 0. -1.
         -4   -1    0    0    0  501 -0.00000000000E+00 -0.00000000000E+00 -0.64989466427E+00  0.15616539548E+01  0.14200000000E+01 0.  1.
       1023    2    1    2    0    0  0.00000000000E+00  0.00000000000E+00  0.88877020284E+02  0.91099829613E+02  0.20001355477E+02 0.  0.
        -13    1    3    3    0    0  0.36855440742E+01 -0.92961261050E+01  0.44595435721E+02  0.45703011447E+02  0.10570000000E+00 0. -1.
         13    1    3    3    0    0 -0.36855440742E+01  0.92961261050E+01  0.44281584563E+02  0.45396818166E+02  0.10570000000E+00 0.  1.
<mgrwt>
<rscale>  0 0.20001355E+02</rscale>
<asrwt>0</asrwt>
<pdfrwt beam="1">  1        4 0.13844371E-01 0.20001355E+02</pdfrwt>
<pdfrwt beam="2">  1       -4 0.17098536E-03 0.20001355E+02</pdfrwt>
<totfact> 0.10060972E+06</totfact>
</mgrwt>
</event>
<event>
 4    1  0.4710515E-007  0.2001682E+02  0.7818608E-02  0.1744994E+00
         -4   -1    0    0    0  501 -0.00000000000E+00  0.00000000000E+00  0.48632537074E+01  0.50663237779E+01  0.14200000000E+01 0.  1.
          4   -1    0    0  501    0  0.00000000000E+00 -0.00000000000E+00 -0.19946904939E+02  0.19997385245E+02  0.14200000000E+01 0. -1.
        -13    1    1    2    0    0  0.83406231764E+01 -0.55229764765E+01 -0.79128611683E+01  0.12755148313E+02  0.10570000000E+00 0.  1.
         13    1    1    2    0    0 -0.83406231764E+01  0.55229764765E+01 -0.71707900632E+01  0.12308560710E+02  0.10570000000E+00 0. -1.
<mgrwt>
<rscale>  0 0.20016817E+02</rscale>
<asrwt>0</asrwt>
<pdfrwt beam="2">  1        4 0.30882584E-02 0.20016817E+02</pdfrwt>
<pdfrwt beam="1">  1       -4 0.76769676E-03 0.20016817E+02</pdfrwt>
<totfact> 0.12700284E+06</totfact>
</mgrwt>
</event>
<event>
 5    1  0.4710515E-007  0.2000711E+02  0.7818608E-02  0.1745187E+00
          4   -1    0    0  501    0  0.00000000000E+00  0.00000000000E+00  0.85423703400E+00  0.16571423929E+01  0.14200000000E+01 0. -1.
         -4   -1    0    0    0  501 -0.00000000000E+00 -0.00000000000E+00 -0.78882809299E+02  0.78895589248E+02  0.14200000000E+01 0.  1.
       1023    2    1    2    0    0  0.00000000000E+00  0.00000000000E+00 -0.78028572265E+02  0.80552731641E+02  0.20007110866E+02 0.  0.
        -13    1    3    3    0    0 -0.10595458038E+01 -0.99463115140E+01 -0.39378847120E+02  0.40629503111E+02  0.10570000000E+00 0.  1.
         13    1    3    3    0    0  0.10595458038E+01  0.99463115140E+01 -0.38649725144E+02  0.39923228530E+02  0.10570000000E+00 0. -1.
<mgrwt>
<rscale>  0 0.20007111E+02</rscale>
<asrwt>0</asrwt>
<pdfrwt beam="1">  1        4 0.19416617E-03 0.20007111E+02</pdfrwt>
<pdfrwt beam="2">  1       -4 0.12198558E-01 0.20007111E+02</pdfrwt>
<totfact> 0.10385737E+06</totfact>
</mgrwt>
</event>
<event>
 5    1  0.4710515E-007  0.2001110E+02  0.7818608E-02  0.1745107E+00
          4   -1    0    0  501    0  0.00000000000E+00  0.00000000000E+00  0.88411705005E+02  0.88423107737E+02  0.14200000000E+01 0. -1.
         -4   -1    0    0    0  501 -0.00000000000E+00 -0.00000000000E+00 -0.67106469178E+00  0.15705820006E+01  0.14200000000E+01 0.  1.
       1023    2    1    2    0    0  0.00000000000E+00  0.00000000000E+00  0.87740640313E+02  0.89993689738E+02  0.20011102669E+02 0.  0.
        -13    1    3    3    0    0  0.24983152179E+01  0.96876987188E+01  0.43499482808E+02  0.44635291670E+02  0.10570000000E+00 0. -1.
         13    1    3    3    0    0 -0.24983152179E+01 -0.96876987188E+01  0.44241157505E+02  0.45358398068E+02  0.10570000000E+00 0.  1.
<mgrwt>
<rscale>  0 0.20011103E+02</rscale>
<asrwt>0</asrwt>
<pdfrwt beam="1">  1        4 0.13671871E-01 0.20011103E+02</pdfrwt>
<pdfrwt beam="2">  1       -4 0.17331150E-03 0.20011103E+02</pdfrwt>
<totfact> 0.10084707E+06</totfact>
</mgrwt>
</event>
<event>
 5    1  0.4710515E-007  0.2000146E+02  0.7818608E-02  0.1745299E+00
          4   -1    0    0  501    0  0.00000000000E+00  0.00000000000E+00  0.91088892635E+01  0.92189079405E+01  0.14200000000E+01 0. -1.
         -4   -1    0    0    0  501 -0.00000000000E+00 -0.00000000000E+00 -0.10757019901E+02  0.10850339956E+02  0.14200000000E+01 0.  1.
       1023    2    1    2    0    0  0.00000000000E+00  0.00000000000E+00 -0.16481306380E+01  0.20069247896E+02  0.20001459360E+02 0.  0.
        -13    1    3    3    0    0  0.71535909034E+01  0.69876873317E+01 -0.86645281715E+00  0.10038104903E+02  0.10570000000E+00 0.  1.
         13    1    3    3    0    0 -0.71535909034E+01 -0.69876873317E+01 -0.78167782083E+00  0.10031142994E+02  0.10570000000E+00 0. -1.
<mgrwt>
<rscale>  0 0.20001459E+02</rscale>
<asrwt>0</asrwt>
<pdfrwt beam="1">  1        4 0.14170090E-02 0.20001459E+02</pdfrwt>
<pdfrwt beam="2">  1       -4 0.16705676E-02 0.20001459E+02</pdfrwt>
<totfact> 0.13007998E+06</totfact>
</mgrwt>
</event>
<event>
 5    1  0.4710515E-007  0.2000359E+02  0.7818608E-02  0.1745257E+00
         -4   -1    0    0    0  501 -0.00000000000E+00  0.00000000000E+00  0.50103701427E+01  0.52077066898E+01  0.14200000000E+01 0.  1.
          4   -1    0    0  501    0  0.00000000000E+00 -0.00000000000E+00 -0.19356331407E+02  0.19408347831E+02  0.14200000000E+01 0. -1.
       1023    2    1    2    0    0  0.00000000000E+00  0.00000000000E+00 -0.14345961264E+02  0.24616054521E+02  0.20003588068E+02 0.  0.
        -13    1    3    3    0    0  0.99719208472E+01  0.76357968074E+00 -0.72339173497E+01  0.12343540498E+02  0.10570000000E+00 0. -1.
         13    1    3    3    0    0 -0.99719208472E+01 -0.76357968074E+00 -0.71120439144E+01  0.12272514023E+02  0.10570000000E+00 0.  1.
<mgrwt>
<rscale>  0 0.20003588E+02</rscale>
<asrwt>0</asrwt>
<pdfrwt beam="2">  1        4 0.29970781E-02 0.20003588E+02</pdfrwt>
<pdfrwt beam="1">  1       -4 0.79000718E-03 0.20003588E+02</pdfrwt>
<totfact> 0.12742426E+06</totfact>
</mgrwt>
</event>
<event>
 4    1  0.4710515E-007  0.2056799E+02  0.7818608E-02  0.1734263E+00
         -4   -1    0    0    0  501 -0.00000000000E+00  0.00000000000E+00  0.98438875188E+00  0.17278371494E+01  0.14200000000E+01 0. -1.
          4   -1    0    0  501    0  0.00000000000E+00 -0.00000000000E+00 -0.77236220309E+02  0.77249272668E+02  0.14200000000E+01 0.  1.
        -13    1    1    2    0    0 -0.94261255959E+01  0.38611216669E+01 -0.32710237720E+02  0.34259756690E+02  0.10570000000E+00 0. -1.
         13    1    1    2    0    0  0.94261255959E+01 -0.38611216669E+01 -0.43541593838E+02  0.44717353127E+02  0.10570000000E+00 0.  1.
<mgrwt>
<rscale>  0 0.20567986E+02</rscale>
<asrwt>0</asrwt>
<pdfrwt beam="2">  1        4 0.11940684E-01 0.20567986E+02</pdfrwt>
<pdfrwt beam="1">  1       -4 0.20963685E-03 0.20567986E+02</pdfrwt>
<totfact> 0.98715226E+05</totfact>
</mgrwt>
</event>
<event>
 5    1  0.4710515E-007  0.2000776E+02  0.7818608E-02  0.1745174E+00
         -4   -1    0    0    0  501 -0.00000000000E+00  0.00000000000E+00  0.15742938109E+02  0.15806849791E+02  0.14200000000E+01 0.  1.
          4   -1    0    0  501    0  0.00000000000E+00 -0.00000000000E+00 -0.61997615085E+01  0.63603020967E+01  0.14200000000E+01 0. -1.
       1023    2    1    2    0    0  0.00000000000E+00  0.00000000000E+00  0.95431766008E+01  0.22167151888E+02  0.20007758574E+02 0.  0.
        -13    1    3    3    0    0  0.89826605953E+01 -0.44006235694E+01  0.46464898888E+01  0.11029719849E+02  0.10570000000E+00 0.  1.
         13    1    3    3    0    0 -0.89826605953E+01  0.44006235694E+01  0.48966867119E+01  0.11137432039E+02  0.10570000000E+00 0. -1.
<mgrwt>
<rscale>  0 0.20007759E+02</rscale>
<asrwt>0</asrwt>
<pdfrwt beam="2">  1        4 0.97107503E-03 0.20007759E+02</pdfrwt>
<pdfrwt beam="1">  1       -4 0.24392560E-02 0.20007759E+02</pdfrwt>
<totfact> 0.12876344E+06</totfact>
</mgrwt>
</event>
<event>
 5    1  0.4710515E-007  0.2000699E+02  0.7818608E-02  0.1745189E+00
          4   -1    0    0  501    0  0.00000000000E+00  0.00000000000E+00  0.21181256979E+02  0.21228802303E+02  0.14200000000E+01 0. -1.
         -4   -1    0    0    0  501 -0.00000000000E+00 -0.00000000000E+00 -0.45635813487E+01  0.47794010844E+01  0.14200000000E+01 0.  1.
       1023    2    1    2    0    0  0.00000000000E+00  0.00000000000E+00  0.16617675630E+02  0.26008203387E+02  0.20006986282E+02 0.  0.
        -13    1    3    3    0    0  0.88934123971E+01 -0.45787376155E+01  0.82661107120E+01  0.12976801648E+02  0.10570000000E+00 0.  1.
         13    1    3    3    0    0 -0.88934123971E+01  0.45787376155E+01  0.83515649185E+01  0.13031401739E+02  0.10570000000E+00 0. -1.
<mgrwt>
<rscale>  0 0.20006986E+02</rscale>
<asrwt>0</asrwt>
<pdfrwt beam="1">  1        4 0.32789138E-02 0.20006986E+02</pdfrwt>
<pdfrwt beam="2">  1       -4 0.72234828E-03 0.20006986E+02</pdfrwt>
<totfact> 0.12660713E+06</totfact>
</mgrwt>
</event>
<event>
 5    1  0.4710515E-007  0.2000358E+02  0.7818608E-02  0.1745257E+00
         -4   -1    0    0    0  501 -0.00000000000E+00  0.00000000000E+00  0.33203259527E+01  0.36112275520E+01  0.14200000000E+01 0.  1.
          4   -1    0    0  501    0  0.00000000000E+00 -0.00000000000E+00 -0.28554592292E+02  0.28589878296E+02  0.14200000000E+01 0. -1.
       1023    2    1    2    0    0  0.00000000000E+00  0.00000000000E+00 -0.25234266340E+02  0.32201105848E+02  0.20003575184E+02 0.  0.
        -13    1    3    3    0    0  0.10000373913E+02 -0.10615746286E+00 -0.12740095930E+02  0.16196912194E+02  0.10570000000E+00 0.  1.
         13    1    3    3    0    0 -0.10000373913E+02  0.10615746286E+00 -0.12494170410E+02  0.16004193655E+02  0.10570000000E+00 0. -1.
<mgrwt>
<rscale>  0 0.20003575E+02</rscale>
<asrwt>0</asrwt>
<pdfrwt beam="2">  1        4 0.44181054E-02 0.20003575E+02</pdfrwt>
<pdfrwt beam="1">  1       -4 0.53591075E-03 0.20003575E+02</pdfrwt>
<totfact> 0.12337728E+06</totfact>
</mgrwt>
</event>
<event>
 5    1  0.4759921E-007  0.2000207E+02  0.7818608E-02  0.1745287E+00
          4   -1    0    0  501    0  0.00000000000E+00  0.00000000000E+00  0.43418951016E+02  0.43442165086E+02  0.14200000000E+01 0.  1.
         -4   -1    0    0    0  501 -0.00000000000E+00 -0.00000000000E+00 -0.20586062603E+01  0.25008518019E+01  0.14200000000E+01 0. -1.
       1023    2    1    2    0    0  0.00000000000E+00  0.00000000000E+00  0.41360344756E+02  0.45943016888E+02  0.20002066954E+02 0.  0.
        -13    1    3    3    0    0 -0.81102743649E+01 -0.58507343786E+01  0.20581243020E+02  0.22882446980E+02  0.10570000000E+00 0.  1.
         13    1    3    3    0    0  0.81102743649E+01  0.58507343786E+01  0.20779101736E+02  0.23060569908E+02  0.10570000000E+00 0. -1.
<mgrwt>
<rscale>  0 0.20002067E+02</rscale>
<asrwt>0</asrwt>
<pdfrwt beam="1">  1        4 0.67156423E-02 0.20002067E+02</pdfrwt>
<pdfrwt beam="2">  1       -4 0.35251329E-03 0.20002067E+02</pdfrwt>
<totfact> 0.11691869E+06</totfact>
</mgrwt>
</event>
<event>
 5    1  0.4710515E-007  0.2000116E+02  0.7818608E-02  0.1745305E+00
         -4   -1    0    0    0  501 -0.00000000000E+00  0.00000000000E+00  0.85749441781E+01  0.86917240900E+01  0.14200000000E+01 0. -1.
          4   -1    0    0  501    0  0.00000000000E+00 -0.00000000000E+00 -0.11423321733E+02  0.11511241436E+02  0.14200000000E+01 0.  1.
       1023    2    1    2    0    0  0.00000000000E+00  0.00000000000E+00 -0.28483775545E+01  0.20202965526E+02  0.20001164000E+02 0.  0.
        -13    1    3    3    0    0 -0.81891181994E+01  0.57392028052E+01 -0.14049670813E+01  0.10098772733E+02  0.10570000000E+00 0.  1.
         13    1    3    3    0    0  0.81891181994E+01 -0.57392028052E+01 -0.14434104732E+01  0.10104192793E+02  0.10570000000E+00 0. -1.
<mgrwt>
<rscale>  0 0.20001164E+02</rscale>
<asrwt>0</asrwt>
<pdfrwt beam="2">  1        4 0.17731802E-02 0.20001164E+02</pdfrwt>
<pdfrwt beam="1">  1       -4 0.13349683E-02 0.20001164E+02</pdfrwt>
<totfact> 0.13000422E+06</totfact>
</mgrwt>
</event>
<event>
 5    1  0.4710515E-007  0.2000157E+02  0.7818608E-02  0.1745297E+00
         -4   -1    0    0    0  501 -0.00000000000E+00  0.00000000000E+00  0.18345756237E+01  0.23199283867E+01  0.14200000000E+01 0. -1.
          4   -1    0    0  501    0  0.00000000000E+00 -0.00000000000E+00 -0.47650908138E+02  0.47672061486E+02  0.14200000000E+01 0.  1.
       1023    2    1    2    0    0  0.00000000000E+00  0.00000000000E+00 -0.45816332514E+02  0.49991989873E+02  0.20001568099E+02 0.  0.
        -13    1    3    3    0    0 -0.49225226676E+01  0.87047828728E+01 -0.22922918885E+02  0.25009515328E+02  0.10570000000E+00 0.  1.
         13    1    3    3    0    0  0.49225226676E+01 -0.87047828728E+01 -0.22893413629E+02  0.24982474545E+02  0.10570000000E+00 0. -1.
<mgrwt>
<rscale>  0 0.20001568E+02</rscale>
<asrwt>0</asrwt>
<pdfrwt beam="2">  1        4 0.73698702E-02 0.20001568E+02</pdfrwt>
<pdfrwt beam="1">  1       -4 0.32120445E-03 0.20001568E+02</pdfrwt>
<totfact> 0.11518731E+06</totfact>
</mgrwt>
</event>
<event>
 5    1  0.4849626E-007  0.2000168E+02  0.7818608E-02  0.1745295E+00
          4   -1    0    0  501    0  0.00000000000E+00  0.00000000000E+00  0.17505098430E+02  0.17562598641E+02  0.14200000000E+01 0.  1.
         -4   -1    0    0    0  501 -0.00000000000E+00 -0.00000000000E+00 -0.55572916047E+01  0.57358425693E+01  0.14200000000E+01 0. -1.
       1023    2    1    2    0    0  0.00000000000E+00  0.00000000000E+00  0.11947806825E+02  0.23298441211E+02  0.20001681802E+02 0.  0.
        -13    1    3    3    0    0 -0.92944360415E+01  0.36901039545E+01  0.60290048386E+01  0.11677477483E+02  0.10570000000E+00 0. -1.
         13    1    3    3    0    0  0.92944360415E+01 -0.36901039545E+01  0.59188019865E+01  0.11620963728E+02  0.10570000000E+00 0.  1.
<mgrwt>
<rscale>  0 0.20001682E+02</rscale>
<asrwt>0</asrwt>
<pdfrwt beam="1">  1        4 0.27112498E-02 0.20001682E+02</pdfrwt>
<pdfrwt beam="2">  1       -4 0.87312572E-03 0.20001682E+02</pdfrwt>
<totfact> 0.12819337E+06</totfact>
</mgrwt>
</event>
<event>
 4    1  0.4710515E-007  0.2107162E+02  0.7818608E-02  0.1724821E+00
         -4   -1    0    0    0  501 -0.00000000000E+00  0.00000000000E+00  0.23921910816E+02  0.23964019218E+02  0.14200000000E+01 0.  1.
          4   -1    0    0  501    0  0.00000000000E+00 -0.00000000000E+00 -0.44842190225E+01  0.47036815625E+01  0.14200000000E+01 0. -1.
        -13    1    1    2    0    0  0.77061124755E+01 -0.71613941624E+01  0.10491326893E+02  0.14857619200E+02  0.10570000000E+00 0.  1.
         13    1    1    2    0    0 -0.77061124755E+01  0.71613941624E+01  0.89463649006E+01  0.13810081581E+02  0.10570000000E+00 0. -1.
<mgrwt>
<rscale>  0 0.21071621E+02</rscale>
<asrwt>0</asrwt>
<pdfrwt beam="2">  1        4 0.71000069E-03 0.21071621E+02</pdfrwt>
<pdfrwt beam="1">  1       -4 0.37004148E-02 0.21071621E+02</pdfrwt>
<totfact> 0.11251502E+06</totfact>
</mgrwt>
</event>
<event>
 5    1  0.4757893E-007  0.2000359E+02  0.7818608E-02  0.1745257E+00
          4   -1    0    0  501    0  0.00000000000E+00  0.00000000000E+00  0.33256669569E+02  0.33286971487E+02  0.14200000000E+01 0. -1.
         -4   -1    0    0    0  501 -0.00000000000E+00 -0.00000000000E+00 -0.28068706155E+01  0.31456195975E+01  0.14200000000E+01 0.  1.
       1023    2    1    2    0    0  0.00000000000E+00  0.00000000000E+00  0.30449798953E+02  0.36432591085E+02  0.20003585600E+02 0.  0.
        -13    1    3    3    0    0  0.99548754941E+01 -0.95811367948E+00  0.15378999359E+02  0.18345089852E+02  0.10570000000E+00 0. -1.
         13    1    3    3    0    0 -0.99548754941E+01  0.95811367948E+00  0.15070799595E+02  0.18087501233E+02  0.10570000000E+00 0.  1.
<mgrwt>
<rscale>  0 0.20003586E+02</rscale>
<asrwt>0</asrwt>
<pdfrwt beam="1">  1        4 0.51447994E-02 0.20003586E+02</pdfrwt>
<pdfrwt beam="2">  1       -4 0.46021476E-03 0.20003586E+02</pdfrwt>
<totfact> 0.12127591E+06</totfact>
</mgrwt>
</event>
<event>
 4    1  0.4710515E-007  0.2002020E+02  0.7818608E-02  0.1744927E+00
         -4   -1    0    0    0  501 -0.00000000000E+00  0.00000000000E+00  0.54625427288E+01  0.56440918724E+01  0.14200000000E+01 0.  1.
          4   -1    0    0  501    0  0.00000000000E+00 -0.00000000000E+00 -0.17833420442E+02  0.17889865417E+02  0.14200000000E+01 0. -1.
        -13    1    1    2    0    0 -0.32493601763E+01 -0.94664276018E+01 -0.63490291802E+01  0.11852971658E+02  0.10570000000E+00 0. -1.
         13    1    1    2    0    0  0.32493601763E+01  0.94664276018E+01 -0.60218485327E+01  0.11680985632E+02  0.10570000000E+00 0.  1.
<mgrwt>
<rscale>  0 0.20020203E+02</rscale>
<asrwt>0</asrwt>
<pdfrwt beam="2">  1        4 0.27619103E-02 0.20020203E+02</pdfrwt>
<pdfrwt beam="1">  1       -4 0.85869844E-03 0.20020203E+02</pdfrwt>
<totfact> 0.12781807E+06</totfact>
</mgrwt>
</event>
<event>
 5    1  0.4710515E-007  0.2000425E+02  0.7818608E-02  0.1745244E+00
         -4   -1    0    0    0  501 -0.00000000000E+00  0.00000000000E+00  0.31719167690E+02  0.31750936978E+02  0.14200000000E+01 0.  1.
          4   -1    0    0  501    0  0.00000000000E+00 -0.00000000000E+00 -0.29590390099E+01  0.32821200255E+01  0.14200000000E+01 0. -1.
       1023    2    1    2    0    0  0.00000000000E+00  0.00000000000E+00  0.28760128680E+02  0.35033057003E+02  0.20004251580E+02 0.  0.
        -13    1    3    3    0    0  0.91816192568E+01  0.39622062321E+01  0.14076039676E+02  0.17266941705E+02  0.10570000000E+00 0. -1.
         13    1    3    3    0    0 -0.91816192568E+01 -0.39622062321E+01  0.14684089004E+02  0.17766115298E+02  0.10570000000E+00 0.  1.
<mgrwt>
<rscale>  0 0.20004252E+02</rscale>
<asrwt>0</asrwt>
<pdfrwt beam="2">  1        4 0.48253297E-03 0.20004252E+02</pdfrwt>
<pdfrwt beam="1">  1       -4 0.49071679E-02 0.20004252E+02</pdfrwt>
<totfact> 0.12195103E+06</totfact>
</mgrwt>
</event>
<event>
 5    1  0.4710515E-007  0.2000164E+02  0.7818608E-02  0.1745295E+00
          4   -1    0    0  501    0  0.00000000000E+00  0.00000000000E+00  0.36481901033E+01  0.39148040857E+01  0.14200000000E+01 0.  1.
         -4   -1    0    0    0  501 -0.00000000000E+00 -0.00000000000E+00 -0.26162352044E+02  0.26200859995E+02  0.14200000000E+01 0. -1.
       1023    2    1    2    0    0  0.00000000000E+00  0.00000000000E+00 -0.22514161941E+02  0.30115664081E+02  0.20001643311E+02 0.  0.
        -13    1    3    3    0    0  0.30104323864E+01 -0.95362498202E+01 -0.11181835574E+02  0.15001579353E+02  0.10570000000E+00 0.  1.
         13    1    3    3    0    0 -0.30104323864E+01  0.95362498202E+01 -0.11332326367E+02  0.15114084728E+02  0.10570000000E+00 0. -1.
<mgrwt>
<rscale>  0 0.20001643E+02</rscale>
<asrwt>0</asrwt>
<pdfrwt beam="1">  1        4 0.58473095E-03 0.20001643E+02</pdfrwt>
<pdfrwt beam="2">  1       -4 0.40484480E-02 0.20001643E+02</pdfrwt>
<totfact> 0.12447625E+06</totfact>
</mgrwt>
</event>
<event>
 4    1  0.4710515E-007  0.2011921E+02  0.7818608E-02  0.1742968E+00
          4   -1    0    0  501    0  0.00000000000E+00  0.00000000000E+00  0.59239861860E+02  0.59256878362E+02  0.14200000000E+01 0. -1.
         -4   -1    0    0    0  501 -0.00000000000E+00 -0.00000000000E+00 -0.13928121846E+01  0.19890514779E+01  0.14200000000E+01 0.  1.
        -13    1    1    2    0    0  0.94005524737E+01  0.35262704579E+01  0.27048098379E+02  0.28851616394E+02  0.10570000000E+00 0.  1.
         13    1    1    2    0    0 -0.94005524737E+01 -0.35262704579E+01  0.30798951296E+02  0.32394313445E+02  0.10570000000E+00 0. -1.
<mgrwt>
<rscale>  0 0.20119214E+02</rscale>
<asrwt>0</asrwt>
<pdfrwt beam="1">  1        4 0.91609977E-02 0.20119214E+02</pdfrwt>
<pdfrwt beam="2">  1       -4 0.26145234E-03 0.20119214E+02</pdfrwt>
<totfact> 0.10939631E+06</totfact>
</mgrwt>
</event>
<event>
 5    1  0.4710515E-007  0.2000263E+02  0.7818608E-02  0.1745276E+00
         -4   -1    0    0    0  501 -0.00000000000E+00  0.00000000000E+00  0.40542407014E+02  0.40567267181E+02  0.14200000000E+01 0. -1.
          4   -1    0    0  501    0  0.00000000000E+00 -0.00000000000E+00 -0.22350538695E+01  0.26479927869E+01  0.14200000000E+01 0.  1.
       1023    2    1    2    0    0  0.00000000000E+00  0.00000000000E+00  0.38307353145E+02  0.43215259968E+02  0.20002634554E+02 0.  0.
        -13    1    3    3    0    0 -0.79522103677E+01 -0.60632753216E+01  0.19411285238E+02  0.21835982333E+02  0.10570000000E+00 0. -1.
         13    1    3    3    0    0  0.79522103677E+01  0.60632753216E+01  0.18896067907E+02  0.21379277635E+02  0.10570000000E+00 0.  1.
<mgrwt>
<rscale>  0 0.20002635E+02</rscale>
<asrwt>0</asrwt>
<pdfrwt beam="2">  1        4 0.37753132E-03 0.20002635E+02</pdfrwt>
<pdfrwt beam="1">  1       -4 0.62709698E-02 0.20002635E+02</pdfrwt>
<totfact> 0.11812314E+06</totfact>
</mgrwt>
</event>
<event>
 5    1  0.4710515E-007  0.2000539E+02  0.7818608E-02  0.1745221E+00
          4   -1    0    0  501    0  0.00000000000E+00  0.00000000000E+00  0.11141412436E+01  0.18049129372E+01  0.14200000000E+01 0. -1.
         -4   -1    0    0    0  501 -0.00000000000E+00 -0.00000000000E+00 -0.67852333172E+02  0.67867190282E+02  0.14200000000E+01 0.  1.
       1023    2    1    2    0    0  0.00000000000E+00  0.00000000000E+00 -0.66738191928E+02  0.69672103220E+02  0.20005391904E+02 0.  0.
        -13    1    3    3    0    0  0.95709728367E+01 -0.29009323162E+01 -0.32831540221E+02  0.34321132486E+02  0.10570000000E+00 0.  1.
         13    1    3    3    0    0 -0.95709728367E+01  0.29009323162E+01 -0.33906651707E+02  0.35350970734E+02  0.10570000000E+00 0. -1.
<mgrwt>
<rscale>  0 0.20005392E+02</rscale>
<asrwt>0</asrwt>
<pdfrwt beam="1">  1        4 0.22568554E-03 0.20005392E+02</pdfrwt>
<pdfrwt beam="2">  1       -4 0.10493097E-01 0.20005392E+02</pdfrwt>
<totfact> 0.10756571E+06</totfact>
</mgrwt>
</event>
<event>
 5    1  0.4710515E-007  0.2000671E+02  0.7818608E-02  0.1745195E+00
         -4   -1    0    0    0  501 -0.00000000000E+00  0.00000000000E+00  0.24807181803E+01  0.28583846295E+01  0.14200000000E+01 0.  1.
          4   -1    0    0  501    0  0.00000000000E+00 -0.00000000000E+00 -0.37092409507E+02  0.37119580319E+02  0.14200000000E+01 0. -1.
       1023    2    1    2    0    0  0.00000000000E+00  0.00000000000E+00 -0.34611691327E+02  0.39977964948E+02  0.20006711497E+02 0.  0.
        -13    1    3    3    0    0  0.26277780990E+01  0.96510051021E+01 -0.17493684585E+02  0.20151607630E+02  0.10570000000E+00 0. -1.
         13    1    3    3    0    0 -0.26277780990E+01 -0.96510051021E+01 -0.17118006742E+02  0.19826357318E+02  0.10570000000E+00 0.  1.
<mgrwt>
<rscale>  0 0.20006711E+02</rscale>
<asrwt>0</asrwt>
<pdfrwt beam="2">  1        4 0.57376655E-02 0.20006711E+02</pdfrwt>
<pdfrwt beam="1">  1       -4 0.41279031E-03 0.20006711E+02</pdfrwt>
<totfact> 0.11955513E+06</totfact>
</mgrwt>
</event>
<event>
 4    1  0.4710515E-007  0.2003816E+02  0.7818608E-02  0.1744570E+00
          4   -1    0    0  501    0  0.00000000000E+00  0.00000000000E+00  0.17289708647E+02  0.17347922789E+02  0.14200000000E+01 0. -1.
         -4   -1    0    0    0  501 -0.00000000000E+00 -0.00000000000E+00 -0.56499043008E+01  0.58256174444E+01  0.14200000000E+01 0.  1.
        -13    1    1    2    0    0  0.99941803480E+01  0.64380963978E+00  0.55081346992E+01  0.11430172879E+02  0.10570000000E+00 0.  1.
         13    1    1    2    0    0 -0.99941803480E+01 -0.64380963978E+00  0.61316696469E+01  0.11743367355E+02  0.10570000000E+00 0. -1.
<mgrwt>
<rscale>  0 0.20038162E+02</rscale>
<asrwt>0</asrwt>
<pdfrwt beam="1">  1        4 0.26779496E-02 0.20038162E+02</pdfrwt>
<pdfrwt beam="2">  1       -4 0.88721046E-03 0.20038162E+02</pdfrwt>
<totfact> 0.12778898E+06</totfact>
</mgrwt>
</event>
<event>
 4    1  0.4710515E-007  0.2010873E+02  0.7818608E-02  0.1743175E+00
          4   -1    0    0  501    0  0.00000000000E+00  0.00000000000E+00  0.61466354766E+02  0.61482755047E+02  0.14200000000E+01 0.  1.
         -4   -1    0    0    0  501 -0.00000000000E+00 -0.00000000000E+00 -0.13183349427E+01  0.19376292269E+01  0.14200000000E+01 0. -1.
        -13    1    1    2    0    0 -0.68369340730E+01 -0.73606559939E+01  0.28827864347E+02  0.30528345181E+02  0.10570000000E+00 0. -1.
         13    1    1    2    0    0  0.68369340730E+01  0.73606559939E+01  0.31320155477E+02  0.32892039094E+02  0.10570000000E+00 0.  1.
<mgrwt>
<rscale>  0 0.20108726E+02</rscale>
<asrwt>0</asrwt>
<pdfrwt beam="1">  1        4 0.95052611E-02 0.20108726E+02</pdfrwt>
<pdfrwt beam="2">  1       -4 0.25172036E-03 0.20108726E+02</pdfrwt>
<totfact> 0.10870263E+06</totfact>
</mgrwt>
</event>
<event>
 5    1  0.4710515E-007  0.2000292E+02  0.7818608E-02  0.1745270E+00
         -4   -1    0    0    0  501 -0.00000000000E+00  0.00000000000E+00  0.58597143200E+02  0.58614346291E+02  0.14200000000E+01 0.  1.
          4   -1    0    0  501    0  0.00000000000E+00 -0.00000000000E+00 -0.13912081149E+01  0.19879285749E+01  0.14200000000E+01 0. -1.
       1023    2    1    2    0    0  0.00000000000E+00  0.00000000000E+00  0.57205935085E+02  0.60602274866E+02  0.20002917538E+02 0.  0.
        -13    1    3    3    0    0  0.98837448370E+01 -0.15214842289E+01  0.28235904832E+02  0.29954646058E+02  0.10570000000E+00 0. -1.
         13    1    3    3    0    0 -0.98837448370E+01  0.15214842289E+01  0.28970030252E+02  0.30647628808E+02  0.10570000000E+00 0.  1.
<mgrwt>
<rscale>  0 0.20002918E+02</rscale>
<asrwt>0</asrwt>
<pdfrwt beam="2">  1        4 0.26125691E-03 0.20002918E+02</pdfrwt>
<pdfrwt beam="1">  1       -4 0.90621700E-02 0.20002918E+02</pdfrwt>
<totfact> 0.11092536E+06</totfact>
</mgrwt>
</event>
<event>
 5    1  0.4710515E-007  0.2000528E+02  0.7818608E-02  0.1745223E+00
          4   -1    0    0  501    0  0.00000000000E+00  0.00000000000E+00  0.10881130902E+01  0.17889634141E+01  0.14200000000E+01 0. -1.
         -4   -1    0    0    0  501 -0.00000000000E+00 -0.00000000000E+00 -0.68841746634E+02  0.68856390260E+02  0.14200000000E+01 0.  1.
       1023    2    1    2    0    0  0.00000000000E+00  0.00000000000E+00 -0.67753633543E+02  0.70645353674E+02  0.20005277737E+02 0.  0.
        -13    1    3    3    0    0 -0.79835027371E+01  0.60221908192E+01 -0.34569837523E+02  0.35987330229E+02  0.10570000000E+00 0.  1.
         13    1    3    3    0    0  0.79835027371E+01 -0.60221908192E+01 -0.33183796021E+02  0.34658023444E+02  0.10570000000E+00 0. -1.
<mgrwt>
<rscale>  0 0.20005278E+02</rscale>
<asrwt>0</asrwt>
<pdfrwt beam="1">  1        4 0.22244006E-03 0.20005278E+02</pdfrwt>
<pdfrwt beam="2">  1       -4 0.10646073E-01 0.20005278E+02</pdfrwt>
<totfact> 0.10722398E+06</totfact>
</mgrwt>
</event>
<event>
 5    1  0.4710515E-007  0.2000929E+02  0.7818608E-02  0.1745143E+00
          4   -1    0    0  501    0  0.00000000000E+00  0.00000000000E+00  0.13848787629E+01  0.19835042697E+01  0.14200000000E+01 0. -1.
         -4   -1    0    0    0  501 -0.00000000000E+00 -0.00000000000E+00 -0.58822135510E+02  0.58839272820E+02  0.14200000000E+01 0.  1.
       1023    2    1    2    0    0  0.00000000000E+00  0.00000000000E+00 -0.57437256747E+02  0.60822777089E+02  0.20009291598E+02 0.  0.
        -13    1    3    3    0    0 -0.92557469652E+01 -0.37895185860E+01 -0.28022391129E+02  0.29753905291E+02  0.10570000000E+00 0. -1.
         13    1    3    3    0    0  0.92557469652E+01  0.37895185860E+01 -0.29414865618E+02  0.31068871799E+02  0.10570000000E+00 0.  1.
<mgrwt>
<rscale>  0 0.20009292E+02</rscale>
<asrwt>0</asrwt>
<pdfrwt beam="1">  1        4 0.26042469E-03 0.20009292E+02</pdfrwt>
<pdfrwt beam="2">  1       -4 0.90969241E-02 0.20009292E+02</pdfrwt>
<totfact> 0.11077024E+06</totfact>
</mgrwt>
</event>
<event>
 5    1  0.4710515E-007  0.2000231E+02  0.7818608E-02  0.1745282E+00
         -4   -1    0    0    0  501 -0.00000000000E+00  0.00000000000E+00  0.31304298594E+02  0.31336488484E+02  0.14200000000E+01 0. -1.
          4   -1    0    0  501    0  0.00000000000E+00 -0.00000000000E+00 -0.30018142459E+01  0.33207361784E+01  0.14200000000E+01 0.  1.
       1023    2    1    2    0    0  0.00000000000E+00  0.00000000000E+00  0.28302484348E+02  0.34657224662E+02  0.20002314891E+02 0.  0.
        -13    1    3    3    0    0  0.15924088524E+00  0.99992922180E+01  0.14199484696E+02  0.17368009115E+02  0.10570000000E+00 0. -1.
         13    1    3    3    0    0 -0.15924088524E+00 -0.99992922180E+01  0.14102999653E+02  0.17289215547E+02  0.10570000000E+00 0.  1.
<mgrwt>
<rscale>  0 0.20002315E+02</rscale>
<asrwt>0</asrwt>
<pdfrwt beam="2">  1        4 0.48882616E-03 0.20002315E+02</pdfrwt>
<pdfrwt beam="1">  1       -4 0.48430547E-02 0.20002315E+02</pdfrwt>
<totfact> 0.12216042E+06</totfact>
</mgrwt>
</event>
<event>
 5    1  0.4710515E-007  0.2000265E+02  0.7818608E-02  0.1745275E+00
         -4   -1    0    0    0  501 -0.00000000000E+00  0.00000000000E+00  0.31425602362E+02  0.31457668124E+02  0.14200000000E+01 0.  1.
          4   -1    0    0  501    0  0.00000000000E+00 -0.00000000000E+00 -0.29891197602E+01  0.33092653174E+01  0.14200000000E+01 0. -1.
       1023    2    1    2    0    0  0.00000000000E+00  0.00000000000E+00  0.28436482602E+02  0.34766933442E+02  0.20002652778E+02 0.  0.
        -13    1    3    3    0    0  0.73274790801E+01  0.68061300589E+01  0.14219982574E+02  0.17384890938E+02  0.10570000000E+00 0.  1.
         13    1    3    3    0    0 -0.73274790801E+01 -0.68061300589E+01  0.14216500028E+02  0.17382042503E+02  0.10570000000E+00 0. -1.
<mgrwt>
<rscale>  0 0.20002653E+02</rscale>
<asrwt>0</asrwt>
<pdfrwt beam="2">  1        4 0.48695775E-03 0.20002653E+02</pdfrwt>
<pdfrwt beam="1">  1       -4 0.48618013E-02 0.20002653E+02</pdfrwt>
<totfact> 0.12210202E+06</totfact>
</mgrwt>
</event>
<event>
 5    1  0.5329187E-007  0.2000219E+02  0.7818608E-02  0.1745285E+00
          4   -1    0    0  501    0  0.00000000000E+00  0.00000000000E+00  0.64119445227E+01  0.65673002491E+01  0.14200000000E+01 0.  1.
         -4   -1    0    0    0  501 -0.00000000000E+00 -0.00000000000E+00 -0.15223802228E+02  0.15289884051E+02  0.14200000000E+01 0. -1.
       1023    2    1    2    0    0  0.00000000000E+00  0.00000000000E+00 -0.88118577056E+01  0.21857184300E+02  0.20002191612E+02 0.  0.
        -13    1    3    3    0    0 -0.90269490624E+01 -0.43029243492E+01 -0.45139803133E+01  0.10972153758E+02  0.10570000000E+00 0.  1.
         13    1    3    3    0    0  0.90269490624E+01  0.43029243492E+01 -0.42978773923E+01  0.10885030542E+02  0.10570000000E+00 0. -1.
<mgrwt>
<rscale>  0 0.20002192E+02</rscale>
<asrwt>0</asrwt>
<pdfrwt beam="1">  1        4 0.10034867E-02 0.20002192E+02</pdfrwt>
<pdfrwt beam="2">  1       -4 0.23591571E-02 0.20002192E+02</pdfrwt>
<totfact> 0.12901640E+06</totfact>
</mgrwt>
</event>
<event>
 5    1  0.4765387E-007  0.2000199E+02  0.7818608E-02  0.1745289E+00
          4   -1    0    0  501    0  0.00000000000E+00  0.00000000000E+00  0.86360612427E+01  0.87520256962E+01  0.14200000000E+01 0.  1.
         -4   -1    0    0    0  501 -0.00000000000E+00 -0.00000000000E+00 -0.11343886865E+02  0.11432417469E+02  0.14200000000E+01 0. -1.
       1023    2    1    2    0    0  0.00000000000E+00  0.00000000000E+00 -0.27078256218E+01  0.20184443166E+02  0.20001985559E+02 0.  0.
        -13    1    3    3    0    0  0.60847325699E+01 -0.79358803359E+01 -0.14353767373E+01  0.10103150302E+02  0.10570000000E+00 0.  1.
         13    1    3    3    0    0 -0.60847325699E+01  0.79358803359E+01 -0.12724488845E+01  0.10081292864E+02  0.10570000000E+00 0. -1.
<mgrwt>
<rscale>  0 0.20001986E+02</rscale>
<asrwt>0</asrwt>
<pdfrwt beam="1">  1        4 0.13443552E-02 0.20001986E+02</pdfrwt>
<pdfrwt beam="2">  1       -4 0.17609438E-02 0.20001986E+02</pdfrwt>
<totfact> 0.13000436E+06</totfact>
</mgrwt>
</event>
<event>
 4    1  0.4710515E-007  0.2001636E+02  0.7818608E-02  0.1745003E+00
          4   -1    0    0  501    0  0.00000000000E+00  0.00000000000E+00  0.59831945745E+02  0.59848793902E+02  0.14200000000E+01 0.  1.
         -4   -1    0    0    0  501 -0.00000000000E+00 -0.00000000000E+00 -0.13527234628E+01  0.19611886107E+01  0.14200000000E+01 0. -1.
        -13    1    1    2    0    0  0.72174049242E+01 -0.69244860335E+01  0.30277702070E+02  0.31887142484E+02  0.10570000000E+00 0. -1.
         13    1    1    2    0    0 -0.72174049242E+01  0.69244860335E+01  0.28201520212E+02  0.29922840029E+02  0.10570000000E+00 0.  1.
<mgrwt>
<rscale>  0 0.20016356E+02</rscale>
<asrwt>0</asrwt>
<pdfrwt beam="1">  1        4 0.92530165E-02 0.20016356E+02</pdfrwt>
<pdfrwt beam="2">  1       -4 0.25621230E-03 0.20016356E+02</pdfrwt>
<totfact> 0.11031756E+06</totfact>
</mgrwt>
</event>
<event>
 5    1  0.4710515E-007  0.2000141E+02  0.7818608E-02  0.1745300E+00
         -4   -1    0    0    0  501 -0.00000000000E+00  0.00000000000E+00  0.74069398098E+02  0.74083008407E+02  0.14200000000E+01 0. -1.
          4   -1    0    0  501    0  0.00000000000E+00 -0.00000000000E+00 -0.95932839071E+00  0.17136834484E+01  0.14200000000E+01 0.  1.
       1023    2    1    2    0    0  0.00000000000E+00  0.00000000000E+00  0.73110069707E+02  0.75796691855E+02  0.20001405040E+02 0.  0.
        -13    1    3    3    0    0  0.90908238450E+01  0.41662300942E+01  0.36372228892E+02  0.37722019543E+02  0.10570000000E+00 0.  1.
         13    1    3    3    0    0 -0.90908238450E+01 -0.41662300942E+01  0.36737840815E+02  0.38074672312E+02  0.10570000000E+00 0. -1.
<mgrwt>
<rscale>  0 0.20001405E+02</rscale>
<asrwt>0</asrwt>
<pdfrwt beam="2">  1        4 0.20666323E-03 0.20001405E+02</pdfrwt>
<pdfrwt beam="1">  1       -4 0.11454367E-01 0.20001405E+02</pdfrwt>
<totfact> 0.10549262E+06</totfact>
</mgrwt>
</event>
<event>
 5    1  0.4710515E-007  0.2000712E+02  0.7818608E-02  0.1745186E+00
         -4   -1    0    0    0  501 -0.00000000000E+00  0.00000000000E+00  0.56157962437E+02  0.56175912499E+02  0.14200000000E+01 0.  1.
          4   -1    0    0  501    0  0.00000000000E+00 -0.00000000000E+00 -0.14778564768E+01  0.20495023215E+01  0.14200000000E+01 0. -1.
       1023    2    1    2    0    0  0.00000000000E+00  0.00000000000E+00  0.54680105960E+02  0.58225414820E+02  0.20007122311E+02 0.  0.
        -13    1    3    3    0    0  0.99749315386E+01  0.71384900167E+00  0.27998716291E+02  0.29731265127E+02  0.10570000000E+00 0. -1.
         13    1    3    3    0    0 -0.99749315386E+01 -0.71384900167E+00  0.26681389669E+02  0.28494149694E+02  0.10570000000E+00 0.  1.
<mgrwt>
<rscale>  0 0.20007122E+02</rscale>
<asrwt>0</asrwt>
<pdfrwt beam="2">  1        4 0.27271604E-03 0.20007122E+02</pdfrwt>
<pdfrwt beam="1">  1       -4 0.86850410E-02 0.20007122E+02</pdfrwt>
<totfact> 0.11179433E+06</totfact>
</mgrwt>
</event>
<event>
 5    1  0.4710515E-007  0.2000207E+02  0.7818608E-02  0.1745287E+00
          4   -1    0    0  501    0  0.00000000000E+00  0.00000000000E+00  0.56261674438E+01  0.58025994266E+01  0.14200000000E+01 0. -1.
         -4   -1    0    0    0  501 -0.00000000000E+00 -0.00000000000E+00 -0.17297349351E+02  0.17355537865E+02  0.14200000000E+01 0.  1.
       1023    2    1    2    0    0  0.00000000000E+00  0.00000000000E+00 -0.11671181908E+02  0.23158137292E+02  0.20002070785E+02 0.  0.
        -13    1    3    3    0    0 -0.94878459164E+01 -0.31607436971E+01 -0.58401612632E+01  0.11581371979E+02  0.10570000000E+00 0.  1.
         13    1    3    3    0    0  0.94878459164E+01  0.31607436971E+01 -0.58310206445E+01  0.11576765312E+02  0.10570000000E+00 0. -1.
<mgrwt>
<rscale>  0 0.20002071E+02</rscale>
<asrwt>0</asrwt>
<pdfrwt beam="1">  1        4 0.88361196E-03 0.20002071E+02</pdfrwt>
<pdfrwt beam="2">  1       -4 0.26791784E-02 0.20002071E+02</pdfrwt>
<totfact> 0.12826830E+06</totfact>
</mgrwt>
</event>
<event>
 5    1  0.4901885E-007  0.2000130E+02  0.7818608E-02  0.1745302E+00
          4   -1    0    0  501    0  0.00000000000E+00  0.00000000000E+00  0.96436384574E+01  0.97476234384E+01  0.14200000000E+01 0. -1.
         -4   -1    0    0    0  501 -0.00000000000E+00 -0.00000000000E+00 -0.10161643042E+02  0.10260379589E+02  0.14200000000E+01 0.  1.
       1023    2    1    2    0    0  0.00000000000E+00  0.00000000000E+00 -0.51800458473E+00  0.20008003028E+02  0.20001296368E+02 0.  0.
        -13    1    3    3    0    0 -0.13267315155E+01 -0.99116187427E+01 -0.29628403177E+00  0.10004966733E+02  0.10570000000E+00 0.  1.
         13    1    3    3    0    0  0.13267315155E+01  0.99116187427E+01 -0.22172055297E+00  0.10003036294E+02  0.10570000000E+00 0. -1.
<mgrwt>
<rscale>  0 0.20001296E+02</rscale>
<asrwt>0</asrwt>
<pdfrwt beam="1">  1        4 0.14992306E-02 0.20001296E+02</pdfrwt>
<pdfrwt beam="2">  1       -4 0.15789237E-02 0.20001296E+02</pdfrwt>
<totfact> 0.13011848E+06</totfact>
</mgrwt>
</event>
<event>
 5    1  0.4710515E-007  0.2000625E+02  0.7818608E-02  0.1745204E+00
          4   -1    0    0  501    0  0.00000000000E+00  0.00000000000E+00  0.12335165590E+02  0.12416630386E+02  0.14200000000E+01 0. -1.
         -4   -1    0    0    0  501 -0.00000000000E+00 -0.00000000000E+00 -0.79406144425E+01  0.80665827786E+01  0.14200000000E+01 0. -1.
       1023    2    1    2    0    0  0.00000000000E+00  0.00000000000E+00  0.43945511476E+01  0.20483213164E+02  0.20006247568E+02 0.  0.
        -13    1    3    3    0    0  0.53239444073E+01 -0.84679916890E+01  0.21903580641E+01  0.10240122472E+02  0.10570000000E+00 0. -1.
         13    1    3    3    0    0 -0.53239444073E+01  0.84679916890E+01  0.22041930835E+01  0.10243090693E+02  0.10570000000E+00 0.  1.
<mgrwt>
<rscale>  0 0.20006248E+02</rscale>
<asrwt>0</asrwt>
<pdfrwt beam="1">  1        4 0.19136742E-02 0.20006248E+02</pdfrwt>
<pdfrwt beam="2">  1       -4 0.12375894E-02 0.20006248E+02</pdfrwt>
<totfact> 0.12977041E+06</totfact>
</mgrwt>
</event>
<event>
 5    1  0.4710515E-007  0.2000243E+02  0.7818608E-02  0.1745280E+00
          4   -1    0    0  501    0  0.00000000000E+00  0.00000000000E+00  0.26379142285E+00  0.14442942618E+01  0.14200000000E+01 0. -1.
         -4   -1    0    0    0  501 -0.00000000000E+00 -0.00000000000E+00 -0.11593079224E+03  0.11593948848E+03  0.14200000000E+01 0.  1.
       1023    2    1    2    0    0  0.00000000000E+00  0.00000000000E+00 -0.11566700082E+03  0.11738378274E+03  0.20002434180E+02 0.  0.
        -13    1    3    3    0    0 -0.64207858742E+01  0.76671686741E+01 -0.58037135239E+02  0.58892547966E+02  0.10570000000E+00 0. -1.
         13    1    3    3    0    0  0.64207858742E+01 -0.76671686741E+01 -0.57629865578E+02  0.58491234777E+02  0.10570000000E+00 0.  1.
<mgrwt>
<rscale>  0 0.20002434E+02</rscale>
<asrwt>0</asrwt>
<pdfrwt beam="1">  1        4 0.13206024E-03 0.20002434E+02</pdfrwt>
<pdfrwt beam="2">  1       -4 0.17926971E-01 0.20002434E+02</pdfrwt>
<totfact> 0.93299436E+05</totfact>
</mgrwt>
</event>
<event>
 4    1  0.4710515E-007  0.2002401E+02  0.7818608E-02  0.1744851E+00
          4   -1    0    0  501    0  0.00000000000E+00  0.00000000000E+00  0.56357933644E+01  0.58119331419E+01  0.14200000000E+01 0.  1.
         -4   -1    0    0    0  501 -0.00000000000E+00 -0.00000000000E+00 -0.17307028614E+02  0.17365184694E+02  0.14200000000E+01 0. -1.
        -13    1    1    2    0    0  0.82499212476E+01 -0.56686666131E+01 -0.56218449382E+01  0.11480910015E+02  0.10570000000E+00 0. -1.
         13    1    1    2    0    0 -0.82499212476E+01  0.56686666131E+01 -0.60493903113E+01  0.11696207821E+02  0.10570000000E+00 0.  1.
<mgrwt>
<rscale>  0 0.20024012E+02</rscale>
<asrwt>0</asrwt>
<pdfrwt beam="1">  1        4 0.88506790E-03 0.20024012E+02</pdfrwt>
<pdfrwt beam="2">  1       -4 0.26806425E-02 0.20024012E+02</pdfrwt>
<totfact> 0.12797113E+06</totfact>
</mgrwt>
</event>
<event>
 5    1  0.4710515E-007  0.2000509E+02  0.7818608E-02  0.1745227E+00
         -4   -1    0    0    0  501 -0.00000000000E+00  0.00000000000E+00  0.74297782695E+02  0.74311351175E+02  0.14200000000E+01 0.  1.
          4   -1    0    0  501    0  0.00000000000E+00 -0.00000000000E+00 -0.95469431960E+00  0.17110935813E+01  0.14200000000E+01 0. -1.
       1023    2    1    2    0    0  0.00000000000E+00  0.00000000000E+00  0.73343088376E+02  0.76022444756E+02  0.20005086709E+02 0.  0.
        -13    1    3    3    0    0 -0.99538179604E+01 -0.97094938099E+00  0.36155137057E+02  0.37513015645E+02  0.10570000000E+00 0.  1.
         13    1    3    3    0    0  0.99538179604E+01  0.97094938099E+00  0.37187951319E+02  0.38509429111E+02  0.10570000000E+00 0. -1.
<mgrwt>
<rscale>  0 0.20005087E+02</rscale>
<asrwt>0</asrwt>
<pdfrwt beam="2">  1        4 0.20610431E-03 0.20005087E+02</pdfrwt>
<pdfrwt beam="1">  1       -4 0.11489658E-01 0.20005087E+02</pdfrwt>
<totfact> 0.10537765E+06</totfact>
</mgrwt>
</event>
<event>
 4    1  0.4710515E-007  0.2002718E+02  0.7818608E-02  0.1744788E+00
         -4   -1    0    0    0  501 -0.00000000000E+00  0.00000000000E+00  0.41477121270E+02  0.41501421528E+02  0.14200000000E+01 0. -1.
          4   -1    0    0  501    0  0.00000000000E+00 -0.00000000000E+00 -0.21817506493E+01  0.26031588303E+01  0.14200000000E+01 0.  1.
        -13    1    1    2    0    0 -0.66522175037E+01 -0.74817236389E+01  0.20045341609E+02  0.22406585618E+02  0.10570000000E+00 0.  1.
         13    1    1    2    0    0  0.66522175037E+01  0.74817236389E+01  0.19250029011E+02  0.21697994740E+02  0.10570000000E+00 0. -1.
<mgrwt>
<rscale>  0 0.20027178E+02</rscale>
<asrwt>0</asrwt>
<pdfrwt beam="2">  1        4 0.36993920E-03 0.20027178E+02</pdfrwt>
<pdfrwt beam="1">  1       -4 0.64153810E-02 0.20027178E+02</pdfrwt>
<totfact> 0.11743302E+06</totfact>
</mgrwt>
</event>
<event>
 5    1  0.4710515E-007  0.2000624E+02  0.7818608E-02  0.1745204E+00
          4   -1    0    0  501    0  0.00000000000E+00  0.00000000000E+00  0.50227519488E+01  0.52196204018E+01  0.14200000000E+01 0. -1.
         -4   -1    0    0    0  501 -0.00000000000E+00 -0.00000000000E+00 -0.19315484638E+02  0.19367610767E+02  0.14200000000E+01 0.  1.
       1023    2    1    2    0    0  0.00000000000E+00  0.00000000000E+00 -0.14292732690E+02  0.24587231169E+02  0.20006242246E+02 0.  0.
        -13    1    3    3    0    0  0.50401874229E+01  0.86398936663E+01 -0.71429146268E+01  0.12291609076E+02  0.10570000000E+00 0. -1.
         13    1    3    3    0    0 -0.50401874229E+01 -0.86398936663E+01 -0.71498180628E+01  0.12295622093E+02  0.10570000000E+00 0.  1.
<mgrwt>
<rscale>  0 0.20006242E+02</rscale>
<asrwt>0</asrwt>
<pdfrwt beam="1">  1        4 0.79188451E-03 0.20006242E+02</pdfrwt>
<pdfrwt beam="2">  1       -4 0.29907664E-02 0.20006242E+02</pdfrwt>
<totfact> 0.12740600E+06</totfact>
</mgrwt>
</event>
<event>
 5    1  0.4710515E-007  0.2000946E+02  0.7818608E-02  0.1745140E+00
          4   -1    0    0  501    0  0.00000000000E+00  0.00000000000E+00  0.44927751305E+01  0.47118391710E+01  0.14200000000E+01 0. -1.
         -4   -1    0    0    0  501 -0.00000000000E+00 -0.00000000000E+00 -0.21505750287E+02  0.21552579785E+02  0.14200000000E+01 0.  1.
       1023    2    1    2    0    0  0.00000000000E+00  0.00000000000E+00 -0.17012975156E+02  0.26264418956E+02  0.20009457250E+02 0.  0.
        -13    1    3    3    0    0 -0.90479956825E+01  0.42641275093E+01 -0.82629902081E+01  0.12974482223E+02  0.10570000000E+00 0.  1.
         13    1    3    3    0    0  0.90479956825E+01 -0.42641275093E+01 -0.87499849481E+01  0.13289936733E+02  0.10570000000E+00 0. -1.
<mgrwt>
<rscale>  0 0.20009457E+02</rscale>
<asrwt>0</asrwt>
<pdfrwt beam="1">  1        4 0.71164953E-03 0.20009457E+02</pdfrwt>
<pdfrwt beam="2">  1       -4 0.33290303E-02 0.20009457E+02</pdfrwt>
<totfact> 0.12643468E+06</totfact>
</mgrwt>
</event>
<event>
 5    1  0.4710515E-007  0.2000575E+02  0.7818608E-02  0.1745214E+00
         -4   -1    0    0    0  501 -0.00000000000E+00  0.00000000000E+00  0.13453168716E+01  0.19560872897E+01  0.14200000000E+01 0. -1.
          4   -1    0    0  501    0  0.00000000000E+00 -0.00000000000E+00 -0.59994405080E+02  0.60011207627E+02  0.14200000000E+01 0.  1.
       1023    2    1    2    0    0  0.00000000000E+00  0.00000000000E+00 -0.58649088208E+02  0.61967294917E+02  0.20005751465E+02 0.  0.
        -13    1    3    3    0    0  0.61225683658E+01 -0.79095163831E+01 -0.29348055649E+02  0.31005900014E+02  0.10570000000E+00 0. -1.
         13    1    3    3    0    0 -0.61225683658E+01  0.79095163831E+01 -0.29301032559E+02  0.30961394903E+02  0.10570000000E+00 0.  1.
<mgrwt>
<rscale>  0 0.20005751E+02</rscale>
<asrwt>0</asrwt>
<pdfrwt beam="2">  1        4 0.92781816E-02 0.20005751E+02</pdfrwt>
<pdfrwt beam="1">  1       -4 0.25524672E-03 0.20005751E+02</pdfrwt>
<totfact> 0.11037581E+06</totfact>
</mgrwt>
</event>
<event>
 4    1  0.4710515E-007  0.2001574E+02  0.7818608E-02  0.1745015E+00
          4   -1    0    0  501    0  0.00000000000E+00  0.00000000000E+00  0.70683926610E+00  0.15861972601E+01  0.14200000000E+01 0. -1.
         -4   -1    0    0    0  501 -0.00000000000E+00 -0.00000000000E+00 -0.86470501733E+02  0.86482160414E+02  0.14200000000E+01 0.  1.
        -13    1    1    2    0    0 -0.97482554271E+01 -0.22519638277E+01 -0.41933454596E+02  0.43110620638E+02  0.10570000000E+00 0.  1.
         13    1    1    2    0    0  0.97482554271E+01  0.22519638277E+01 -0.43830207870E+02  0.44957737036E+02  0.10570000000E+00 0. -1.
<mgrwt>
<rscale>  0 0.20015739E+02</rscale>
<asrwt>0</asrwt>
<pdfrwt beam="1">  1        4 0.17728431E-03 0.20015739E+02</pdfrwt>
<pdfrwt beam="2">  1       -4 0.13371689E-01 0.20015739E+02</pdfrwt>
<totfact> 0.10138982E+06</totfact>
</mgrwt>
</event>
<event>
 4    1  0.4966301E-007  0.2036628E+02  0.7818608E-02  0.1738141E+00
          4   -1    0    0  501    0  0.00000000000E+00  0.00000000000E+00  0.77869346780E+02  0.77882293032E+02  0.14200000000E+01 0. -1.
         -4   -1    0    0    0  501 -0.00000000000E+00 -0.00000000000E+00 -0.93627820504E+00  0.17008870854E+01  0.14200000000E+01 0.  1.
        -13    1    1    2    0    0 -0.91847280488E+01  0.40161166631E+01  0.45453139023E+02  0.46545541590E+02  0.10570000000E+00 0. -1.
         13    1    1    2    0    0  0.91847280488E+01 -0.40161166631E+01  0.31479929552E+02  0.33037638527E+02  0.10570000000E+00 0.  1.
<mgrwt>
<rscale>  0 0.20366284E+02</rscale>
<asrwt>0</asrwt>
<pdfrwt beam="1">  1        4 0.12039715E-01 0.20366284E+02</pdfrwt>
<pdfrwt beam="2">  1       -4 0.20385467E-03 0.20366284E+02</pdfrwt>
<totfact> 0.10051279E+06</totfact>
</mgrwt>
</event>
<event>
 5    1  0.4710515E-007  0.2000248E+02  0.7818608E-02  0.1745279E+00
          4   -1    0    0  501    0  0.00000000000E+00  0.00000000000E+00  0.28265481143E+00  0.14478583295E+01  0.14200000000E+01 0.  1.
         -4   -1    0    0    0  501 -0.00000000000E+00 -0.00000000000E+00 -0.11442868980E+03  0.11443750019E+03  0.14200000000E+01 0. -1.
       1023    2    1    2    0    0  0.00000000000E+00  0.00000000000E+00 -0.11414603499E+03  0.11588535852E+03  0.20002475227E+02 0.  0.
        -13    1    3    3    0    0  0.99197130097E+01  0.12699721014E+01 -0.57112301617E+02  0.57981373767E+02  0.10570000000E+00 0.  1.
         13    1    3    3    0    0 -0.99197130097E+01 -0.12699721014E+01 -0.57033733372E+02  0.57903984752E+02  0.10570000000E+00 0. -1.
<mgrwt>
<rscale>  0 0.20002475E+02</rscale>
<asrwt>0</asrwt>
<pdfrwt beam="1">  1        4 0.13379421E-03 0.20002475E+02</pdfrwt>
<pdfrwt beam="2">  1       -4 0.17694711E-01 0.20002475E+02</pdfrwt>
<totfact> 0.93683876E+05</totfact>
</mgrwt>
</event>
<event>
 5    1  0.4710515E-007  0.2000262E+02  0.7818608E-02  0.1745276E+00
         -4   -1    0    0    0  501 -0.00000000000E+00  0.00000000000E+00  0.13700801147E+01  0.19732003245E+01  0.14200000000E+01 0.  1.
          4   -1    0    0  501    0  0.00000000000E+00 -0.00000000000E+00 -0.59224010982E+02  0.59241032037E+02  0.14200000000E+01 0. -1.
       1023    2    1    2    0    0  0.00000000000E+00  0.00000000000E+00 -0.57853930867E+02  0.61214232361E+02  0.20002622998E+02 0.  0.
        -13    1    3    3    0    0 -0.42434374372E+01  0.90558409907E+01 -0.28946769170E+02  0.30625832809E+02  0.10570000000E+00 0. -1.
         13    1    3    3    0    0  0.42434374372E+01 -0.90558409907E+01 -0.28907161697E+02  0.30588399553E+02  0.10570000000E+00 0.  1.
<mgrwt>
<rscale>  0 0.20002623E+02</rscale>
<asrwt>0</asrwt>
<pdfrwt beam="2">  1        4 0.91590879E-02 0.20002623E+02</pdfrwt>
<pdfrwt beam="1">  1       -4 0.25848478E-03 0.20002623E+02</pdfrwt>
<totfact> 0.11069561E+06</totfact>
</mgrwt>
</event>
<event>
 5    1  0.4710515E-007  0.2000229E+02  0.7818608E-02  0.1745282E+00
         -4   -1    0    0    0  501 -0.00000000000E+00  0.00000000000E+00  0.81544357415E+02  0.81556720301E+02  0.14200000000E+01 0. -1.
          4   -1    0    0  501    0  0.00000000000E+00 -0.00000000000E+00 -0.79892261700E+00  0.16293180622E+01  0.14200000000E+01 0.  1.
       1023    2    1    2    0    0  0.00000000000E+00  0.00000000000E+00  0.80745434798E+02  0.83186038363E+02  0.20002293314E+02 0.  0.
        -13    1    3    3    0    0  0.87506394002E-01 -0.10000190344E+02  0.40444470655E+02  0.41662667261E+02  0.10570000000E+00 0.  1.
         13    1    3    3    0    0 -0.87506394002E-01  0.10000190344E+02  0.40300964143E+02  0.41523371102E+02  0.10570000000E+00 0. -1.
<mgrwt>
<rscale>  0 0.20002293E+02</rscale>
<asrwt>0</asrwt>
<pdfrwt beam="2">  1        4 0.18773869E-03 0.20002293E+02</pdfrwt>
<pdfrwt beam="1">  1       -4 0.12610116E-01 0.20002293E+02</pdfrwt>
<totfact> 0.10305872E+06</totfact>
</mgrwt>
</event>
<event>
 4    1  0.4710515E-007  0.2016535E+02  0.7818608E-02  0.1742060E+00
          4   -1    0    0  501    0  0.00000000000E+00  0.00000000000E+00  0.41095754035E+01  0.43479891900E+01  0.14200000000E+01 0. -1.
         -4   -1    0    0    0  501 -0.00000000000E+00 -0.00000000000E+00 -0.23779914498E+02  0.23822273895E+02  0.14200000000E+01 0.  1.
        -13    1    1    2    0    0  0.22849863096E+01  0.97777867808E+01 -0.85679139665E+01  0.13200249959E+02  0.10570000000E+00 0. -1.
         13    1    1    2    0    0 -0.22849863096E+01 -0.97777867808E+01 -0.11102425128E+02  0.14970013125E+02  0.10570000000E+00 0.  1.
<mgrwt>
<rscale>  0 0.20165354E+02</rscale>
<asrwt>0</asrwt>
<pdfrwt beam="1">  1        4 0.65384032E-03 0.20165354E+02</pdfrwt>
<pdfrwt beam="2">  1       -4 0.36800462E-02 0.20165354E+02</pdfrwt>
<totfact> 0.12343786E+06</totfact>
</mgrwt>
</event>
<event>
 5    1  0.4710515E-007  0.2001230E+02  0.7818608E-02  0.1745084E+00
          4   -1    0    0  501    0  0.00000000000E+00  0.00000000000E+00  0.34751733588E+00  0.14619057079E+01  0.14200000000E+01 0. -1.
         -4   -1    0    0    0  501 -0.00000000000E+00 -0.00000000000E+00 -0.10954659851E+03  0.10955580151E+03  0.14200000000E+01 0.  1.
       1023    2    1    2    0    0  0.00000000000E+00  0.00000000000E+00 -0.10919908118E+03  0.11101770722E+03  0.20012295902E+02 0.  0.
        -13    1    3    3    0    0  0.78294801793E+01  0.62210359641E+01 -0.56437555401E+02  0.57316759159E+02  0.10570000000E+00 0.  1.
         13    1    3    3    0    0 -0.78294801793E+01 -0.62210359641E+01 -0.52761525774E+02  0.53700948063E+02  0.10570000000E+00 0. -1.
<mgrwt>
<rscale>  0 0.20012296E+02</rscale>
<asrwt>0</asrwt>
<pdfrwt beam="1">  1        4 0.13989440E-03 0.20012296E+02</pdfrwt>
<pdfrwt beam="2">  1       -4 0.16939742E-01 0.20012296E+02</pdfrwt>
<totfact> 0.94865492E+05</totfact>
</mgrwt>
</event>
<event>
 4    1  0.4710515E-007  0.2003836E+02  0.7818608E-02  0.1744566E+00
          4   -1    0    0  501    0  0.00000000000E+00  0.00000000000E+00  0.16356727611E+01  0.21660621832E+01  0.14200000000E+01 0. -1.
         -4   -1    0    0    0  501 -0.00000000000E+00 -0.00000000000E+00 -0.52268181518E+02  0.52287466942E+02  0.14200000000E+01 0.  1.
        -13    1    1    2    0    0  0.67976773154E+01  0.73553390424E+01 -0.26000337821E+02  0.27862845666E+02  0.10570000000E+00 0.  1.
         13    1    1    2    0    0 -0.67976773154E+01 -0.73553390424E+01 -0.24632170935E+02  0.26590683458E+02  0.10570000000E+00 0. -1.
<mgrwt>
<rscale>  0 0.20038360E+02</rscale>
<asrwt>0</asrwt>
<pdfrwt beam="1">  1        4 0.29392468E-03 0.20038360E+02</pdfrwt>
<pdfrwt beam="2">  1       -4 0.80835403E-02 0.20038360E+02</pdfrwt>
<totfact> 0.11293183E+06</totfact>
</mgrwt>
</event>
<event>
 5    1  0.4758898E-007  0.2000303E+02  0.7818608E-02  0.1745268E+00
         -4   -1    0    0    0  501 -0.00000000000E+00  0.00000000000E+00  0.92013684616E+01  0.93102943866E+01  0.14200000000E+01 0.  1.
          4   -1    0    0  501    0  0.00000000000E+00 -0.00000000000E+00 -0.10650954249E+02  0.10745195504E+02  0.14200000000E+01 0. -1.
       1023    2    1    2    0    0  0.00000000000E+00  0.00000000000E+00 -0.14495857875E+01  0.20055489890E+02  0.20003034165E+02 0.  0.
        -13    1    3    3    0    0 -0.96993887429E+01 -0.24367632948E+01 -0.66795104493E+00  0.10023636487E+02  0.10570000000E+00 0. -1.
         13    1    3    3    0    0  0.96993887429E+01  0.24367632948E+01 -0.78163474252E+00  0.10031853403E+02  0.10570000000E+00 0.  1.
<mgrwt>
<rscale>  0 0.20003034E+02</rscale>
<asrwt>0</asrwt>
<pdfrwt beam="2">  1        4 0.16542366E-02 0.20003034E+02</pdfrwt>
<pdfrwt beam="1">  1       -4 0.14312234E-02 0.20003034E+02</pdfrwt>
<totfact> 0.13006722E+06</totfact>
</mgrwt>
</event>
<event>
 5    1  0.4710515E-007  0.2000212E+02  0.7818608E-02  0.1745286E+00
         -4   -1    0    0    0  501 -0.00000000000E+00  0.00000000000E+00  0.80285165708E+02  0.80297722463E+02  0.14200000000E+01 0. -1.
          4   -1    0    0  501    0  0.00000000000E+00 -0.00000000000E+00 -0.82434357659E+00  0.16419324993E+01  0.14200000000E+01 0.  1.
       1023    2    1    2    0    0  0.00000000000E+00  0.00000000000E+00  0.79460822131E+02  0.81939654962E+02  0.20002119927E+02 0.  0.
        -13    1    3    3    0    0  0.98778920118E+01 -0.15594294404E+01  0.39427789425E+02  0.40676360729E+02  0.10570000000E+00 0.  1.
         13    1    3    3    0    0 -0.98778920118E+01  0.15594294404E+01  0.40033032707E+02  0.41263294233E+02  0.10570000000E+00 0. -1.
<mgrwt>
<rscale>  0 0.20002120E+02</rscale>
<asrwt>0</asrwt>
<pdfrwt beam="2">  1        4 0.19067944E-03 0.20002120E+02</pdfrwt>
<pdfrwt beam="1">  1       -4 0.12415422E-01 0.20002120E+02</pdfrwt>
<totfact> 0.10346019E+06</totfact>
</mgrwt>
</event>
<event>
 5    1  0.4710515E-007  0.2000463E+02  0.7818608E-02  0.1745236E+00
         -4   -1    0    0    0  501 -0.00000000000E+00  0.00000000000E+00  0.11278580696E+01  0.18134122050E+01  0.14200000000E+01 0.  1.
          4   -1    0    0  501    0  0.00000000000E+00 -0.00000000000E+00 -0.67334517719E+02  0.67349489058E+02  0.14200000000E+01 0. -1.
       1023    2    1    2    0    0  0.00000000000E+00  0.00000000000E+00 -0.66206659649E+02  0.69162901263E+02  0.20004627696E+02 0.  0.
        -13    1    3    3    0    0 -0.38284353560E+00  0.99938841587E+01 -0.33462961435E+02  0.34925710448E+02  0.10570000000E+00 0. -1.
         13    1    3    3    0    0  0.38284353560E+00 -0.99938841587E+01 -0.32743698214E+02  0.34237190816E+02  0.10570000000E+00 0.  1.
<mgrwt>
<rscale>  0 0.20004628E+02</rscale>
<asrwt>0</asrwt>
<pdfrwt beam="2">  1        4 0.10413041E-01 0.20004628E+02</pdfrwt>
<pdfrwt beam="1">  1       -4 0.22740325E-03 0.20004628E+02</pdfrwt>
<totfact> 0.10775448E+06</totfact>
</mgrwt>
</event>
<event>
 4    1  0.4710515E-007  0.2018905E+02  0.7818608E-02  0.1741594E+00
         -4   -1    0    0    0  501 -0.00000000000E+00  0.00000000000E+00  0.78222827249E+01  0.79501262272E+01  0.14200000000E+01 0.  1.
          4   -1    0    0  501    0  0.00000000000E+00 -0.00000000000E+00 -0.12753659931E+02  0.12832468260E+02  0.14200000000E+01 0. -1.
        -13    1    1    2    0    0  0.99994200618E+01  0.13511997964E+01 -0.27459484217E+01  0.10457798415E+02  0.10570000000E+00 0. -1.
         13    1    1    2    0    0 -0.99994200618E+01 -0.13511997964E+01 -0.21854287842E+01  0.10324796072E+02  0.10570000000E+00 0.  1.
<mgrwt>
<rscale>  0 0.20189050E+02</rscale>
<asrwt>0</asrwt>
<pdfrwt beam="2">  1        4 0.19779978E-02 0.20189050E+02</pdfrwt>
<pdfrwt beam="1">  1       -4 0.12193244E-02 0.20189050E+02</pdfrwt>
<totfact> 0.12720726E+06</totfact>
</mgrwt>
</event>
<event>
 5    1  0.5281348E-007  0.2000157E+02  0.7818608E-02  0.1745297E+00
         -4   -1    0    0    0  501 -0.00000000000E+00  0.00000000000E+00  0.31903002260E+01  0.34920503335E+01  0.14200000000E+01 0.  1.
          4   -1    0    0  501    0  0.00000000000E+00 -0.00000000000E+00 -0.29614753895E+02  0.29648778191E+02  0.14200000000E+01 0. -1.
       1023    2    1    2    0    0  0.00000000000E+00  0.00000000000E+00 -0.26424453669E+02  0.33140828525E+02  0.20001569029E+02 0.  0.
        -13    1    3    3    0    0  0.32063557943E+01 -0.94722259167E+01 -0.13167241755E+02  0.16534545934E+02  0.10570000000E+00 0. -1.
         13    1    3    3    0    0 -0.32063557943E+01  0.94722259167E+01 -0.13257211913E+02  0.16606282591E+02  0.10570000000E+00 0.  1.
<mgrwt>
<rscale>  0 0.20001569E+02</rscale>
<asrwt>0</asrwt>
<pdfrwt beam="2">  1        4 0.45819446E-02 0.20001569E+02</pdfrwt>
<pdfrwt beam="1">  1       -4 0.51664424E-03 0.20001569E+02</pdfrwt>
<totfact> 0.12292644E+06</totfact>
</mgrwt>
</event>
<event>
 5    1  0.4710515E-007  0.2000135E+02  0.7818608E-02  0.1745301E+00
         -4   -1    0    0    0  501 -0.00000000000E+00  0.00000000000E+00  0.15883701958E+01  0.21305679709E+01  0.14200000000E+01 0.  1.
          4   -1    0    0  501    0  0.00000000000E+00 -0.00000000000E+00 -0.53233030792E+02  0.53251966793E+02  0.14200000000E+01 0. -1.
       1023    2    1    2    0    0  0.00000000000E+00  0.00000000000E+00 -0.51644660596E+02  0.55382534764E+02  0.20001354673E+02 0.  0.
        -13    1    3    3    0    0  0.90686351149E+01 -0.42143503478E+01 -0.25715699288E+02  0.27591833104E+02  0.10570000000E+00 0. -1.
         13    1    3    3    0    0 -0.90686351149E+01  0.42143503478E+01 -0.25928961308E+02  0.27790701660E+02  0.10570000000E+00 0.  1.
<mgrwt>
<rscale>  0 0.20001355E+02</rscale>
<asrwt>0</asrwt>
<pdfrwt beam="2">  1        4 0.82328600E-02 0.20001355E+02</pdfrwt>
<pdfrwt beam="1">  1       -4 0.28752882E-03 0.20001355E+02</pdfrwt>
<totfact> 0.11298055E+06</totfact>
</mgrwt>
</event>
<event>
 5    1  0.4710515E-007  0.2000745E+02  0.7818608E-02  0.1745180E+00
          4   -1    0    0  501    0  0.00000000000E+00  0.00000000000E+00  0.40266822044E+02  0.40291852247E+02  0.14200000000E+01 0. -1.
         -4   -1    0    0    0  501 -0.00000000000E+00 -0.00000000000E+00 -0.22544513354E+01  0.26643856372E+01  0.14200000000E+01 0.  1.
       1023    2    1    2    0    0  0.00000000000E+00  0.00000000000E+00  0.38012370708E+02  0.42956237884E+02  0.20007449770E+02 0.  0.
        -13    1    3    3    0    0 -0.71356246198E+01 -0.70069083100E+01  0.19483557989E+02  0.21900550385E+02  0.10570000000E+00 0.  1.
         13    1    3    3    0    0  0.71356246198E+01  0.70069083100E+01  0.18528812719E+02  0.21055687499E+02  0.10570000000E+00 0. -1.
<mgrwt>
<rscale>  0 0.20007450E+02</rscale>
<asrwt>0</asrwt>
<pdfrwt beam="1">  1        4 0.62283549E-02 0.20007450E+02</pdfrwt>
<pdfrwt beam="2">  1       -4 0.38029745E-03 0.20007450E+02</pdfrwt>
<totfact> 0.11818240E+06</totfact>
</mgrwt>
</event>
<event>
 5    1  0.4710515E-007  0.2000221E+02  0.7818608E-02  0.1745284E+00
          4   -1    0    0  501    0  0.00000000000E+00  0.00000000000E+00  0.13012177817E+01  0.19260238096E+01  0.14200000000E+01 0. -1.
         -4   -1    0    0    0  501 -0.00000000000E+00 -0.00000000000E+00 -0.61351538751E+02  0.61367969716E+02  0.14200000000E+01 0.  1.
       1023    2    1    2    0    0  0.00000000000E+00  0.00000000000E+00 -0.60050320969E+02  0.63293993526E+02  0.20002214076E+02 0.  0.
        -13    1    3    3    0    0  0.99416668736E+01  0.10821071183E+01 -0.29844114963E+02  0.31475229411E+02  0.10570000000E+00 0. -1.
         13    1    3    3    0    0 -0.99416668736E+01 -0.10821071183E+01 -0.30206206006E+02  0.31818764115E+02  0.10570000000E+00 0.  1.
<mgrwt>
<rscale>  0 0.20002214E+02</rscale>
<asrwt>0</asrwt>
<pdfrwt beam="1">  1        4 0.24951332E-03 0.20002214E+02</pdfrwt>
<pdfrwt beam="2">  1       -4 0.94880224E-02 0.20002214E+02</pdfrwt>
<totfact> 0.10991727E+06</totfact>
</mgrwt>
</event>
<event>
 5    1  0.4710515E-007  0.2000792E+02  0.7818608E-02  0.1745171E+00
          4   -1    0    0  501    0  0.00000000000E+00  0.00000000000E+00  0.26559422235E+02  0.26597355309E+02  0.14200000000E+01 0.  1.
         -4   -1    0    0    0  501 -0.00000000000E+00 -0.00000000000E+00 -0.35921656000E+01  0.38626485341E+01  0.14200000000E+01 0. -1.
       1023    2    1    2    0    0  0.00000000000E+00  0.00000000000E+00  0.22967256635E+02  0.30460003843E+02  0.20007922351E+02 0.  0.
        -13    1    3    3    0    0 -0.16601427319E+01  0.98622980184E+01  0.11813924008E+02  0.15479049359E+02  0.10570000000E+00 0.  1.
         13    1    3    3    0    0  0.16601427319E+01 -0.98622980184E+01  0.11153332626E+02  0.14980954484E+02  0.10570000000E+00 0. -1.
<mgrwt>
<rscale>  0 0.20007922E+02</rscale>
<asrwt>0</asrwt>
<pdfrwt beam="1">  1        4 0.41097892E-02 0.20007922E+02</pdfrwt>
<pdfrwt beam="2">  1       -4 0.57636518E-03 0.20007922E+02</pdfrwt>
<totfact> 0.12421785E+06</totfact>
</mgrwt>
</event>
<event>
 5    1  0.4710515E-007  0.2000147E+02  0.7818608E-02  0.1745299E+00
         -4   -1    0    0    0  501 -0.00000000000E+00  0.00000000000E+00  0.32853910290E+02  0.32884583338E+02  0.14200000000E+01 0.  1.
          4   -1    0    0  501    0  0.00000000000E+00 -0.00000000000E+00 -0.28446939568E+01  0.31794156236E+01  0.14200000000E+01 0. -1.
       1023    2    1    2    0    0  0.00000000000E+00  0.00000000000E+00  0.30009216333E+02  0.36063998962E+02  0.20001473851E+02 0.  0.
        -13    1    3    3    0    0  0.91392647972E+01 -0.40588268809E+01  0.14900562016E+02  0.17945421633E+02  0.10570000000E+00 0. -1.
         13    1    3    3    0    0 -0.91392647972E+01  0.40588268809E+01  0.15108654317E+02  0.18118577329E+02  0.10570000000E+00 0.  1.
<mgrwt>
<rscale>  0 0.20001474E+02</rscale>
<asrwt>0</asrwt>
<pdfrwt beam="2">  1        4 0.46575249E-03 0.20001474E+02</pdfrwt>
<pdfrwt beam="1">  1       -4 0.50825553E-02 0.20001474E+02</pdfrwt>
<totfact> 0.12148080E+06</totfact>
</mgrwt>
</event>
<event>
 5    1  0.4857975E-007  0.2000239E+02  0.7818608E-02  0.1745281E+00
          4   -1    0    0  501    0  0.00000000000E+00  0.00000000000E+00  0.73460658572E+01  0.74820507602E+01  0.14200000000E+01 0.  1.
         -4   -1    0    0    0  501 -0.00000000000E+00 -0.00000000000E+00 -0.13317037099E+02  0.13392530645E+02  0.14200000000E+01 0. -1.
       1023    2    1    2    0    0  0.00000000000E+00  0.00000000000E+00 -0.59709712414E+01  0.20874581406E+02  0.20002391139E+02 0.  0.
        -13    1    3    3    0    0 -0.77071068982E+01  0.63722934793E+01 -0.28974298569E+01  0.10412103207E+02  0.10570000000E+00 0. -1.
         13    1    3    3    0    0  0.77071068982E+01 -0.63722934793E+01 -0.30735413845E+01  0.10462478199E+02  0.10570000000E+00 0.  1.
<mgrwt>
<rscale>  0 0.20002391E+02</rscale>
<asrwt>0</asrwt>
<pdfrwt beam="1">  1        4 0.11464315E-02 0.20002391E+02</pdfrwt>
<pdfrwt beam="2">  1       -4 0.20650425E-02 0.20002391E+02</pdfrwt>
<totfact> 0.12959000E+06</totfact>
</mgrwt>
</event>
<event>
 4    1  0.4710515E-007  0.2006345E+02  0.7818608E-02  0.1744069E+00
         -4   -1    0    0    0  501 -0.00000000000E+00  0.00000000000E+00  0.12967873417E+02  0.13045387727E+02  0.14200000000E+01 0. -1.
          4   -1    0    0  501    0  0.00000000000E+00 -0.00000000000E+00 -0.75937198258E+01  0.77253466455E+01  0.14200000000E+01 0.  1.
        -13    1    1    2    0    0  0.12918319408E+01 -0.99442201743E+01  0.29569438556E+01  0.10455191729E+02  0.10570000000E+00 0. -1.
         13    1    1    2    0    0 -0.12918319408E+01  0.99442201743E+01  0.24172097356E+01  0.10315542644E+02  0.10570000000E+00 0.  1.
<mgrwt>
<rscale>  0 0.20063446E+02</rscale>
<asrwt>0</asrwt>
<pdfrwt beam="2">  1        4 0.11843524E-02 0.20063446E+02</pdfrwt>
<pdfrwt beam="1">  1       -4 0.20111452E-02 0.20063446E+02</pdfrwt>
<totfact> 0.12884739E+06</totfact>
</mgrwt>
</event>
<event>
 5    1  0.5111048E-007  0.2000188E+02  0.7818608E-02  0.1745291E+00
          4   -1    0    0  501    0  0.00000000000E+00  0.00000000000E+00  0.17546699052E+02  0.17604063383E+02  0.14200000000E+01 0. -1.
         -4   -1    0    0    0  501 -0.00000000000E+00 -0.00000000000E+00 -0.55438523272E+01  0.57228226100E+01  0.14200000000E+01 0.  1.
       1023    2    1    2    0    0  0.00000000000E+00  0.00000000000E+00  0.12002846724E+02  0.23326885993E+02  0.20001881928E+02 0.  0.
        -13    1    3    3    0    0 -0.80572018815E+01 -0.59231906329E+01  0.60835435138E+01  0.11705697912E+02  0.10570000000E+00 0.  1.
         13    1    3    3    0    0  0.80572018815E+01  0.59231906329E+01  0.59193032105E+01  0.11621188081E+02  0.10570000000E+00 0. -1.
<mgrwt>
<rscale>  0 0.20001882E+02</rscale>
<asrwt>0</asrwt>
<pdfrwt beam="1">  1        4 0.27176717E-02 0.20001882E+02</pdfrwt>
<pdfrwt beam="2">  1       -4 0.87107995E-03 0.20001882E+02</pdfrwt>
<totfact> 0.12817455E+06</totfact>
</mgrwt>
</event>
<event>
 4    1  0.4710515E-007  0.2064818E+02  0.7818608E-02  0.1732737E+00
          4   -1    0    0  501    0  0.00000000000E+00  0.00000000000E+00  0.21732515801E+01  0.25960397591E+01  0.14200000000E+01 0. -1.
         -4   -1    0    0    0  501 -0.00000000000E+00 -0.00000000000E+00 -0.44261947522E+02  0.44284719695E+02  0.14200000000E+01 0.  1.
        -13    1    1    2    0    0  0.23860037720E+01 -0.99554610048E+01 -0.24066211703E+02  0.26153354202E+02  0.10570000000E+00 0. -1.
         13    1    1    2    0    0 -0.23860037720E+01  0.99554610048E+01 -0.18022484239E+02  0.20727405251E+02  0.10570000000E+00 0.  1.
<mgrwt>
<rscale>  0 0.20648179E+02</rscale>
<asrwt>0</asrwt>
<pdfrwt beam="1">  1        4 0.36862030E-03 0.20648179E+02</pdfrwt>
<pdfrwt beam="2">  1       -4 0.68438037E-02 0.20648179E+02</pdfrwt>
<totfact> 0.10921249E+06</totfact>
</mgrwt>
</event>
<event>
 5    1  0.4710515E-007  0.2000359E+02  0.7818608E-02  0.1745257E+00
          4   -1    0    0  501    0  0.00000000000E+00  0.00000000000E+00  0.79254760493E+02  0.79267480474E+02  0.14200000000E+01 0. -1.
         -4   -1    0    0    0  501 -0.00000000000E+00 -0.00000000000E+00 -0.84586428306E+00  0.16528419118E+01  0.14200000000E+01 0.  1.
       1023    2    1    2    0    0  0.00000000000E+00  0.00000000000E+00  0.78408896209E+02  0.80920322386E+02  0.20003588935E+02 0.  0.
        -13    1    3    3    0    0 -0.95775188534E+01  0.28769993328E+01  0.38650855971E+02  0.39923750229E+02  0.10570000000E+00 0. -1.
         13    1    3    3    0    0  0.95775188534E+01 -0.28769993328E+01  0.39758040238E+02  0.40996572157E+02  0.10570000000E+00 0.  1.
<mgrwt>
<rscale>  0 0.20003589E+02</rscale>
<asrwt>0</asrwt>
<pdfrwt beam="1">  1        4 0.12256098E-01 0.20003589E+02</pdfrwt>
<pdfrwt beam="2">  1       -4 0.19318656E-03 0.20003589E+02</pdfrwt>
<totfact> 0.10377452E+06</totfact>
</mgrwt>
</event>
<event>
 5    1  0.5073483E-007  0.2000203E+02  0.7818608E-02  0.1745288E+00
          4   -1    0    0  501    0  0.00000000000E+00  0.00000000000E+00  0.13248184466E+02  0.13324068134E+02  0.14200000000E+01 0.  1.
         -4   -1    0    0    0  501 -0.00000000000E+00 -0.00000000000E+00 -0.73844511669E+01  0.75197419527E+01  0.14200000000E+01 0. -1.
       1023    2    1    2    0    0  0.00000000000E+00  0.00000000000E+00  0.58637332990E+01  0.20843810087E+02  0.20002026166E+02 0.  0.
        -13    1    3    3    0    0  0.20407509846E+01  0.97900073554E+01  0.29178238430E+01  0.10417954553E+02  0.10570000000E+00 0.  1.
         13    1    3    3    0    0 -0.20407509846E+01 -0.97900073554E+01  0.29459094559E+01  0.10425855534E+02  0.10570000000E+00 0. -1.
<mgrwt>
<rscale>  0 0.20002026E+02</rscale>
<asrwt>0</asrwt>
<pdfrwt beam="1">  1        4 0.20544264E-02 0.20002026E+02</pdfrwt>
<pdfrwt beam="2">  1       -4 0.11523136E-02 0.20002026E+02</pdfrwt>
<totfact> 0.12961303E+06</totfact>
</mgrwt>
</event>
<event>
 5    1  0.4973863E-007  0.2000304E+02  0.7818608E-02  0.1745268E+00
         -4   -1    0    0    0  501 -0.00000000000E+00  0.00000000000E+00  0.12205813436E+02  0.12288135808E+02  0.14200000000E+01 0.  1.
          4   -1    0    0  501    0  0.00000000000E+00 -0.00000000000E+00 -0.80228843271E+01  0.81475808021E+01  0.14200000000E+01 0. -1.
       1023    2    1    2    0    0  0.00000000000E+00  0.00000000000E+00  0.41829291090E+01  0.20435716610E+02  0.20003040205E+02 0.  0.
        -13    1    3    3    0    0 -0.89983157461E+01  0.43641566012E+01  0.21534629947E+01  0.10230548591E+02  0.10570000000E+00 0. -1.
         13    1    3    3    0    0  0.89983157461E+01 -0.43641566012E+01  0.20294661143E+01  0.10205168019E+02  0.10570000000E+00 0.  1.
<mgrwt>
<rscale>  0 0.20003040E+02</rscale>
<asrwt>0</asrwt>
<pdfrwt beam="2">  1        4 0.12502144E-02 0.20003040E+02</pdfrwt>
<pdfrwt beam="1">  1       -4 0.18937420E-02 0.20003040E+02</pdfrwt>
<totfact> 0.12984102E+06</totfact>
</mgrwt>
</event>
<event>
 5    1  0.4710515E-007  0.2000197E+02  0.7818608E-02  0.1745289E+00
         -4   -1    0    0    0  501 -0.00000000000E+00  0.00000000000E+00  0.53724465973E+00  0.15182331258E+01  0.14200000000E+01 0. -1.
          4   -1    0    0  501    0  0.00000000000E+00 -0.00000000000E+00 -0.96331383936E+02  0.96341849323E+02  0.14200000000E+01 0.  1.
       1023    2    1    2    0    0  0.00000000000E+00  0.00000000000E+00 -0.95794139276E+02  0.97860082449E+02  0.20001965335E+02 0.  0.
        -13    1    3    3    0    0  0.10317579081E+01 -0.99467635903E+01 -0.48271324413E+02  0.49296395034E+02  0.10570000000E+00 0.  1.
         13    1    3    3    0    0 -0.10317579081E+01  0.99467635903E+01 -0.47522814863E+02  0.48563687415E+02  0.10570000000E+00 0. -1.
<mgrwt>
<rscale>  0 0.20001965E+02</rscale>
<asrwt>0</asrwt>
<pdfrwt beam="2">  1        4 0.14896471E-01 0.20001965E+02</pdfrwt>
<pdfrwt beam="1">  1       -4 0.15891878E-03 0.20001965E+02</pdfrwt>
<totfact> 0.98606800E+05</totfact>
</mgrwt>
</event>
<event>
 5    1  0.4710515E-007  0.2000939E+02  0.7818608E-02  0.1745141E+00
         -4   -1    0    0    0  501 -0.00000000000E+00  0.00000000000E+00  0.33542209238E+01  0.36424165063E+01  0.14200000000E+01 0. -1.
          4   -1    0    0  501    0  0.00000000000E+00 -0.00000000000E+00 -0.28305286295E+02  0.28340882701E+02  0.14200000000E+01 0.  1.
       1023    2    1    2    0    0  0.00000000000E+00  0.00000000000E+00 -0.24951065372E+02  0.31983299207E+02  0.20009391920E+02 0.  0.
        -13    1    3    3    0    0 -0.21406834566E+01  0.97710659716E+01 -0.12735798903E+02  0.16194690552E+02  0.10570000000E+00 0.  1.
         13    1    3    3    0    0  0.21406834566E+01 -0.97710659716E+01 -0.12215266468E+02  0.15788608655E+02  0.10570000000E+00 0. -1.
<mgrwt>
<rscale>  0 0.20009392E+02</rscale>
<asrwt>0</asrwt>
<pdfrwt beam="2">  1        4 0.43795663E-02 0.20009392E+02</pdfrwt>
<pdfrwt beam="1">  1       -4 0.54094108E-03 0.20009392E+02</pdfrwt>
<totfact> 0.12341547E+06</totfact>
</mgrwt>
</event>
<event>
 4    1  0.4710515E-007  0.2009171E+02  0.7818608E-02  0.1743510E+00
          4   -1    0    0  501    0  0.00000000000E+00  0.00000000000E+00  0.81478898434E+00  0.16371564033E+01  0.14200000000E+01 0. -1.
         -4   -1    0    0    0  501 -0.00000000000E+00 -0.00000000000E+00 -0.81487023000E+02  0.81499394583E+02  0.14200000000E+01 0.  1.
        -13    1    1    2    0    0 -0.84481629575E+01 -0.54093842400E+01 -0.38165717098E+02  0.39462210142E+02  0.10570000000E+00 0.  1.
         13    1    1    2    0    0  0.84481629575E+01  0.54093842400E+01 -0.42506516917E+02  0.43674340844E+02  0.10570000000E+00 0. -1.
<mgrwt>
<rscale>  0 0.20091709E+02</rscale>
<asrwt>0</asrwt>
<pdfrwt beam="1">  1        4 0.18956291E-03 0.20091709E+02</pdfrwt>
<pdfrwt beam="2">  1       -4 0.12600672E-01 0.20091709E+02</pdfrwt>
<totfact> 0.10215810E+06</totfact>
</mgrwt>
</event>
<event>
 5    1  0.4710515E-007  0.2000249E+02  0.7818608E-02  0.1745279E+00
          4   -1    0    0  501    0  0.00000000000E+00  0.00000000000E+00  0.32296886940E+01  0.35280715781E+01  0.14200000000E+01 0.  1.
         -4   -1    0    0    0  501 -0.00000000000E+00 -0.00000000000E+00 -0.29286615585E+02  0.29321020658E+02  0.14200000000E+01 0. -1.
       1023    2    1    2    0    0  0.00000000000E+00  0.00000000000E+00 -0.26056926891E+02  0.32849092236E+02  0.20002485389E+02 0.  0.
        -13    1    3    3    0    0 -0.63253319036E+01  0.77459298935E+01 -0.12919166304E+02  0.16337848209E+02  0.10570000000E+00 0. -1.
         13    1    3    3    0    0  0.63253319036E+01 -0.77459298935E+01 -0.13137760587E+02  0.16511244028E+02  0.10570000000E+00 0.  1.
<mgrwt>
<rscale>  0 0.20002485E+02</rscale>
<asrwt>0</asrwt>
<pdfrwt beam="1">  1        4 0.52247428E-03 0.20002485E+02</pdfrwt>
<pdfrwt beam="2">  1       -4 0.45312321E-02 0.20002485E+02</pdfrwt>
<totfact> 0.12306218E+06</totfact>
</mgrwt>
</event>
<event>
 5    1  0.4791458E-007  0.2000272E+02  0.7818608E-02  0.1745274E+00
          4   -1    0    0  501    0  0.00000000000E+00  0.00000000000E+00  0.42421018087E+01  0.44734581428E+01  0.14200000000E+01 0.  1.
         -4   -1    0    0    0  501 -0.00000000000E+00 -0.00000000000E+00 -0.22699574910E+02  0.22743946471E+02  0.14200000000E+01 0. -1.
       1023    2    1    2    0    0  0.00000000000E+00  0.00000000000E+00 -0.18457473101E+02  0.27217404614E+02  0.20002719831E+02 0.  0.
        -13    1    3    3    0    0 -0.34995464389E+01  0.93684860383E+01 -0.91934703213E+01  0.13584786526E+02  0.10570000000E+00 0. -1.
         13    1    3    3    0    0  0.34995464389E+01 -0.93684860383E+01 -0.92640027797E+01  0.13632618088E+02  0.10570000000E+00 0.  1.
<mgrwt>
<rscale>  0 0.20002720E+02</rscale>
<asrwt>0</asrwt>
<pdfrwt beam="1">  1        4 0.67384090E-03 0.20002720E+02</pdfrwt>
<pdfrwt beam="2">  1       -4 0.35134521E-02 0.20002720E+02</pdfrwt>
<totfact> 0.12600221E+06</totfact>
</mgrwt>
</event>
<event>
 4    1  0.4710515E-007  0.2001941E+02  0.7818608E-02  0.1744942E+00
          4   -1    0    0  501    0  0.00000000000E+00  0.00000000000E+00  0.49665505953E+01  0.51655614231E+01  0.14200000000E+01 0.  1.
         -4   -1    0    0    0  501 -0.00000000000E+00 -0.00000000000E+00 -0.19552297549E+02  0.19603794006E+02  0.14200000000E+01 0. -1.
        -13    1    1    2    0    0 -0.44942462272E+01  0.89375537884E+01 -0.76936966934E+01  0.12620707515E+02  0.10570000000E+00 0.  1.
         13    1    1    2    0    0  0.44942462272E+01 -0.89375537884E+01 -0.68920502601E+01  0.12148647914E+02  0.10570000000E+00 0. -1.
<mgrwt>
<rscale>  0 0.20019414E+02</rscale>
<asrwt>0</asrwt>
<pdfrwt beam="1">  1        4 0.78335451E-03 0.20019414E+02</pdfrwt>
<pdfrwt beam="2">  1       -4 0.30273155E-02 0.20019414E+02</pdfrwt>
<totfact> 0.12713340E+06</totfact>
</mgrwt>
</event>
<event>
 4    1  0.4710515E-007  0.2001296E+02  0.7818608E-02  0.1745071E+00
         -4   -1    0    0    0  501 -0.00000000000E+00  0.00000000000E+00  0.31782841499E+02  0.31814547204E+02  0.14200000000E+01 0. -1.
          4   -1    0    0  501    0  0.00000000000E+00 -0.00000000000E+00 -0.29553506456E+01  0.32787951199E+01  0.14200000000E+01 0.  1.
        -13    1    1    2    0    0 -0.49366642626E+01 -0.87029171988E+01  0.14266853018E+02  0.17426006121E+02  0.10570000000E+00 0. -1.
         13    1    1    2    0    0  0.49366642626E+01  0.87029171988E+01  0.14560637836E+02  0.17667336202E+02  0.10570000000E+00 0.  1.
<mgrwt>
<rscale>  0 0.20012957E+02</rscale>
<asrwt>0</asrwt>
<pdfrwt beam="2">  1        4 0.48198856E-03 0.20012957E+02</pdfrwt>
<pdfrwt beam="1">  1       -4 0.49169873E-02 0.20012957E+02</pdfrwt>
<totfact> 0.12181383E+06</totfact>
</mgrwt>
</event>
<event>
 5    1  0.4710515E-007  0.2000945E+02  0.7818608E-02  0.1745140E+00
          4   -1    0    0  501    0  0.00000000000E+00  0.00000000000E+00  0.27894467784E+02  0.27930587766E+02  0.14200000000E+01 0.  1.
         -4   -1    0    0    0  501 -0.00000000000E+00 -0.00000000000E+00 -0.34077866354E+01  0.36918030490E+01  0.14200000000E+01 0. -1.
       1023    2    1    2    0    0  0.00000000000E+00  0.00000000000E+00  0.24486681149E+02  0.31622390815E+02  0.20009448947E+02 0.  0.
        -13    1    3    3    0    0  0.84640049768E+01  0.53323902444E+01  0.12088711459E+02  0.15691458925E+02  0.10570000000E+00 0.  1.
         13    1    3    3    0    0 -0.84640049768E+01 -0.53323902444E+01  0.12397969690E+02  0.15930931890E+02  0.10570000000E+00 0. -1.
<mgrwt>
<rscale>  0 0.20009449E+02</rscale>
<asrwt>0</asrwt>
<pdfrwt beam="1">  1        4 0.43160826E-02 0.20009449E+02</pdfrwt>
<pdfrwt beam="2">  1       -4 0.54890072E-03 0.20009449E+02</pdfrwt>
<totfact> 0.12359933E+06</totfact>
</mgrwt>
</event>
<event>
 4    1  0.4710515E-007  0.2002618E+02  0.7818608E-02  0.1744808E+00
          4   -1    0    0  501    0  0.00000000000E+00  0.00000000000E+00  0.56346150568E+01  0.58107905519E+01  0.14200000000E+01 0. -1.
         -4   -1    0    0    0  501 -0.00000000000E+00 -0.00000000000E+00 -0.17314342956E+02  0.17372474550E+02  0.14200000000E+01 0.  1.
        -13    1    1    2    0    0  0.97413979948E+01  0.23137794810E+01 -0.58959995033E+01  0.11619913640E+02  0.10570000000E+00 0.  1.
         13    1    1    2    0    0 -0.97413979948E+01 -0.23137794810E+01 -0.57837283962E+01  0.11563351462E+02  0.10570000000E+00 0. -1.
<mgrwt>
<rscale>  0 0.20026176E+02</rscale>
<asrwt>0</asrwt>
<pdfrwt beam="1">  1        4 0.88488748E-03 0.20026176E+02</pdfrwt>
<pdfrwt beam="2">  1       -4 0.26817687E-02 0.20026176E+02</pdfrwt>
<totfact> 0.12793944E+06</totfact>
</mgrwt>
</event>
<event>
 5    1  0.4710515E-007  0.2000461E+02  0.7818608E-02  0.1745236E+00
         -4   -1    0    0    0  501 -0.00000000000E+00  0.00000000000E+00  0.82925379861E+01  0.84132387492E+01  0.14200000000E+01 0.  1.
          4   -1    0    0  501    0  0.00000000000E+00 -0.00000000000E+00 -0.11813897162E+02  0.11898931303E+02  0.14200000000E+01 0. -1.
       1023    2    1    2    0    0  0.00000000000E+00  0.00000000000E+00 -0.35213591756E+01  0.20312170052E+02  0.20004606514E+02 0.  0.
        -13    1    3    3    0    0  0.85273203973E+01 -0.52260973022E+01 -0.16720926803E+01  0.10140727419E+02  0.10570000000E+00 0. -1.
         13    1    3    3    0    0 -0.85273203973E+01  0.52260973022E+01 -0.18492664953E+01  0.10171442633E+02  0.10570000000E+00 0.  1.
<mgrwt>
<rscale>  0 0.20004607E+02</rscale>
<asrwt>0</asrwt>
<pdfrwt beam="2">  1        4 0.18333484E-02 0.20004607E+02</pdfrwt>
<pdfrwt beam="1">  1       -4 0.12916008E-02 0.20004607E+02</pdfrwt>
<totfact> 0.12989357E+06</totfact>
</mgrwt>
</event>
<event>
 5    1  0.4710515E-007  0.2000674E+02  0.7818608E-02  0.1745194E+00
         -4   -1    0    0    0  501 -0.00000000000E+00  0.00000000000E+00  0.72683192846E+00  0.15952067741E+01  0.14200000000E+01 0. -1.
          4   -1    0    0  501    0  0.00000000000E+00 -0.00000000000E+00 -0.85312763630E+02  0.85324580504E+02  0.14200000000E+01 0.  1.
       1023    2    1    2    0    0  0.00000000000E+00  0.00000000000E+00 -0.84585931701E+02  0.86919787278E+02  0.20006738331E+02 0.  0.
        -13    1    3    3    0    0  0.89583363772E+01  0.44452101140E+01 -0.41376090069E+02  0.42567636598E+02  0.10570000000E+00 0. -1.
         13    1    3    3    0    0 -0.89583363772E+01 -0.44452101140E+01 -0.43209841632E+02  0.44352150680E+02  0.10570000000E+00 0.  1.
<mgrwt>
<rscale>  0 0.20006738E+02</rscale>
<asrwt>0</asrwt>
<pdfrwt beam="2">  1        4 0.13192743E-01 0.20006738E+02</pdfrwt>
<pdfrwt beam="1">  1       -4 0.17952742E-03 0.20006738E+02</pdfrwt>
<totfact> 0.10183683E+06</totfact>
</mgrwt>
</event>
<event>
 5    1  0.4710515E-007  0.2000202E+02  0.7818608E-02  0.1745288E+00
         -4   -1    0    0    0  501 -0.00000000000E+00  0.00000000000E+00  0.67119323401E+02  0.67134342730E+02  0.14200000000E+01 0. -1.
          4   -1    0    0  501    0  0.00000000000E+00 -0.00000000000E+00 -0.11331895626E+01  0.18167329426E+01  0.14200000000E+01 0.  1.
       1023    2    1    2    0    0  0.00000000000E+00  0.00000000000E+00  0.65986133839E+02  0.68951075673E+02  0.20002024335E+02 0.  0.
        -13    1    3    3    0    0  0.36406595703E+01  0.93141959169E+01  0.32922067924E+02  0.34407591845E+02  0.10570000000E+00 0. -1.
         13    1    3    3    0    0 -0.36406595703E+01 -0.93141959169E+01  0.33064065914E+02  0.34543483828E+02  0.10570000000E+00 0.  1.
<mgrwt>
<rscale>  0 0.20002024E+02</rscale>
<asrwt>0</asrwt>
<pdfrwt beam="2">  1        4 0.22807247E-03 0.20002024E+02</pdfrwt>
<pdfrwt beam="1">  1       -4 0.10379784E-01 0.20002024E+02</pdfrwt>
<totfact> 0.10785796E+06</totfact>
</mgrwt>
</event>
<event>
 4    1  0.4710515E-007  0.2011129E+02  0.7818608E-02  0.1743124E+00
          4   -1    0    0  501    0  0.00000000000E+00  0.00000000000E+00  0.64569367036E+01  0.66112352548E+01  0.14200000000E+01 0.  1.
         -4   -1    0    0    0  501 -0.00000000000E+00 -0.00000000000E+00 -0.15287566072E+02  0.15353373454E+02  0.14200000000E+01 0. -1.
        -13    1    1    2    0    0  0.10044812321E+02 -0.43274162762E+00 -0.42635376091E+01  0.10921284050E+02  0.10570000000E+00 0.  1.
         13    1    1    2    0    0 -0.10044812321E+02  0.43274162762E+00 -0.45670917594E+01  0.11043324658E+02  0.10570000000E+00 0. -1.
<mgrwt>
<rscale>  0 0.20111291E+02</rscale>
<asrwt>0</asrwt>
<pdfrwt beam="1">  1        4 0.10103061E-02 0.20111291E+02</pdfrwt>
<pdfrwt beam="2">  1       -4 0.23688645E-02 0.20111291E+02</pdfrwt>
<totfact> 0.12753023E+06</totfact>
</mgrwt>
</event>
<event>
 4    1  0.4710515E-007  0.2002237E+02  0.7818608E-02  0.1744884E+00
         -4   -1    0    0    0  501 -0.00000000000E+00  0.00000000000E+00  0.49830272490E+02  0.49850501065E+02  0.14200000000E+01 0.  1.
          4   -1    0    0  501    0  0.00000000000E+00 -0.00000000000E+00 -0.17373784322E+01  0.22438546782E+01  0.14200000000E+01 0. -1.
        -13    1    1    2    0    0 -0.98951459818E+01 -0.14605545108E+01  0.25105080113E+02  0.27024495434E+02  0.10570000000E+00 0.  1.
         13    1    1    2    0    0  0.98951459818E+01  0.14605545108E+01  0.22987813945E+02  0.25069860309E+02  0.10570000000E+00 0. -1.
<mgrwt>
<rscale>  0 0.20022374E+02</rscale>
<asrwt>0</asrwt>
<pdfrwt beam="2">  1        4 0.30780477E-03 0.20022374E+02</pdfrwt>
<pdfrwt beam="1">  1       -4 0.77067108E-02 0.20022374E+02</pdfrwt>
<totfact> 0.11407280E+06</totfact>
</mgrwt>
</event>
<event>
 5    1  0.4710515E-007  0.2000263E+02  0.7818608E-02  0.1745276E+00
         -4   -1    0    0    0  501 -0.00000000000E+00  0.00000000000E+00  0.19261630504E+01  0.23930115121E+01  0.14200000000E+01 0.  1.
          4   -1    0    0  501    0  0.00000000000E+00 -0.00000000000E+00 -0.45838268815E+02  0.45860258263E+02  0.14200000000E+01 0. -1.
       1023    2    1    2    0    0  0.00000000000E+00  0.00000000000E+00 -0.43912105764E+02  0.48253269775E+02  0.20002625110E+02 0.  0.
        -13    1    3    3    0    0  0.69278061605E+01 -0.72115487560E+01 -0.22242976975E+02  0.24387745505E+02  0.10570000000E+00 0.  1.
         13    1    3    3    0    0 -0.69278061605E+01  0.72115487560E+01 -0.21669128790E+02  0.23865524269E+02  0.10570000000E+00 0. -1.
<mgrwt>
<rscale>  0 0.20002625E+02</rscale>
<asrwt>0</asrwt>
<pdfrwt beam="2">  1        4 0.70896435E-02 0.20002625E+02</pdfrwt>
<pdfrwt beam="1">  1       -4 0.33393573E-03 0.20002625E+02</pdfrwt>
<totfact> 0.11591239E+06</totfact>
</mgrwt>
</event>
<event>
 5    1  0.5045646E-007  0.2000231E+02  0.7818608E-02  0.1745282E+00
          4   -1    0    0  501    0  0.00000000000E+00  0.00000000000E+00  0.29149065939E+02  0.29183633172E+02  0.14200000000E+01 0.  1.
         -4   -1    0    0    0  501 -0.00000000000E+00 -0.00000000000E+00 -0.32462522174E+01  0.35432405308E+01  0.14200000000E+01 0. -1.
       1023    2    1    2    0    0  0.00000000000E+00  0.00000000000E+00  0.25902813722E+02  0.32726873703E+02  0.20002312458E+02 0.  0.
        -13    1    3    3    0    0 -0.88367332637E+01 -0.46819600661E+01  0.12856727491E+02  0.16288499596E+02  0.10570000000E+00 0. -1.
         13    1    3    3    0    0  0.88367332637E+01  0.46819600661E+01  0.13046086231E+02  0.16438374106E+02  0.10570000000E+00 0.  1.
<mgrwt>
<rscale>  0 0.20002312E+02</rscale>
<asrwt>0</asrwt>
<pdfrwt beam="1">  1        4 0.45099759E-02 0.20002312E+02</pdfrwt>
<pdfrwt beam="2">  1       -4 0.52492769E-03 0.20002312E+02</pdfrwt>
<totfact> 0.12312615E+06</totfact>
</mgrwt>
</event>
<event>
 5    1  0.4710515E-007  0.2000266E+02  0.7818608E-02  0.1745275E+00
         -4   -1    0    0    0  501 -0.00000000000E+00  0.00000000000E+00  0.38019533375E+02  0.38046042081E+02  0.14200000000E+01 0. -1.
          4   -1    0    0  501    0  0.00000000000E+00 -0.00000000000E+00 -0.24098059336E+01  0.27970635741E+01  0.14200000000E+01 0.  1.
       1023    2    1    2    0    0  0.00000000000E+00  0.00000000000E+00  0.35609727441E+02  0.40843105655E+02  0.20002664601E+02 0.  0.
        -13    1    3    3    0    0 -0.94478771705E+01  0.32785550810E+01  0.17936701168E+02  0.20536497455E+02  0.10570000000E+00 0. -1.
         13    1    3    3    0    0  0.94478771705E+01 -0.32785550810E+01  0.17673026274E+02  0.20306608200E+02  0.10570000000E+00 0.  1.
<mgrwt>
<rscale>  0 0.20002665E+02</rscale>
<asrwt>0</asrwt>
<pdfrwt beam="2">  1        4 0.40256760E-03 0.20002665E+02</pdfrwt>
<pdfrwt beam="1">  1       -4 0.58809866E-02 0.20002665E+02</pdfrwt>
<totfact> 0.11920334E+06</totfact>
</mgrwt>
</event>
<event>
 4    1  0.4710515E-007  0.2001601E+02  0.7818608E-02  0.1745010E+00
         -4   -1    0    0    0  501 -0.00000000000E+00  0.00000000000E+00  0.16915227443E+02  0.16974725902E+02  0.14200000000E+01 0. -1.
          4   -1    0    0  501    0  0.00000000000E+00 -0.00000000000E+00 -0.57651021168E+01  0.59374070449E+01  0.14200000000E+01 0.  1.
        -13    1    1    2    0    0 -0.26544231286E+01 -0.96458186919E+01  0.52919224339E+01  0.11318277074E+02  0.10570000000E+00 0. -1.
         13    1    1    2    0    0  0.26544231286E+01  0.96458186919E+01  0.58582028921E+01  0.11593855873E+02  0.10570000000E+00 0.  1.
<mgrwt>
<rscale>  0 0.20016007E+02</rscale>
<asrwt>0</asrwt>
<pdfrwt beam="2">  1        4 0.90476983E-03 0.20016007E+02</pdfrwt>
<pdfrwt beam="1">  1       -4 0.26201737E-02 0.20016007E+02</pdfrwt>
<totfact> 0.12822678E+06</totfact>
</mgrwt>
</event>
<event>
 4    1  0.4710515E-007  0.2006166E+02  0.7818608E-02  0.1744105E+00
          4   -1    0    0  501    0  0.00000000000E+00  0.00000000000E+00  0.64223544249E+00  0.15584820703E+01  0.14200000000E+01 0.  1.
         -4   -1    0    0    0  501 -0.00000000000E+00 -0.00000000000E+00 -0.90516523276E+02  0.90527660888E+02  0.14200000000E+01 0. -1.
        -13    1    1    2    0    0  0.10009018418E+02  0.41454247844E+00 -0.42623503768E+02  0.43785003610E+02  0.10570000000E+00 0. -1.
         13    1    1    2    0    0 -0.10009018418E+02 -0.41454247844E+00 -0.47250784065E+02  0.48301139349E+02  0.10570000000E+00 0.  1.
<mgrwt>
<rscale>  0 0.20061658E+02</rscale>
<asrwt>0</asrwt>
<pdfrwt beam="1">  1        4 0.17014277E-03 0.20061658E+02</pdfrwt>
<pdfrwt beam="2">  1       -4 0.13996950E-01 0.20061658E+02</pdfrwt>
<totfact> 0.99710935E+05</totfact>
</mgrwt>
</event>
<event>
 5    1  0.5045436E-007  0.2000150E+02  0.7818608E-02  0.1745298E+00
          4   -1    0    0  501    0  0.00000000000E+00  0.00000000000E+00  0.83431579630E+01  0.84631368177E+01  0.14200000000E+01 0. -1.
         -4   -1    0    0    0  501 -0.00000000000E+00 -0.00000000000E+00 -0.11739023146E+02  0.11824595740E+02  0.14200000000E+01 0.  1.
       1023    2    1    2    0    0  0.00000000000E+00  0.00000000000E+00 -0.33958651831E+01  0.20287732558E+02  0.20001504744E+02 0.  0.
        -13    1    3    3    0    0  0.99980581645E+01 -0.20203441840E+00 -0.17420352156E+01  0.10151248404E+02  0.10570000000E+00 0.  1.
         13    1    3    3    0    0 -0.99980581645E+01  0.20203441840E+00 -0.16538299676E+01  0.10136484155E+02  0.10570000000E+00 0. -1.
<mgrwt>
<rscale>  0 0.20001505E+02</rscale>
<asrwt>0</asrwt>
<pdfrwt beam="1">  1        4 0.12993744E-02 0.20001505E+02</pdfrwt>
<pdfrwt beam="2">  1       -4 0.18218152E-02 0.20001505E+02</pdfrwt>
<totfact> 0.12994922E+06</totfact>
</mgrwt>
</event>
<event>
 5    1  0.4710515E-007  0.2000166E+02  0.7818608E-02  0.1745295E+00
         -4   -1    0    0    0  501 -0.00000000000E+00  0.00000000000E+00  0.11439403660E+01  0.18234581325E+01  0.14200000000E+01 0. -1.
          4   -1    0    0  501    0  0.00000000000E+00 -0.00000000000E+00 -0.66721509148E+02  0.66736618007E+02  0.14200000000E+01 0.  1.
       1023    2    1    2    0    0  0.00000000000E+00  0.00000000000E+00 -0.65577568782E+02  0.68560076139E+02  0.20001662753E+02 0.  0.
        -13    1    3    3    0    0 -0.81629761864E+01 -0.57767859023E+01 -0.32804169014E+02  0.34294753429E+02  0.10570000000E+00 0. -1.
         13    1    3    3    0    0  0.81629761864E+01  0.57767859023E+01 -0.32773399768E+02  0.34265322710E+02  0.10570000000E+00 0.  1.
<mgrwt>
<rscale>  0 0.20001663E+02</rscale>
<asrwt>0</asrwt>
<pdfrwt beam="2">  1        4 0.10318278E-01 0.20001663E+02</pdfrwt>
<pdfrwt beam="1">  1       -4 0.22942369E-03 0.20001663E+02</pdfrwt>
<totfact> 0.10800129E+06</totfact>
</mgrwt>
</event>
<event>
 5    1  0.4710515E-007  0.2000150E+02  0.7818608E-02  0.1745298E+00
          4   -1    0    0  501    0  0.00000000000E+00  0.00000000000E+00  0.23934956558E+01  0.27830237970E+01  0.14200000000E+01 0. -1.
         -4   -1    0    0    0  501 -0.00000000000E+00 -0.00000000000E+00 -0.38238085821E+02  0.38264443119E+02  0.14200000000E+01 0.  1.
       1023    2    1    2    0    0  0.00000000000E+00  0.00000000000E+00 -0.35844590165E+02  0.41047466916E+02  0.20001497348E+02 0.  0.
        -13    1    3    3    0    0  0.96461391475E+01  0.26373592966E+01 -0.17898271263E+02  0.20502754722E+02  0.10570000000E+00 0. -1.
         13    1    3    3    0    0 -0.96461391475E+01 -0.26373592966E+01 -0.17946318902E+02  0.20544712194E+02  0.10570000000E+00 0.  1.
<mgrwt>
<rscale>  0 0.20001497E+02</rscale>
<asrwt>0</asrwt>
<pdfrwt beam="1">  1        4 0.40022132E-03 0.20001497E+02</pdfrwt>
<pdfrwt beam="2">  1       -4 0.59147732E-02 0.20001497E+02</pdfrwt>
<totfact> 0.11912329E+06</totfact>
</mgrwt>
</event>
<event>
 5    1  0.4710515E-007  0.2000724E+02  0.7818608E-02  0.1745184E+00
          4   -1    0    0  501    0  0.00000000000E+00  0.00000000000E+00  0.14734527695E+01  0.20463291680E+01  0.14200000000E+01 0. -1.
         -4   -1    0    0    0  501 -0.00000000000E+00 -0.00000000000E+00 -0.56279548978E+02  0.56297460273E+02  0.14200000000E+01 0. -1.
       1023    2    1    2    0    0  0.00000000000E+00  0.00000000000E+00 -0.54806096208E+02  0.58343789441E+02  0.20007238308E+02 0.  0.
        -13    1    3    3    0    0 -0.96444023772E+01 -0.26545436880E+01 -0.27370538849E+02  0.29141356673E+02  0.10570000000E+00 0.  1.
         13    1    3    3    0    0  0.96444023772E+01  0.26545436880E+01 -0.27435557360E+02  0.29202432767E+02  0.10570000000E+00 0. -1.
<mgrwt>
<rscale>  0 0.20007238E+02</rscale>
<asrwt>0</asrwt>
<pdfrwt beam="1">  1        4 0.27213029E-03 0.20007238E+02</pdfrwt>
<pdfrwt beam="2">  1       -4 0.87038360E-02 0.20007238E+02</pdfrwt>
<totfact> 0.11174699E+06</totfact>
</mgrwt>
</event>
<event>
 4    1  0.4710515E-007  0.2001238E+02  0.7818608E-02  0.1745082E+00
          4   -1    0    0  501    0  0.00000000000E+00  0.00000000000E+00  0.22671621904E+01  0.26751494160E+01  0.14200000000E+01 0. -1.
         -4   -1    0    0    0  501 -0.00000000000E+00 -0.00000000000E+00 -0.40095415999E+02  0.40120553138E+02  0.14200000000E+01 0.  1.
        -13    1    1    2    0    0 -0.83781568492E+01 -0.54693038418E+01 -0.19078016443E+02  0.21542717577E+02  0.10570000000E+00 0. -1.
         13    1    1    2    0    0  0.83781568492E+01  0.54693038418E+01 -0.18750237365E+02  0.21252984977E+02  0.10570000000E+00 0.  1.
<mgrwt>
<rscale>  0 0.20012380E+02</rscale>
<asrwt>0</asrwt>
<pdfrwt beam="1">  1        4 0.38211147E-03 0.20012380E+02</pdfrwt>
<pdfrwt beam="2">  1       -4 0.62018423E-02 0.20012380E+02</pdfrwt>
<totfact> 0.11819600E+06</totfact>
</mgrwt>
</event>
<event>
 4    1  0.4710515E-007  0.2001374E+02  0.7818608E-02  0.1745055E+00
         -4   -1    0    0    0  501 -0.00000000000E+00  0.00000000000E+00  0.43883589712E+01  0.46123848994E+01  0.14200000000E+01 0. -1.
          4   -1    0    0  501    0  0.00000000000E+00 -0.00000000000E+00 -0.22003449952E+02  0.22049222431E+02  0.14200000000E+01 0.  1.
        -13    1    1    2    0    0 -0.84377027787E+01  0.53679301117E+01 -0.92628155586E+01  0.13631596621E+02  0.10570000000E+00 0.  1.
         13    1    1    2    0    0  0.84377027787E+01 -0.53679301117E+01 -0.83522754224E+01  0.13030010709E+02  0.10570000000E+00 0. -1.
<mgrwt>
<rscale>  0 0.20013742E+02</rscale>
<asrwt>0</asrwt>
<pdfrwt beam="2">  1        4 0.34058998E-02 0.20013742E+02</pdfrwt>
<pdfrwt beam="1">  1       -4 0.69588589E-03 0.20013742E+02</pdfrwt>
<totfact> 0.12616266E+06</totfact>
</mgrwt>
</event>
<event>
 5    1  0.4710515E-007  0.2000697E+02  0.7818608E-02  0.1745190E+00
         -4   -1    0    0    0  501 -0.00000000000E+00  0.00000000000E+00  0.63817999827E+01  0.65378720559E+01  0.14200000000E+01 0. -1.
          4   -1    0    0  501    0  0.00000000000E+00 -0.00000000000E+00 -0.15301716817E+02  0.15367463601E+02  0.14200000000E+01 0.  1.
       1023    2    1    2    0    0  0.00000000000E+00  0.00000000000E+00 -0.89199168339E+01  0.21905335657E+02  0.20006969134E+02 0.  0.
        -13    1    3    3    0    0 -0.84056562659E+01  0.54193494115E+01 -0.42576987320E+01  0.10870307093E+02  0.10570000000E+00 0.  1.
         13    1    3    3    0    0  0.84056562659E+01 -0.54193494115E+01 -0.46622181019E+01  0.11035028565E+02  0.10570000000E+00 0. -1.
<mgrwt>
<rscale>  0 0.20006969E+02</rscale>
<asrwt>0</asrwt>
<pdfrwt beam="2">  1        4 0.23711733E-02 0.20006969E+02</pdfrwt>
<pdfrwt beam="1">  1       -4 0.99887837E-03 0.20006969E+02</pdfrwt>
<totfact> 0.12892559E+06</totfact>
</mgrwt>
</event>
<event>
 5    1  0.4710515E-007  0.2000822E+02  0.7818608E-02  0.1745165E+00
          4   -1    0    0  501    0  0.00000000000E+00  0.00000000000E+00  0.42420198863E+01  0.44733804573E+01  0.14200000000E+01 0. -1.
         -4   -1    0    0    0  501 -0.00000000000E+00 -0.00000000000E+00 -0.22712631496E+02  0.22756977600E+02  0.14200000000E+01 0.  1.
       1023    2    1    2    0    0  0.00000000000E+00  0.00000000000E+00 -0.18470611610E+02  0.27230358057E+02  0.20008220977E+02 0.  0.
        -13    1    3    3    0    0  0.41306895772E+01 -0.91097341260E+01 -0.94334734654E+01  0.13749598043E+02  0.10570000000E+00 0.  1.
         13    1    3    3    0    0 -0.41306895772E+01  0.91097341260E+01 -0.90371381444E+01  0.13480760014E+02  0.10570000000E+00 0. -1.
<mgrwt>
<rscale>  0 0.20008221E+02</rscale>
<asrwt>0</asrwt>
<pdfrwt beam="1">  1        4 0.67382667E-03 0.20008221E+02</pdfrwt>
<pdfrwt beam="2">  1       -4 0.35154591E-02 0.20008221E+02</pdfrwt>
<totfact> 0.12592473E+06</totfact>
</mgrwt>
</event>
<event>
 5    1  0.4710515E-007  0.2000692E+02  0.7818608E-02  0.1745191E+00
          4   -1    0    0  501    0  0.00000000000E+00  0.00000000000E+00  0.65859037097E+01  0.67372492661E+01  0.14200000000E+01 0.  1.
         -4   -1    0    0    0  501 -0.00000000000E+00 -0.00000000000E+00 -0.14836218349E+02  0.14904018750E+02  0.14200000000E+01 0. -1.
       1023    2    1    2    0    0  0.00000000000E+00  0.00000000000E+00 -0.82503146391E+01  0.21641268016E+02  0.20006918546E+02 0.  0.
        -13    1    3    3    0    0  0.79898311486E+01 -0.60140528855E+01 -0.43713243106E+01  0.10914480410E+02  0.10570000000E+00 0. -1.
         13    1    3    3    0    0 -0.79898311486E+01  0.60140528855E+01 -0.38789903285E+01  0.10726787606E+02  0.10570000000E+00 0.  1.
<mgrwt>
<rscale>  0 0.20006919E+02</rscale>
<asrwt>0</asrwt>
<pdfrwt beam="1">  1        4 0.10300733E-02 0.20006919E+02</pdfrwt>
<pdfrwt beam="2">  1       -4 0.22993525E-02 0.20006919E+02</pdfrwt>
<totfact> 0.12907998E+06</totfact>
</mgrwt>
</event>
<event>
 4    1  0.6973276E-007  0.2094412E+02  0.7818608E-02  0.1727180E+00
          4   -1    0    0  501    0  0.00000000000E+00  0.00000000000E+00  0.55602628991E+01  0.57387214174E+01  0.14200000000E+01 0.  1.
         -4   -1    0    0    0  501 -0.00000000000E+00 -0.00000000000E+00 -0.19206227943E+02  0.19258649791E+02  0.14200000000E+01 0. -1.
        -13    1    1    2    0    0  0.39505345400E+01 -0.94492537350E+01 -0.42196272090E+01  0.11077524343E+02  0.10570000000E+00 0.  1.
         13    1    1    2    0    0 -0.39505345400E+01  0.94492537350E+01 -0.94263378345E+01  0.13919846866E+02  0.10570000000E+00 0. -1.
<mgrwt>
<rscale>  0 0.20944121E+02</rscale>
<asrwt>0</asrwt>
<pdfrwt beam="1">  1        4 0.87318510E-03 0.20944121E+02</pdfrwt>
<pdfrwt beam="2">  1       -4 0.29725643E-02 0.20944121E+02</pdfrwt>
<totfact> 0.11573782E+06</totfact>
</mgrwt>
</event>
<event>
 5    1  0.4710515E-007  0.2000654E+02  0.7818608E-02  0.1745198E+00
          4   -1    0    0  501    0  0.00000000000E+00  0.00000000000E+00  0.33070217650E+02  0.33100690256E+02  0.14200000000E+01 0. -1.
         -4   -1    0    0    0  501 -0.00000000000E+00 -0.00000000000E+00 -0.28255285087E+01  0.31622794553E+01  0.14200000000E+01 0.  1.
       1023    2    1    2    0    0  0.00000000000E+00  0.00000000000E+00  0.30244689141E+02  0.36262969711E+02  0.20006542705E+02 0.  0.
        -13    1    3    3    0    0 -0.88083936507E+00 -0.99638532539E+01  0.15115182855E+02  0.18125511714E+02  0.10570000000E+00 0. -1.
         13    1    3    3    0    0  0.88083936507E+00  0.99638532539E+01  0.15129506286E+02  0.18137457997E+02  0.10570000000E+00 0.  1.
<mgrwt>
<rscale>  0 0.20006543E+02</rscale>
<asrwt>0</asrwt>
<pdfrwt beam="1">  1        4 0.51159737E-02 0.20006543E+02</pdfrwt>
<pdfrwt beam="2">  1       -4 0.46294466E-03 0.20006543E+02</pdfrwt>
<totfact> 0.12132179E+06</totfact>
</mgrwt>
</event>
<event>
 4    1  0.4710515E-007  0.2001708E+02  0.7818608E-02  0.1744989E+00
          4   -1    0    0  501    0  0.00000000000E+00  0.00000000000E+00  0.12308793528E+01  0.18792189817E+01  0.14200000000E+01 0.  1.
         -4   -1    0    0    0  501 -0.00000000000E+00 -0.00000000000E+00 -0.63758617370E+02  0.63774428174E+02  0.14200000000E+01 0. -1.
        -13    1    1    2    0    0 -0.48943548604E+01  0.87295196420E+01 -0.31333109432E+02  0.32892767318E+02  0.10570000000E+00 0.  1.
         13    1    1    2    0    0  0.48943548604E+01 -0.87295196420E+01 -0.31194628586E+02  0.32760879838E+02  0.10570000000E+00 0. -1.
<mgrwt>
<rscale>  0 0.20017077E+02</rscale>
<asrwt>0</asrwt>
<pdfrwt beam="1">  1        4 0.24045460E-03 0.20017077E+02</pdfrwt>
<pdfrwt beam="2">  1       -4 0.98601045E-02 0.20017077E+02</pdfrwt>
<totfact> 0.10888302E+06</totfact>
</mgrwt>
</event>
<event>
 4    1  0.4710515E-007  0.2224708E+02  0.7818608E-02  0.1704014E+00
         -4   -1    0    0    0  501 -0.00000000000E+00  0.00000000000E+00  0.73631792811E+00  0.15995512156E+01  0.14200000000E+01 0.  1.
          4   -1    0    0  501    0  0.00000000000E+00 -0.00000000000E+00 -0.10507207142E+03  0.10508166630E+03  0.14200000000E+01 0. -1.
        -13    1    1    2    0    0 -0.53870809871E+01  0.97299312537E+01 -0.52995703282E+02  0.54150234926E+02  0.10570000000E+00 0. -1.
         13    1    1    2    0    0  0.53870809871E+01 -0.97299312537E+01 -0.51340050207E+02  0.52530982587E+02  0.10570000000E+00 0.  1.
<mgrwt>
<rscale>  0 0.22247083E+02</rscale>
<asrwt>0</asrwt>
<pdfrwt beam="2">  1        4 0.16232067E-01 0.22247083E+02</pdfrwt>
<pdfrwt beam="1">  1       -4 0.18042039E-03 0.22247083E+02</pdfrwt>
<totfact> 0.77459500E+05</totfact>
</mgrwt>
</event>
<event>
 5    1  0.4710515E-007  0.2000206E+02  0.7818608E-02  0.1745287E+00
         -4   -1    0    0    0  501 -0.00000000000E+00  0.00000000000E+00  0.11639200779E+03  0.11640066958E+03  0.14200000000E+01 0. -1.
          4   -1    0    0  501    0  0.00000000000E+00 -0.00000000000E+00 -0.25800539555E+00  0.14432486910E+01  0.14200000000E+01 0.  1.
       1023    2    1    2    0    0  0.00000000000E+00  0.00000000000E+00  0.11613400240E+03  0.11784391827E+03  0.20002063894E+02 0.  0.
        -13    1    3    3    0    0  0.98356428598E+01  0.18060613884E+01  0.58585303920E+02  0.59432741281E+02  0.10570000000E+00 0.  1.
         13    1    3    3    0    0 -0.98356428598E+01 -0.18060613884E+01  0.57548698475E+02  0.58411176985E+02  0.10570000000E+00 0. -1.
<mgrwt>
<rscale>  0 0.20002064E+02</rscale>
<asrwt>0</asrwt>
<pdfrwt beam="2">  1        4 0.13153195E-03 0.20002064E+02</pdfrwt>
<pdfrwt beam="1">  1       -4 0.17998307E-01 0.20002064E+02</pdfrwt>
<totfact> 0.93185356E+05</totfact>
</mgrwt>
</event>
<event>
 5    1  0.4710515E-007  0.2000216E+02  0.7818608E-02  0.1745285E+00
         -4   -1    0    0    0  501 -0.00000000000E+00  0.00000000000E+00  0.28952865040E+01  0.32247610671E+01  0.14200000000E+01 0. -1.
          4   -1    0    0  501    0  0.00000000000E+00 -0.00000000000E+00 -0.32340653882E+02  0.32371813256E+02  0.14200000000E+01 0.  1.
       1023    2    1    2    0    0  0.00000000000E+00  0.00000000000E+00 -0.29445367378E+02  0.35596574323E+02  0.20002160972E+02 0.  0.
        -13    1    3    3    0    0  0.91199330701E+01  0.41021572360E+01 -0.14548631919E+02  0.17654312119E+02  0.10570000000E+00 0.  1.
         13    1    3    3    0    0 -0.91199330701E+01 -0.41021572360E+01 -0.14896735459E+02  0.17942262205E+02  0.10570000000E+00 0. -1.
<mgrwt>
<rscale>  0 0.20002161E+02</rscale>
<asrwt>0</asrwt>
<pdfrwt beam="2">  1        4 0.50032261E-02 0.20002161E+02</pdfrwt>
<pdfrwt beam="1">  1       -4 0.47316979E-03 0.20002161E+02</pdfrwt>
<totfact> 0.12170034E+06</totfact>
</mgrwt>
</event>
<event>
 4    1  0.4710515E-007  0.2002728E+02  0.7818608E-02  0.1744786E+00
          4   -1    0    0  501    0  0.00000000000E+00  0.00000000000E+00  0.92413449638E+02  0.92424358661E+02  0.14200000000E+01 0.  1.
         -4   -1    0    0    0  501 -0.00000000000E+00 -0.00000000000E+00 -0.60470074042E+00  0.15433933347E+01  0.14200000000E+01 0. -1.
        -13    1    1    2    0    0 -0.95089964614E+01 -0.31337045796E+01  0.45228994177E+02  0.46324013264E+02  0.10570000000E+00 0.  1.
         13    1    1    2    0    0  0.95089964614E+01  0.31337045796E+01  0.46579754720E+02  0.47643738732E+02  0.10570000000E+00 0. -1.
<mgrwt>
<rscale>  0 0.20027282E+02</rscale>
<asrwt>0</asrwt>
<pdfrwt beam="1">  1        4 0.14290496E-01 0.20027282E+02</pdfrwt>
<pdfrwt beam="2">  1       -4 0.16607721E-03 0.20027282E+02</pdfrwt>
<totfact> 0.99493628E+05</totfact>
</mgrwt>
</event>
<event>
 4    1  0.4710515E-007  0.2002973E+02  0.7818608E-02  0.1744737E+00
          4   -1    0    0  501    0  0.00000000000E+00  0.00000000000E+00  0.33864383357E+02  0.33894141974E+02  0.14200000000E+01 0. -1.
         -4   -1    0    0    0  501 -0.00000000000E+00 -0.00000000000E+00 -0.27585946091E+01  0.31026189288E+01  0.14200000000E+01 0.  1.
        -13    1    1    2    0    0  0.45999231878E+01  0.88819907823E+01  0.14653055603E+02  0.17741822470E+02  0.10570000000E+00 0. -1.
         13    1    1    2    0    0 -0.45999231878E+01 -0.88819907823E+01  0.16452733145E+02  0.19254938432E+02  0.10570000000E+00 0.  1.
<mgrwt>
<rscale>  0 0.20029733E+02</rscale>
<asrwt>0</asrwt>
<pdfrwt beam="1">  1        4 0.52386574E-02 0.20029733E+02</pdfrwt>
<pdfrwt beam="2">  1       -4 0.45315173E-03 0.20029733E+02</pdfrwt>
<totfact> 0.12068363E+06</totfact>
</mgrwt>
</event>
<event>
 4    1  0.4710515E-007  0.2017173E+02  0.7818608E-02  0.1741934E+00
          4   -1    0    0  501    0  0.00000000000E+00  0.00000000000E+00  0.80365774768E+02  0.80378318930E+02  0.14200000000E+01 0. -1.
         -4   -1    0    0    0  501 -0.00000000000E+00 -0.00000000000E+00 -0.85081369884E+00  0.16553803038E+01  0.14200000000E+01 0.  1.
        -13    1    1    2    0    0 -0.10041517899E+02  0.29024957882E+00  0.43388523537E+02  0.44536406161E+02  0.10570000000E+00 0. -1.
         13    1    1    2    0    0  0.10041517899E+02 -0.29024957882E+00  0.36126437532E+02  0.37497293073E+02  0.10570000000E+00 0.  1.
<mgrwt>
<rscale>  0 0.20171732E+02</rscale>
<asrwt>0</asrwt>
<pdfrwt beam="1">  1        4 0.12426820E-01 0.20171732E+02</pdfrwt>
<pdfrwt beam="2">  1       -4 0.19374910E-03 0.20171732E+02</pdfrwt>
<totfact> 0.10169457E+06</totfact>
</mgrwt>
</event>
<event>
 5    1  0.4710515E-007  0.2000144E+02  0.7818608E-02  0.1745299E+00
          4   -1    0    0  501    0  0.00000000000E+00  0.00000000000E+00  0.36318404509E+02  0.36346153938E+02  0.14200000000E+01 0.  1.
         -4   -1    0    0    0  501 -0.00000000000E+00 -0.00000000000E+00 -0.25399565742E+01  0.29099449133E+01  0.14200000000E+01 0. -1.
       1023    2    1    2    0    0  0.00000000000E+00  0.00000000000E+00  0.33778447935E+02  0.39256098851E+02  0.20001443751E+02 0.  0.
        -13    1    3    3    0    0 -0.82774730549E+01  0.56112302643E+01  0.16833701458E+02  0.19580274322E+02  0.10570000000E+00 0. -1.
         13    1    3    3    0    0  0.82774730549E+01 -0.56112302643E+01  0.16944746476E+02  0.19675824529E+02  0.10570000000E+00 0.  1.
<mgrwt>
<rscale>  0 0.20001444E+02</rscale>
<asrwt>0</asrwt>
<pdfrwt beam="1">  1        4 0.56180419E-02 0.20001444E+02</pdfrwt>
<pdfrwt beam="2">  1       -4 0.42135778E-03 0.20001444E+02</pdfrwt>
<totfact> 0.11995622E+06</totfact>
</mgrwt>
</event>
<event>
 5    1  0.4710515E-007  0.2000150E+02  0.7818608E-02  0.1745298E+00
          4   -1    0    0  501    0  0.00000000000E+00  0.00000000000E+00  0.19877006543E+01  0.24428167944E+01  0.14200000000E+01 0. -1.
         -4   -1    0    0    0  501 -0.00000000000E+00 -0.00000000000E+00 -0.44680682133E+02  0.44703240999E+02  0.14200000000E+01 0.  1.
       1023    2    1    2    0    0  0.00000000000E+00  0.00000000000E+00 -0.42692981479E+02  0.47146057794E+02  0.20001502393E+02 0.  0.
        -13    1    3    3    0    0 -0.79807012271E+01  0.60258891459E+01 -0.21417983121E+02  0.23637768624E+02  0.10570000000E+00 0.  1.
         13    1    3    3    0    0  0.79807012271E+01 -0.60258891459E+01 -0.21274998358E+02  0.23508289170E+02  0.10570000000E+00 0. -1.
<mgrwt>
<rscale>  0 0.20001502E+02</rscale>
<asrwt>0</asrwt>
<pdfrwt beam="1">  1        4 0.34254436E-03 0.20001502E+02</pdfrwt>
<pdfrwt beam="2">  1       -4 0.69106947E-02 0.20001502E+02</pdfrwt>
<totfact> 0.11640180E+06</totfact>
</mgrwt>
</event>
<event>
 4    1  0.4710515E-007  0.2006800E+02  0.7818608E-02  0.1743979E+00
         -4   -1    0    0    0  501 -0.00000000000E+00  0.00000000000E+00  0.21643008474E+02  0.21689541623E+02  0.14200000000E+01 0.  1.
          4   -1    0    0  501    0  0.00000000000E+00 -0.00000000000E+00 -0.44906765980E+01  0.47098382464E+01  0.14200000000E+01 0. -1.
        -13    1    1    2    0    0  0.10031753026E+02 -0.17873708510E-01  0.83349187500E+01  0.13042945653E+02  0.10570000000E+00 0.  1.
         13    1    1    2    0    0 -0.10031753026E+02  0.17873708510E-01  0.88174131264E+01  0.13356434217E+02  0.10570000000E+00 0. -1.
<mgrwt>
<rscale>  0 0.20068004E+02</rscale>
<asrwt>0</asrwt>
<pdfrwt beam="2">  1        4 0.71131140E-03 0.20068004E+02</pdfrwt>
<pdfrwt beam="1">  1       -4 0.33501316E-02 0.20068004E+02</pdfrwt>
<totfact> 0.12561131E+06</totfact>
</mgrwt>
</event>
<event>
 4    1  0.4710515E-007  0.2004402E+02  0.7818608E-02  0.1744454E+00
          4   -1    0    0  501    0  0.00000000000E+00  0.00000000000E+00  0.75646651809E+01  0.76967888953E+01  0.14200000000E+01 0.  1.
         -4   -1    0    0    0  501 -0.00000000000E+00 -0.00000000000E+00 -0.12991520208E+02  0.13068894265E+02  0.14200000000E+01 0. -1.
        -13    1    1    2    0    0  0.10012445074E+02  0.41146335743E+00 -0.26038877224E+01  0.10354214708E+02  0.10570000000E+00 0.  1.
         13    1    1    2    0    0 -0.10012445074E+02 -0.41146335743E+00 -0.28229673044E+01  0.10411468453E+02  0.10570000000E+00 0. -1.
<mgrwt>
<rscale>  0 0.20044023E+02</rscale>
<asrwt>0</asrwt>
<pdfrwt beam="1">  1        4 0.11799099E-02 0.20044023E+02</pdfrwt>
<pdfrwt beam="2">  1       -4 0.20148106E-02 0.20044023E+02</pdfrwt>
<totfact> 0.12910544E+06</totfact>
</mgrwt>
</event>
<event>
 5    1  0.4710515E-007  0.2000497E+02  0.7818608E-02  0.1745229E+00
         -4   -1    0    0    0  501 -0.00000000000E+00  0.00000000000E+00  0.38924121550E+00  0.14723819898E+01  0.14200000000E+01 0. -1.
          4   -1    0    0  501    0  0.00000000000E+00 -0.00000000000E+00 -0.10639591712E+03  0.10640539263E+03  0.14200000000E+01 0.  1.
       1023    2    1    2    0    0  0.00000000000E+00  0.00000000000E+00 -0.10600667590E+03  0.10787777462E+03  0.20004972373E+02 0.  0.
        -13    1    3    3    0    0 -0.26241554620E+01  0.96507486983E+01 -0.53672863471E+02  0.54596800162E+02  0.10570000000E+00 0.  1.
         13    1    3    3    0    0  0.26241554620E+01 -0.96507486983E+01 -0.52333812434E+02  0.53280974453E+02  0.10570000000E+00 0. -1.
<mgrwt>
<rscale>  0 0.20004972E+02</rscale>
<asrwt>0</asrwt>
<pdfrwt beam="2">  1        4 0.16452640E-01 0.20004972E+02</pdfrwt>
<pdfrwt beam="1">  1       -4 0.14393075E-03 0.20004972E+02</pdfrwt>
<totfact> 0.95776941E+05</totfact>
</mgrwt>
</event>
<event>
 5    1  0.4710515E-007  0.2000715E+02  0.7818608E-02  0.1745186E+00
          4   -1    0    0  501    0  0.00000000000E+00  0.00000000000E+00  0.27612561213E+02  0.27649049472E+02  0.14200000000E+01 0.  1.
         -4   -1    0    0    0  501 -0.00000000000E+00 -0.00000000000E+00 -0.34445469086E+01  0.37257621242E+01  0.14200000000E+01 0. -1.
       1023    2    1    2    0    0  0.00000000000E+00  0.00000000000E+00  0.24168014304E+02  0.31374811596E+02  0.20007145906E+02 0.  0.
        -13    1    3    3    0    0 -0.62256408504E+01 -0.78295399152E+01  0.12084380481E+02  0.15687693374E+02  0.10570000000E+00 0.  1.
         13    1    3    3    0    0  0.62256408504E+01  0.78295399152E+01  0.12083633823E+02  0.15687118223E+02  0.10570000000E+00 0. -1.
<mgrwt>
<rscale>  0 0.20007146E+02</rscale>
<asrwt>0</asrwt>
<pdfrwt beam="1">  1        4 0.42725250E-02 0.20007146E+02</pdfrwt>
<pdfrwt beam="2">  1       -4 0.55436904E-03 0.20007146E+02</pdfrwt>
<totfact> 0.12375535E+06</totfact>
</mgrwt>
</event>
<event>
 5    1  0.4710515E-007  0.2000421E+02  0.7818608E-02  0.1745244E+00
          4   -1    0    0  501    0  0.00000000000E+00  0.00000000000E+00  0.84280993083E+02  0.84292954599E+02  0.14200000000E+01 0. -1.
         -4   -1    0    0    0  501 -0.00000000000E+00 -0.00000000000E+00 -0.74588339789E+00  0.16039769460E+01  0.14200000000E+01 0.  1.
       1023    2    1    2    0    0  0.00000000000E+00  0.00000000000E+00  0.83535109685E+02  0.85896931545E+02  0.20004207027E+02 0.  0.
        -13    1    3    3    0    0 -0.54784445053E+01 -0.83658624708E+01  0.42509961654E+02  0.43670459368E+02  0.10570000000E+00 0.  1.
         13    1    3    3    0    0  0.54784445053E+01  0.83658624708E+01  0.41025148031E+02  0.42226472177E+02  0.10570000000E+00 0. -1.
<mgrwt>
<rscale>  0 0.20004207E+02</rscale>
<asrwt>0</asrwt>
<pdfrwt beam="1">  1        4 0.13033231E-01 0.20004207E+02</pdfrwt>
<pdfrwt beam="2">  1       -4 0.18167864E-03 0.20004207E+02</pdfrwt>
<totfact> 0.10218196E+06</totfact>
</mgrwt>
</event>
<event>
 4    1  0.4710515E-007  0.2001899E+02  0.7818608E-02  0.1744951E+00
         -4   -1    0    0    0  501 -0.00000000000E+00  0.00000000000E+00  0.23948510835E+02  0.23990572549E+02  0.14200000000E+01 0. -1.
          4   -1    0    0  501    0  0.00000000000E+00 -0.00000000000E+00 -0.40158874722E+01  0.42595483551E+01  0.14200000000E+01 0.  1.
        -13    1    1    2    0    0  0.94878282591E+01 -0.31828955592E+01  0.97256569887E+01  0.13955260140E+02  0.10570000000E+00 0.  1.
         13    1    1    2    0    0 -0.94878282591E+01  0.31828955592E+01  0.10206966374E+02  0.14294860764E+02  0.10570000000E+00 0. -1.
<mgrwt>
<rscale>  0 0.20018987E+02</rscale>
<asrwt>0</asrwt>
<pdfrwt beam="2">  1        4 0.63980751E-03 0.20018987E+02</pdfrwt>
<pdfrwt beam="1">  1       -4 0.37063649E-02 0.20018987E+02</pdfrwt>
<totfact> 0.12523975E+06</totfact>
</mgrwt>
</event>
<event>
 5    1  0.4710515E-007  0.2001059E+02  0.7818608E-02  0.1745118E+00
         -4   -1    0    0    0  501 -0.00000000000E+00  0.00000000000E+00  0.97915815969E+01  0.98940118339E+01  0.14200000000E+01 0. -1.
          4   -1    0    0  501    0  0.00000000000E+00 -0.00000000000E+00 -0.10017717135E+02  0.10117858301E+02  0.14200000000E+01 0.  1.
       1023    2    1    2    0    0  0.00000000000E+00  0.00000000000E+00 -0.22613553809E+00  0.20011870135E+02  0.20010592420E+02 0.  0.
        -13    1    3    3    0    0 -0.26810130130E+01  0.96374234619E+01  0.51314265097E-01  0.10004077539E+02  0.10570000000E+00 0.  1.
         13    1    3    3    0    0  0.26810130130E+01 -0.96374234619E+01 -0.27744980318E+00  0.10007792596E+02  0.10570000000E+00 0. -1.
<mgrwt>
<rscale>  0 0.20010592E+02</rscale>
<asrwt>0</asrwt>
<pdfrwt beam="2">  1        4 0.15567697E-02 0.20010592E+02</pdfrwt>
<pdfrwt beam="1">  1       -4 0.15219796E-02 0.20010592E+02</pdfrwt>
<totfact> 0.12999277E+06</totfact>
</mgrwt>
</event>
<event>
 4    1  0.4710515E-007  0.2002276E+02  0.7818608E-02  0.1744876E+00
         -4   -1    0    0    0  501 -0.00000000000E+00  0.00000000000E+00  0.50133598955E+00  0.15059009843E+01  0.14200000000E+01 0.  1.
          4   -1    0    0  501    0  0.00000000000E+00 -0.00000000000E+00 -0.98854118133E+02  0.98864316474E+02  0.14200000000E+01 0. -1.
        -13    1    1    2    0    0 -0.99240225442E+01 -0.12591390188E+01 -0.47268411772E+02  0.48315479698E+02  0.10570000000E+00 0. -1.
         13    1    1    2    0    0  0.99240225442E+01  0.12591390188E+01 -0.51084370371E+02  0.52054737760E+02  0.10570000000E+00 0.  1.
<mgrwt>
<rscale>  0 0.20022757E+02</rscale>
<asrwt>0</asrwt>
<pdfrwt beam="2">  1        4 0.15286377E-01 0.20022757E+02</pdfrwt>
<pdfrwt beam="1">  1       -4 0.15518741E-03 0.20022757E+02</pdfrwt>
<totfact> 0.97685315E+05</totfact>
</mgrwt>
</event>
<event>
 5    1  0.4710515E-007  0.2000311E+02  0.7818608E-02  0.1745266E+00
         -4   -1    0    0    0  501 -0.00000000000E+00  0.00000000000E+00  0.22253862871E+02  0.22299121343E+02  0.14200000000E+01 0.  1.
          4   -1    0    0  501    0  0.00000000000E+00 -0.00000000000E+00 -0.43316524139E+01  0.45584660397E+01  0.14200000000E+01 0. -1.
       1023    2    1    2    0    0  0.00000000000E+00  0.00000000000E+00  0.17922210457E+02  0.26857587383E+02  0.20003109067E+02 0.  0.
        -13    1    3    3    0    0 -0.86097049486E+01  0.50883234815E+01  0.90190962639E+01  0.13467491417E+02  0.10570000000E+00 0. -1.
         13    1    3    3    0    0  0.86097049486E+01 -0.50883234815E+01  0.89031141927E+01  0.13390095966E+02  0.10570000000E+00 0.  1.
<mgrwt>
<rscale>  0 0.20003109E+02</rscale>
<asrwt>0</asrwt>
<pdfrwt beam="2">  1        4 0.68733670E-03 0.20003109E+02</pdfrwt>
<pdfrwt beam="1">  1       -4 0.34445997E-02 0.20003109E+02</pdfrwt>
<totfact> 0.12619245E+06</totfact>
</mgrwt>
</event>
<event>
 4    1  0.4710515E-007  0.2020113E+02  0.7818608E-02  0.1741358E+00
         -4   -1    0    0    0  501 -0.00000000000E+00  0.00000000000E+00  0.24785562487E+02  0.24826206069E+02  0.14200000000E+01 0. -1.
          4   -1    0    0  501    0  0.00000000000E+00 -0.00000000000E+00 -0.39482508055E+01  0.41958413248E+01  0.14200000000E+01 0.  1.
        -13    1    1    2    0    0 -0.52093829868E+01  0.85883296603E+01  0.89028870055E+01  0.13422728746E+02  0.10570000000E+00 0.  1.
         13    1    1    2    0    0  0.52093829868E+01 -0.85883296603E+01  0.11934424676E+02  0.15599318648E+02  0.10570000000E+00 0. -1.
<mgrwt>
<rscale>  0 0.20201131E+02</rscale>
<asrwt>0</asrwt>
<pdfrwt beam="2">  1        4 0.62959506E-03 0.20201131E+02</pdfrwt>
<pdfrwt beam="1">  1       -4 0.38353353E-02 0.20201131E+02</pdfrwt>
<totfact> 0.12254969E+06</totfact>
</mgrwt>
</event>
<event>
 4    1  0.4710515E-007  0.2011540E+02  0.7818608E-02  0.1743043E+00
         -4   -1    0    0    0  501 -0.00000000000E+00  0.00000000000E+00  0.39349676462E+01  0.41833444009E+01  0.14200000000E+01 0. -1.
          4   -1    0    0  501    0  0.00000000000E+00 -0.00000000000E+00 -0.24651354626E+02  0.24692219117E+02  0.14200000000E+01 0.  1.
        -13    1    1    2    0    0 -0.66264529460E+01 -0.75586185231E+01 -0.10820245943E+02  0.14769275113E+02  0.10570000000E+00 0. -1.
         13    1    1    2    0    0  0.66264529460E+01  0.75586185231E+01 -0.98961410375E+01  0.14106288404E+02  0.10570000000E+00 0.  1.
<mgrwt>
<rscale>  0 0.20115404E+02</rscale>
<asrwt>0</asrwt>
<pdfrwt beam="2">  1        4 0.38147653E-02 0.20115404E+02</pdfrwt>
<pdfrwt beam="1">  1       -4 0.62762898E-03 0.20115404E+02</pdfrwt>
<totfact> 0.12369252E+06</totfact>
</mgrwt>
</event>
<event>
 4    1  0.4710515E-007  0.2003375E+02  0.7818608E-02  0.1744658E+00
          4   -1    0    0  501    0  0.00000000000E+00  0.00000000000E+00  0.47851091629E+02  0.47872156522E+02  0.14200000000E+01 0.  1.
         -4   -1    0    0    0  501 -0.00000000000E+00 -0.00000000000E+00 -0.18323901998E+01  0.23182005617E+01  0.14200000000E+01 0. -1.
        -13    1    1    2    0    0 -0.86696209355E+01  0.50067372867E+01  0.23789006718E+02  0.25810032130E+02  0.10570000000E+00 0.  1.
         13    1    1    2    0    0  0.86696209355E+01 -0.50067372867E+01  0.22229694711E+02  0.24380324954E+02  0.10570000000E+00 0. -1.
<mgrwt>
<rscale>  0 0.20033748E+02</rscale>
<asrwt>0</asrwt>
<pdfrwt beam="1">  1        4 0.74006963E-02 0.20033748E+02</pdfrwt>
<pdfrwt beam="2">  1       -4 0.32089661E-03 0.20033748E+02</pdfrwt>
<totfact> 0.11473120E+06</totfact>
</mgrwt>
</event>
<event>
 5    1  0.4710515E-007  0.2000171E+02  0.7818608E-02  0.1745294E+00
         -4   -1    0    0    0  501 -0.00000000000E+00  0.00000000000E+00  0.14473046417E+01  0.20275824831E+01  0.14200000000E+01 0. -1.
          4   -1    0    0  501    0  0.00000000000E+00 -0.00000000000E+00 -0.56975055189E+02  0.56992747905E+02  0.14200000000E+01 0.  1.
       1023    2    1    2    0    0  0.00000000000E+00  0.00000000000E+00 -0.55527750547E+02  0.59020330389E+02  0.20001707885E+02 0.  0.
        -13    1    3    3    0    0  0.31176310418E+01  0.95016678652E+01 -0.27963822085E+02  0.29698279977E+02  0.10570000000E+00 0. -1.
         13    1    3    3    0    0 -0.31176310418E+01 -0.95016678652E+01 -0.27563928463E+02  0.29322050411E+02  0.10570000000E+00 0.  1.
<mgrwt>
<rscale>  0 0.20001708E+02</rscale>
<asrwt>0</asrwt>
<pdfrwt beam="2">  1        4 0.88113894E-02 0.20001708E+02</pdfrwt>
<pdfrwt beam="1">  1       -4 0.26866003E-03 0.20001708E+02</pdfrwt>
<totfact> 0.11154683E+06</totfact>
</mgrwt>
</event>
<event>
 5    1  0.4710515E-007  0.2000258E+02  0.7818608E-02  0.1745277E+00
          4   -1    0    0  501    0  0.00000000000E+00  0.00000000000E+00  0.14681469711E+01  0.20425120633E+01  0.14200000000E+01 0.  1.
         -4   -1    0    0    0  501 -0.00000000000E+00 -0.00000000000E+00 -0.56399280233E+02  0.56417153515E+02  0.14200000000E+01 0. -1.
       1023    2    1    2    0    0  0.00000000000E+00  0.00000000000E+00 -0.54931133262E+02  0.58459665579E+02  0.20002577288E+02 0.  0.
        -13    1    3    3    0    0 -0.68392317135E+01 -0.72956375239E+01 -0.27801154404E+02  0.29545165019E+02  0.10570000000E+00 0. -1.
         13    1    3    3    0    0  0.68392317135E+01  0.72956375239E+01 -0.27129978858E+02  0.28914500560E+02  0.10570000000E+00 0.  1.
<mgrwt>
<rscale>  0 0.20002577E+02</rscale>
<asrwt>0</asrwt>
<pdfrwt beam="1">  1        4 0.27142561E-03 0.20002577E+02</pdfrwt>
<pdfrwt beam="2">  1       -4 0.87223677E-02 0.20002577E+02</pdfrwt>
<totfact> 0.11175437E+06</totfact>
</mgrwt>
</event>
<event>
 4    1  0.4710515E-007  0.2002897E+02  0.7818608E-02  0.1744753E+00
          4   -1    0    0  501    0  0.00000000000E+00  0.00000000000E+00  0.24993759079E+01  0.28745921327E+01  0.14200000000E+01 0.  1.
         -4   -1    0    0    0  501 -0.00000000000E+00 -0.00000000000E+00 -0.36934541157E+02  0.36961828019E+02  0.14200000000E+01 0. -1.
        -13    1    1    2    0    0 -0.17618584045E+00  0.10001522089E+02 -0.16290465404E+02  0.19116796832E+02  0.10570000000E+00 0. -1.
         13    1    1    2    0    0  0.17618584045E+00 -0.10001522089E+02 -0.18144699844E+02  0.20719623319E+02  0.10570000000E+00 0.  1.
<mgrwt>
<rscale>  0 0.20028973E+02</rscale>
<asrwt>0</asrwt>
<pdfrwt beam="1">  1        4 0.41548117E-03 0.20028973E+02</pdfrwt>
<pdfrwt beam="2">  1       -4 0.57131985E-02 0.20028973E+02</pdfrwt>
<totfact> 0.11935198E+06</totfact>
</mgrwt>
</event>
<event>
 5    1  0.4710515E-007  0.2000416E+02  0.7818608E-02  0.1745245E+00
         -4   -1    0    0    0  501 -0.00000000000E+00  0.00000000000E+00  0.16251933584E+02  0.16313851330E+02  0.14200000000E+01 0.  1.
          4   -1    0    0  501    0  0.00000000000E+00 -0.00000000000E+00 -0.59990075451E+01  0.61647783031E+01  0.14200000000E+01 0. -1.
       1023    2    1    2    0    0  0.00000000000E+00  0.00000000000E+00  0.10252926039E+02  0.22478629633E+02  0.20004157014E+02 0.  0.
        -13    1    3    3    0    0  0.71110580321E+01 -0.70316802997E+01  0.49726854788E+01  0.11169173986E+02  0.10570000000E+00 0.  1.
         13    1    3    3    0    0 -0.71110580321E+01  0.70316802997E+01  0.52802405604E+01  0.11309455647E+02  0.10570000000E+00 0. -1.
<mgrwt>
<rscale>  0 0.20004157E+02</rscale>
<asrwt>0</asrwt>
<pdfrwt beam="2">  1        4 0.94043874E-03 0.20004157E+02</pdfrwt>
<pdfrwt beam="1">  1       -4 0.25178120E-02 0.20004157E+02</pdfrwt>
<totfact> 0.12863080E+06</totfact>
</mgrwt>
</event>
<event>
 5    1  0.4710515E-007  0.2000415E+02  0.7818608E-02  0.1745246E+00
          4   -1    0    0  501    0  0.00000000000E+00  0.00000000000E+00  0.48543174464E+01  0.50577463232E+01  0.14200000000E+01 0.  1.
         -4   -1    0    0    0  501 -0.00000000000E+00 -0.00000000000E+00 -0.19956632723E+02  0.20007088485E+02  0.14200000000E+01 0. -1.
       1023    2    1    2    0    0  0.00000000000E+00  0.00000000000E+00 -0.15102315276E+02  0.25064834808E+02  0.20004150000E+02 0.  0.
        -13    1    3    3    0    0 -0.62578620762E+01 -0.78004989554E+01 -0.77357763298E+01  0.12643655707E+02  0.10570000000E+00 0. -1.
         13    1    3    3    0    0  0.62578620762E+01  0.78004989554E+01 -0.73665389465E+01  0.12421179101E+02  0.10570000000E+00 0.  1.
<mgrwt>
<rscale>  0 0.20004150E+02</rscale>
<asrwt>0</asrwt>
<pdfrwt beam="1">  1        4 0.76634767E-03 0.20004150E+02</pdfrwt>
<pdfrwt beam="2">  1       -4 0.30897807E-02 0.20004150E+02</pdfrwt>
<totfact> 0.12716605E+06</totfact>
</mgrwt>
</event>
<event>
 5    1  0.4710515E-007  0.2000423E+02  0.7818608E-02  0.1745244E+00
         -4   -1    0    0    0  501 -0.00000000000E+00  0.00000000000E+00  0.50823427690E+00  0.15082115502E+01  0.14200000000E+01 0. -1.
          4   -1    0    0  501    0  0.00000000000E+00 -0.00000000000E+00 -0.98218693164E+02  0.98228957476E+02  0.14200000000E+01 0.  1.
       1023    2    1    2    0    0  0.00000000000E+00  0.00000000000E+00 -0.97710458887E+02  0.99737169026E+02  0.20004227290E+02 0.  0.
        -13    1    3    3    0    0  0.98518178533E+01 -0.17239977001E+01 -0.48979554170E+02  0.49990382898E+02  0.10570000000E+00 0. -1.
         13    1    3    3    0    0 -0.98518178533E+01  0.17239977001E+01 -0.48730904717E+02  0.49746786129E+02  0.10570000000E+00 0.  1.
<mgrwt>
<rscale>  0 0.20004227E+02</rscale>
<asrwt>0</asrwt>
<pdfrwt beam="2">  1        4 0.15188271E-01 0.20004227E+02</pdfrwt>
<pdfrwt beam="1">  1       -4 0.15590086E-03 0.20004227E+02</pdfrwt>
<totfact> 0.98046055E+05</totfact>
</mgrwt>
</event>
<event>
 5    1  0.4710515E-007  0.2000201E+02  0.7818608E-02  0.1745288E+00
         -4   -1    0    0    0  501 -0.00000000000E+00  0.00000000000E+00  0.31011390985E+02  0.31043884596E+02  0.14200000000E+01 0.  1.
          4   -1    0    0  501    0  0.00000000000E+00 -0.00000000000E+00 -0.30330305486E+01  0.33489810851E+01  0.14200000000E+01 0. -1.
       1023    2    1    2    0    0  0.00000000000E+00  0.00000000000E+00  0.27978360436E+02  0.34392865681E+02  0.20002013825E+02 0.  0.
        -13    1    3    3    0    0 -0.53210146361E+00  0.99860605391E+01  0.13874738939E+02  0.17103335644E+02  0.10570000000E+00 0.  1.
         13    1    3    3    0    0  0.53210146361E+00 -0.99860605391E+01  0.14103621497E+02  0.17289530037E+02  0.10570000000E+00 0. -1.
<mgrwt>
<rscale>  0 0.20002014E+02</rscale>
<asrwt>0</asrwt>
<pdfrwt beam="2">  1        4 0.49342348E-03 0.20002014E+02</pdfrwt>
<pdfrwt beam="1">  1       -4 0.47977866E-02 0.20002014E+02</pdfrwt>
<totfact> 0.12229509E+06</totfact>
</mgrwt>
</event>
<event>
 5    1  0.4710515E-007  0.2000664E+02  0.7818608E-02  0.1745196E+00
         -4   -1    0    0    0  501 -0.00000000000E+00  0.00000000000E+00  0.88520553898E+00  0.16733167202E+01  0.14200000000E+01 0. -1.
          4   -1    0    0  501    0  0.00000000000E+00 -0.00000000000E+00 -0.77425385127E+02  0.77438405601E+02  0.14200000000E+01 0.  1.
       1023    2    1    2    0    0  0.00000000000E+00  0.00000000000E+00 -0.76540179588E+02  0.79111722321E+02  0.20006636831E+02 0.  0.
        -13    1    3    3    0    0 -0.52082132762E+01 -0.85397207986E+01 -0.38482666062E+02  0.39761527594E+02  0.10570000000E+00 0.  1.
         13    1    3    3    0    0  0.52082132762E+01  0.85397207986E+01 -0.38057513526E+02  0.39350194727E+02  0.10570000000E+00 0. -1.
<mgrwt>
<rscale>  0 0.20006637E+02</rscale>
<asrwt>0</asrwt>
<pdfrwt beam="2">  1        4 0.11973220E-01 0.20006637E+02</pdfrwt>
<pdfrwt beam="1">  1       -4 0.19781104E-03 0.20006637E+02</pdfrwt>
<totfact> 0.10433357E+06</totfact>
</mgrwt>
</event>
<event>
 5    1  0.4750205E-007  0.2000150E+02  0.7818608E-02  0.1745298E+00
          4   -1    0    0  501    0  0.00000000000E+00  0.00000000000E+00  0.27375974543E+02  0.27412777717E+02  0.14200000000E+01 0. -1.
         -4   -1    0    0    0  501 -0.00000000000E+00 -0.00000000000E+00 -0.34745505576E+01  0.37535185596E+01  0.14200000000E+01 0.  1.
       1023    2    1    2    0    0  0.00000000000E+00  0.00000000000E+00  0.23901423985E+02  0.31166296277E+02  0.20001498821E+02 0.  0.
        -13    1    3    3    0    0  0.41672503781E+01 -0.90904978105E+01  0.11991646216E+02  0.15614540583E+02  0.10570000000E+00 0.  1.
         13    1    3    3    0    0 -0.41672503781E+01  0.90904978105E+01  0.11909777769E+02  0.15551755694E+02  0.10570000000E+00 0. -1.
<mgrwt>
<rscale>  0 0.20001499E+02</rscale>
<asrwt>0</asrwt>
<pdfrwt beam="1">  1        4 0.42359784E-02 0.20001499E+02</pdfrwt>
<pdfrwt beam="2">  1       -4 0.55883635E-03 0.20001499E+02</pdfrwt>
<totfact> 0.12393375E+06</totfact>
</mgrwt>
</event>
<event>
 4    1  0.4710515E-007  0.2001919E+02  0.7818608E-02  0.1744947E+00
          4   -1    0    0  501    0  0.00000000000E+00  0.00000000000E+00  0.11457571602E+02  0.11545230488E+02  0.14200000000E+01 0.  1.
         -4   -1    0    0    0  501 -0.00000000000E+00 -0.00000000000E+00 -0.85649446238E+01  0.86818590411E+01  0.14200000000E+01 0. -1.
        -13    1    1    2    0    0 -0.25708485086E+01 -0.96720193219E+01  0.16014419547E+01  0.10135729310E+02  0.10570000000E+00 0. -1.
         13    1    1    2    0    0  0.25708485086E+01  0.96720193219E+01  0.12911850237E+01  0.10091360219E+02  0.10570000000E+00 0.  1.
<mgrwt>
<rscale>  0 0.20019187E+02</rscale>
<asrwt>0</asrwt>
<pdfrwt beam="1">  1        4 0.17784397E-02 0.20019187E+02</pdfrwt>
<pdfrwt beam="2">  1       -4 0.13334202E-02 0.20019187E+02</pdfrwt>
<totfact> 0.12975105E+06</totfact>
</mgrwt>
</event>
<event>
 5    1  0.4710515E-007  0.2001165E+02  0.7818608E-02  0.1745097E+00
         -4   -1    0    0    0  501 -0.00000000000E+00  0.00000000000E+00  0.37314754539E+02  0.37341763567E+02  0.14200000000E+01 0.  1.
          4   -1    0    0  501    0  0.00000000000E+00 -0.00000000000E+00 -0.24651098395E+01  0.28448491210E+01  0.14200000000E+01 0. -1.
       1023    2    1    2    0    0  0.00000000000E+00  0.00000000000E+00  0.34849644700E+02  0.40186612688E+02  0.20011649199E+02 0.  0.
        -13    1    3    3    0    0  0.50195602341E+01 -0.86523211400E+01  0.17858823867E+02  0.20469670453E+02  0.10570000000E+00 0. -1.
         13    1    3    3    0    0 -0.50195602341E+01  0.86523211400E+01  0.16990820833E+02  0.19716942235E+02  0.10570000000E+00 0.  1.
<mgrwt>
<rscale>  0 0.20011649E+02</rscale>
<asrwt>0</asrwt>
<pdfrwt beam="2">  1        4 0.41053601E-03 0.20011649E+02</pdfrwt>
<pdfrwt beam="1">  1       -4 0.57720197E-02 0.20011649E+02</pdfrwt>
<totfact> 0.11939851E+06</totfact>
</mgrwt>
</event>
<event>
 5    1  0.4710515E-007  0.2000145E+02  0.7818608E-02  0.1745299E+00
         -4   -1    0    0    0  501 -0.00000000000E+00  0.00000000000E+00  0.21108022043E+01  0.25439901623E+01  0.14200000000E+01 0.  1.
          4   -1    0    0  501    0  0.00000000000E+00 -0.00000000000E+00 -0.42526542983E+02  0.42550243925E+02  0.14200000000E+01 0. -1.
       1023    2    1    2    0    0  0.00000000000E+00  0.00000000000E+00 -0.40415740779E+02  0.45094234088E+02  0.20001446079E+02 0.  0.
        -13    1    3    3    0    0 -0.28058188750E+00 -0.99962163460E+01 -0.20174324596E+02  0.22517051602E+02  0.10570000000E+00 0. -1.
         13    1    3    3    0    0  0.28058188750E+00  0.99962163460E+01 -0.20241416183E+02  0.22577182486E+02  0.10570000000E+00 0.  1.
<mgrwt>
<rscale>  0 0.20001446E+02</rscale>
<asrwt>0</asrwt>
<pdfrwt beam="2">  1        4 0.65776898E-02 0.20001446E+02</pdfrwt>
<pdfrwt beam="1">  1       -4 0.35988413E-03 0.20001446E+02</pdfrwt>
<totfact> 0.11729929E+06</totfact>
</mgrwt>
</event>
<event>
 4    1  0.4710515E-007  0.2001554E+02  0.7818608E-02  0.1745019E+00
          4   -1    0    0  501    0  0.00000000000E+00  0.00000000000E+00  0.10727958993E+01  0.17796884676E+01  0.14200000000E+01 0.  1.
         -4   -1    0    0    0  501 -0.00000000000E+00 -0.00000000000E+00 -0.69507349184E+02  0.69521852612E+02  0.14200000000E+01 0. -1.
        -13    1    1    2    0    0  0.99506197406E+01 -0.10397768710E+01 -0.34999993241E+02  0.36402014622E+02  0.10570000000E+00 0. -1.
         13    1    1    2    0    0 -0.99506197406E+01  0.10397768710E+01 -0.33434560043E+02  0.34899526457E+02  0.10570000000E+00 0.  1.
<mgrwt>
<rscale>  0 0.20015536E+02</rscale>
<asrwt>0</asrwt>
<pdfrwt beam="1">  1        4 0.22053758E-03 0.20015536E+02</pdfrwt>
<pdfrwt beam="2">  1       -4 0.10748928E-01 0.20015536E+02</pdfrwt>
<totfact> 0.10688426E+06</totfact>
</mgrwt>
</event>
<event>
 5    1  0.4710515E-007  0.2000233E+02  0.7818608E-02  0.1745282E+00
         -4   -1    0    0    0  501 -0.00000000000E+00  0.00000000000E+00  0.41317181384E+02  0.41341575653E+02  0.14200000000E+01 0.  1.
          4   -1    0    0  501    0  0.00000000000E+00 -0.00000000000E+00 -0.21852746616E+01  0.26061130725E+01  0.14200000000E+01 0. -1.
       1023    2    1    2    0    0  0.00000000000E+00  0.00000000000E+00  0.39131906722E+02  0.43947688726E+02  0.20002330380E+02 0.  0.
        -13    1    3    3    0    0  0.58825793416E+01  0.80874827908E+01  0.19574481615E+02  0.21981438092E+02  0.10570000000E+00 0. -1.
         13    1    3    3    0    0 -0.58825793416E+01 -0.80874827908E+01  0.19557425107E+02  0.21966250634E+02  0.10570000000E+00 0.  1.
<mgrwt>
<rscale>  0 0.20002330E+02</rscale>
<asrwt>0</asrwt>
<pdfrwt beam="2">  1        4 0.37044477E-03 0.20002330E+02</pdfrwt>
<pdfrwt beam="1">  1       -4 0.63907382E-02 0.20002330E+02</pdfrwt>
<totfact> 0.11779818E+06</totfact>
</mgrwt>
</event>
<event>
 4    1  0.4710515E-007  0.2011815E+02  0.7818608E-02  0.1742989E+00
         -4   -1    0    0    0  501 -0.00000000000E+00  0.00000000000E+00  0.35822982304E+02  0.35851115201E+02  0.14200000000E+01 0. -1.
          4   -1    0    0  501    0  0.00000000000E+00 -0.00000000000E+00 -0.26149291557E+01  0.29756099357E+01  0.14200000000E+01 0.  1.
        -13    1    1    2    0    0 -0.62285013923E+01  0.78974285112E+01  0.16409413253E+02  0.19246912025E+02  0.10570000000E+00 0.  1.
         13    1    1    2    0    0  0.62285013923E+01 -0.78974285112E+01  0.16798639895E+02  0.19579813112E+02  0.10570000000E+00 0. -1.
<mgrwt>
<rscale>  0 0.20118146E+02</rscale>
<asrwt>0</asrwt>
<pdfrwt beam="2">  1        4 0.43220554E-03 0.20118146E+02</pdfrwt>
<pdfrwt beam="1">  1       -4 0.55411368E-02 0.20118146E+02</pdfrwt>
<totfact> 0.11874980E+06</totfact>
</mgrwt>
</event>
<event>
 5    1  0.4710515E-007  0.2000177E+02  0.7818608E-02  0.1745293E+00
          4   -1    0    0  501    0  0.00000000000E+00  0.00000000000E+00  0.72073506923E+00  0.15924380804E+01  0.14200000000E+01 0. -1.
         -4   -1    0    0    0  501 -0.00000000000E+00 -0.00000000000E+00 -0.85596773034E+02  0.85608550706E+02  0.14200000000E+01 0.  1.
       1023    2    1    2    0    0  0.00000000000E+00  0.00000000000E+00 -0.84876037965E+02  0.87200988786E+02  0.20001765537E+02 0.  0.
        -13    1    3    3    0    0 -0.11645498268E+00  0.99995904175E+01 -0.42292548816E+02  0.43458902749E+02  0.10570000000E+00 0.  1.
         13    1    3    3    0    0  0.11645498268E+00 -0.99995904175E+01 -0.42583489149E+02  0.43742086037E+02  0.10570000000E+00 0. -1.
<mgrwt>
<rscale>  0 0.20001766E+02</rscale>
<asrwt>0</asrwt>
<pdfrwt beam="1">  1        4 0.17884244E-03 0.20001766E+02</pdfrwt>
<pdfrwt beam="2">  1       -4 0.13236689E-01 0.20001766E+02</pdfrwt>
<totfact> 0.10180004E+06</totfact>
</mgrwt>
</event>
<event>
 5    1  0.4710515E-007  0.2000366E+02  0.7818608E-02  0.1745255E+00
         -4   -1    0    0    0  501 -0.00000000000E+00  0.00000000000E+00  0.37737345589E+02  0.37764052379E+02  0.14200000000E+01 0. -1.
          4   -1    0    0  501    0  0.00000000000E+00 -0.00000000000E+00 -0.24309784770E+01  0.28153252664E+01  0.14200000000E+01 0.  1.
       1023    2    1    2    0    0  0.00000000000E+00  0.00000000000E+00  0.35306367112E+02  0.40579377646E+02  0.20003657952E+02 0.  0.
        -13    1    3    3    0    0 -0.10019320766E+01  0.99503626245E+01  0.17873789524E+02  0.20481628566E+02  0.10570000000E+00 0.  1.
         13    1    3    3    0    0  0.10019320766E+01 -0.99503626245E+01  0.17432577588E+02  0.20097749080E+02  0.10570000000E+00 0. -1.
<mgrwt>
<rscale>  0 0.20003658E+02</rscale>
<asrwt>0</asrwt>
<pdfrwt beam="2">  1        4 0.40561615E-03 0.20003658E+02</pdfrwt>
<pdfrwt beam="1">  1       -4 0.58373657E-02 0.20003658E+02</pdfrwt>
<totfact> 0.11931311E+06</totfact>
</mgrwt>
</event>
<event>
 5    1  0.4710515E-007  0.2000445E+02  0.7818608E-02  0.1745240E+00
          4   -1    0    0  501    0  0.00000000000E+00  0.00000000000E+00  0.13767251201E+01  0.19778200263E+01  0.14200000000E+01 0. -1.
         -4   -1    0    0    0  501 -0.00000000000E+00 -0.00000000000E+00 -0.59035959827E+02  0.59053035084E+02  0.14200000000E+01 0.  1.
       1023    2    1    2    0    0  0.00000000000E+00  0.00000000000E+00 -0.57659234707E+02  0.61030855111E+02  0.20004447720E+02 0.  0.
        -13    1    3    3    0    0  0.25052782597E+01 -0.96817526973E+01 -0.28392212348E+02  0.30102186780E+02  0.10570000000E+00 0. -1.
         13    1    3    3    0    0 -0.25052782597E+01  0.96817526973E+01 -0.29267022359E+02  0.30928668331E+02  0.10570000000E+00 0.  1.
<mgrwt>
<rscale>  0 0.20004448E+02</rscale>
<asrwt>0</asrwt>
<pdfrwt beam="1">  1        4 0.25935546E-03 0.20004448E+02</pdfrwt>
<pdfrwt beam="2">  1       -4 0.91300053E-02 0.20004448E+02</pdfrwt>
<totfact> 0.11074499E+06</totfact>
</mgrwt>
</event>
<event>
 5    1  0.4710515E-007  0.2000276E+02  0.7818608E-02  0.1745273E+00
          4   -1    0    0  501    0  0.00000000000E+00  0.00000000000E+00  0.64176162674E+02  0.64191870635E+02  0.14200000000E+01 0.  1.
         -4   -1    0    0    0  501 -0.00000000000E+00 -0.00000000000E+00 -0.12159383936E+01  0.18694668162E+01  0.14200000000E+01 0. -1.
       1023    2    1    2    0    0  0.00000000000E+00  0.00000000000E+00  0.62960224281E+02  0.66061337451E+02  0.20002761418E+02 0.  0.
        -13    1    3    3    0    0  0.95346656432E+01 -0.30174879368E+01  0.31601960960E+02  0.33146797604E+02  0.10570000000E+00 0. -1.
         13    1    3    3    0    0 -0.95346656432E+01  0.30174879368E+01  0.31358263320E+02  0.32914539847E+02  0.10570000000E+00 0.  1.
<mgrwt>
<rscale>  0 0.20002761E+02</rscale>
<asrwt>0</asrwt>
<pdfrwt beam="1">  1        4 0.99247345E-02 0.20002761E+02</pdfrwt>
<pdfrwt beam="2">  1       -4 0.23854719E-03 0.20002761E+02</pdfrwt>
<totfact> 0.10889079E+06</totfact>
</mgrwt>
</event>
<event>
 5    1  0.4710515E-007  0.2000643E+02  0.7818608E-02  0.1745200E+00
         -4   -1    0    0    0  501 -0.00000000000E+00  0.00000000000E+00  0.23910856875E+02  0.23952984709E+02  0.14200000000E+01 0. -1.
          4   -1    0    0  501    0  0.00000000000E+00 -0.00000000000E+00 -0.40171803628E+01  0.42607673097E+01  0.14200000000E+01 0.  1.
       1023    2    1    2    0    0  0.00000000000E+00  0.00000000000E+00  0.19893676512E+02  0.28213752019E+02  0.20006434911E+02 0.  0.
        -13    1    3    3    0    0  0.99722091821E+01 -0.74954196183E+00  0.10250670331E+02  0.14321109728E+02  0.10570000000E+00 0. -1.
         13    1    3    3    0    0 -0.99722091821E+01  0.74954196183E+00  0.96430061813E+01  0.13892642291E+02  0.10570000000E+00 0.  1.
<mgrwt>
<rscale>  0 0.20006435E+02</rscale>
<asrwt>0</asrwt>
<pdfrwt beam="2">  1        4 0.64000582E-03 0.20006435E+02</pdfrwt>
<pdfrwt beam="1">  1       -4 0.37005714E-02 0.20006435E+02</pdfrwt>
<totfact> 0.12541903E+06</totfact>
</mgrwt>
</event>
<event>
 5    1  0.4710515E-007  0.2000204E+02  0.7818608E-02  0.1745288E+00
         -4   -1    0    0    0  501 -0.00000000000E+00  0.00000000000E+00  0.84112268176E+02  0.84124253683E+02  0.14200000000E+01 0.  1.
          4   -1    0    0  501    0  0.00000000000E+00 -0.00000000000E+00 -0.74874702517E+00  0.16053105954E+01  0.14200000000E+01 0. -1.
       1023    2    1    2    0    0  0.00000000000E+00  0.00000000000E+00  0.83363521151E+02  0.85729564279E+02  0.20002038213E+02 0.  0.
        -13    1    3    3    0    0  0.51849200767E+01 -0.85510476869E+01  0.41996658863E+02  0.43170989575E+02  0.10570000000E+00 0. -1.
         13    1    3    3    0    0 -0.51849200767E+01  0.85510476869E+01  0.41366862288E+02  0.42558574703E+02  0.10570000000E+00 0.  1.
<mgrwt>
<rscale>  0 0.20002038E+02</rscale>
<asrwt>0</asrwt>
<pdfrwt beam="2">  1        4 0.18200327E-03 0.20002038E+02</pdfrwt>
<pdfrwt beam="1">  1       -4 0.13007164E-01 0.20002038E+02</pdfrwt>
<totfact> 0.10225660E+06</totfact>
</mgrwt>
</event>
<event>
 5    1  0.4710515E-007  0.2000128E+02  0.7818608E-02  0.1745303E+00
          4   -1    0    0  501    0  0.00000000000E+00  0.00000000000E+00  0.64673681991E+02  0.64689269143E+02  0.14200000000E+01 0.  1.
         -4   -1    0    0    0  501 -0.00000000000E+00 -0.00000000000E+00 -0.12012635432E+01  0.18599554027E+01  0.14200000000E+01 0. -1.
       1023    2    1    2    0    0  0.00000000000E+00  0.00000000000E+00  0.63472418448E+02  0.66549224546E+02  0.20001284560E+02 0.  0.
        -13    1    3    3    0    0  0.94207274033E+01  0.33542968414E+01  0.31682413453E+02  0.33223303671E+02  0.10570000000E+00 0.  1.
         13    1    3    3    0    0 -0.94207274033E+01 -0.33542968414E+01  0.31790004995E+02  0.33325920875E+02  0.10570000000E+00 0. -1.
<mgrwt>
<rscale>  0 0.20001285E+02</rscale>
<asrwt>0</asrwt>
<pdfrwt beam="1">  1        4 0.10001664E-01 0.20001285E+02</pdfrwt>
<pdfrwt beam="2">  1       -4 0.23667740E-03 0.20001285E+02</pdfrwt>
<totfact> 0.10872944E+06</totfact>
</mgrwt>
</event>
<event>
 4    1  0.4710515E-007  0.2017643E+02  0.7818608E-02  0.1741842E+00
         -4   -1    0    0    0  501 -0.00000000000E+00  0.00000000000E+00  0.38516573529E+02  0.38542740385E+02  0.14200000000E+01 0.  1.
          4   -1    0    0  501    0  0.00000000000E+00 -0.00000000000E+00 -0.24224024784E+01  0.28079233906E+01  0.14200000000E+01 0. -1.
        -13    1    1    2    0    0  0.91178721204E+01  0.42023563686E+01  0.16033305968E+02  0.18917543810E+02  0.10570000000E+00 0. -1.
         13    1    1    2    0    0 -0.91178721204E+01 -0.42023563686E+01  0.20060865082E+02  0.22433119966E+02  0.10570000000E+00 0.  1.
<mgrwt>
<rscale>  0 0.20176427E+02</rscale>
<asrwt>0</asrwt>
<pdfrwt beam="2">  1        4 0.40434560E-03 0.20176427E+02</pdfrwt>
<pdfrwt beam="1">  1       -4 0.59572950E-02 0.20176427E+02</pdfrwt>
<totfact> 0.11690371E+06</totfact>
</mgrwt>
</event>
<event>
 5    1  0.4791873E-007  0.2000212E+02  0.7818608E-02  0.1745286E+00
          4   -1    0    0  501    0  0.00000000000E+00  0.00000000000E+00  0.12623899641E+02  0.12703512985E+02  0.14200000000E+01 0. -1.
         -4   -1    0    0    0  501 -0.00000000000E+00 -0.00000000000E+00 -0.77539655595E+01  0.78829170932E+01  0.14200000000E+01 0.  1.
       1023    2    1    2    0    0  0.00000000000E+00  0.00000000000E+00  0.48699340819E+01  0.20586430078E+02  0.20002121023E+02 0.  0.
        -13    1    3    3    0    0  0.67341091302E+01 -0.73932140276E+01  0.23866990048E+01  0.10281796733E+02  0.10570000000E+00 0. -1.
         13    1    3    3    0    0 -0.67341091302E+01  0.73932140276E+01  0.24832350770E+01  0.10304633345E+02  0.10570000000E+00 0.  1.
<mgrwt>
<rscale>  0 0.20002121E+02</rscale>
<asrwt>0</asrwt>
<pdfrwt beam="1">  1        4 0.19581819E-02 0.20002121E+02</pdfrwt>
<pdfrwt beam="2">  1       -4 0.12089612E-02 0.20002121E+02</pdfrwt>
<totfact> 0.12976399E+06</totfact>
</mgrwt>
</event>
<event>
 4    1  0.4710515E-007  0.2002449E+02  0.7818608E-02  0.1744842E+00
          4   -1    0    0  501    0  0.00000000000E+00  0.00000000000E+00  0.72097973514E+02  0.72111955908E+02  0.14200000000E+01 0. -1.
         -4   -1    0    0    0  501 -0.00000000000E+00 -0.00000000000E+00 -0.10099615079E+01  0.17425332845E+01  0.14200000000E+01 0.  1.
        -13    1    1    2    0    0  0.25064155222E+01  0.96870941178E+01  0.34309987371E+02  0.35739450431E+02  0.10570000000E+00 0. -1.
         13    1    1    2    0    0 -0.25064155222E+01 -0.96870941178E+01  0.36778024635E+02  0.38115038761E+02  0.10570000000E+00 0.  1.
<mgrwt>
<rscale>  0 0.20024488E+02</rscale>
<asrwt>0</asrwt>
<pdfrwt beam="1">  1        4 0.11149426E-01 0.20024488E+02</pdfrwt>
<pdfrwt beam="2">  1       -4 0.21280589E-03 0.20024488E+02</pdfrwt>
<totfact> 0.10590759E+06</totfact>
</mgrwt>
</event>
<event>
 5    1  0.4710515E-007  0.2000369E+02  0.7818608E-02  0.1745255E+00
         -4   -1    0    0    0  501 -0.00000000000E+00  0.00000000000E+00  0.10498541405E+02  0.10594138551E+02  0.14200000000E+01 0. -1.
          4   -1    0    0  501    0  0.00000000000E+00 -0.00000000000E+00 -0.93359325315E+01  0.94433064248E+01  0.14200000000E+01 0.  1.
       1023    2    1    2    0    0  0.00000000000E+00  0.00000000000E+00  0.11626088738E+01  0.20037444976E+02  0.20003688204E+02 0.  0.
        -13    1    3    3    0    0 -0.90593465542E+01 -0.42344002749E+01  0.42674799788E+00  0.10009754843E+02  0.10570000000E+00 0. -1.
         13    1    3    3    0    0  0.90593465542E+01  0.42344002749E+01  0.73586087589E+00  0.10027690133E+02  0.10570000000E+00 0.  1.
<mgrwt>
<rscale>  0 0.20003688E+02</rscale>
<asrwt>0</asrwt>
<pdfrwt beam="2">  1        4 0.14519105E-02 0.20003688E+02</pdfrwt>
<pdfrwt beam="1">  1       -4 0.16307734E-02 0.20003688E+02</pdfrwt>
<totfact> 0.13006924E+06</totfact>
</mgrwt>
</event>
<event>
 5    1  0.4710515E-007  0.2000355E+02  0.7818608E-02  0.1745258E+00
          4   -1    0    0  501    0  0.00000000000E+00  0.00000000000E+00  0.36338285025E+00  0.14657581983E+01  0.14200000000E+01 0.  1.
         -4   -1    0    0    0  501 -0.00000000000E+00 -0.00000000000E+00 -0.10826988833E+03  0.10827919985E+03  0.14200000000E+01 0. -1.
       1023    2    1    2    0    0  0.00000000000E+00  0.00000000000E+00 -0.10790650548E+03  0.10974495804E+03  0.20003546960E+02 0.  0.
        -13    1    3    3    0    0 -0.77688730864E+00  0.99706478106E+01 -0.54409920628E+02  0.55321496788E+02  0.10570000000E+00 0.  1.
         13    1    3    3    0    0  0.77688730864E+00 -0.99706478106E+01 -0.53496584854E+02  0.54423461257E+02  0.10570000000E+00 0. -1.
<mgrwt>
<rscale>  0 0.20003547E+02</rscale>
<asrwt>0</asrwt>
<pdfrwt beam="1">  1        4 0.14141951E-03 0.20003547E+02</pdfrwt>
<pdfrwt beam="2">  1       -4 0.16742410E-01 0.20003547E+02</pdfrwt>
<totfact> 0.95287621E+05</totfact>
</mgrwt>
</event>
<event>
 5    1  0.4710515E-007  0.2000225E+02  0.7818608E-02  0.1745283E+00
          4   -1    0    0  501    0  0.00000000000E+00  0.00000000000E+00  0.68949926371E+02  0.68964547026E+02  0.14200000000E+01 0. -1.
         -4   -1    0    0    0  501 -0.00000000000E+00 -0.00000000000E+00 -0.10847593417E+01  0.17869255243E+01  0.14200000000E+01 0.  1.
       1023    2    1    2    0    0  0.00000000000E+00  0.00000000000E+00  0.67865167029E+02  0.70751472551E+02  0.20002249178E+02 0.  0.
        -13    1    3    3    0    0  0.57234914072E+01  0.82007876915E+01  0.33908100878E+02  0.35352252407E+02  0.10570000000E+00 0.  1.
         13    1    3    3    0    0 -0.57234914072E+01 -0.82007876915E+01  0.33957066151E+02  0.35399220143E+02  0.10570000000E+00 0. -1.
<mgrwt>
<rscale>  0 0.20002249E+02</rscale>
<asrwt>0</asrwt>
<pdfrwt beam="1">  1        4 0.10662817E-01 0.20002249E+02</pdfrwt>
<pdfrwt beam="2">  1       -4 0.22202353E-03 0.20002249E+02</pdfrwt>
<totfact> 0.10721932E+06</totfact>
</mgrwt>
</event>
<event>
 5    1  0.4710515E-007  0.2000174E+02  0.7818608E-02  0.1745293E+00
          4   -1    0    0  501    0  0.00000000000E+00  0.00000000000E+00  0.37761521703E+02  0.37788211406E+02  0.14200000000E+01 0.  1.
         -4   -1    0    0    0  501 -0.00000000000E+00 -0.00000000000E+00 -0.24286328117E+01  0.28133000789E+01  0.14200000000E+01 0. -1.
       1023    2    1    2    0    0  0.00000000000E+00  0.00000000000E+00  0.35332888891E+02  0.40601511485E+02  0.20001742362E+02 0.  0.
        -13    1    3    3    0    0  0.74351060157E+01  0.66876241327E+01  0.17734797604E+02  0.20360239108E+02  0.10570000000E+00 0.  1.
         13    1    3    3    0    0 -0.74351060157E+01 -0.66876241327E+01  0.17598091287E+02  0.20241272377E+02  0.10570000000E+00 0. -1.
<mgrwt>
<rscale>  0 0.20001742E+02</rscale>
<asrwt>0</asrwt>
<pdfrwt beam="1">  1        4 0.58411079E-02 0.20001742E+02</pdfrwt>
<pdfrwt beam="2">  1       -4 0.40527865E-03 0.20001742E+02</pdfrwt>
<totfact> 0.11932600E+06</totfact>
</mgrwt>
</event>
<event>
 4    1  0.4710515E-007  0.2012179E+02  0.7818608E-02  0.1742917E+00
         -4   -1    0    0    0  501 -0.00000000000E+00  0.00000000000E+00  0.78921124475E+00  0.16245782188E+01  0.14200000000E+01 0. -1.
          4   -1    0    0  501    0  0.00000000000E+00 -0.00000000000E+00 -0.83025889144E+02  0.83038031456E+02  0.14200000000E+01 0.  1.
        -13    1    1    2    0    0 -0.86469587270E+00  0.99733811364E+01 -0.45313984638E+02  0.46406728031E+02  0.10570000000E+00 0. -1.
         13    1    1    2    0    0  0.86469587270E+00 -0.99733811364E+01 -0.36922693260E+02  0.38255881644E+02  0.10570000000E+00 0.  1.
<mgrwt>
<rscale>  0 0.20121786E+02</rscale>
<asrwt>0</asrwt>
<pdfrwt beam="2">  1        4 0.12838402E-01 0.20121786E+02</pdfrwt>
<pdfrwt beam="1">  1       -4 0.18661020E-03 0.20121786E+02</pdfrwt>
<totfact> 0.10137381E+06</totfact>
</mgrwt>
</event>
<event>
 4    1  0.4710515E-007  0.2007775E+02  0.7818608E-02  0.1743786E+00
          4   -1    0    0  501    0  0.00000000000E+00  0.00000000000E+00  0.10982210146E+03  0.10983128138E+03  0.14200000000E+01 0. -1.
         -4   -1    0    0    0  501 -0.00000000000E+00 -0.00000000000E+00 -0.35349382321E+00  0.14633379251E+01  0.14200000000E+01 0.  1.
        -13    1    1    2    0    0  0.97006951345E+01 -0.25752450996E+01  0.53734822800E+02  0.54664227126E+02  0.10570000000E+00 0. -1.
         13    1    1    2    0    0 -0.97006951345E+01  0.25752450996E+01  0.55733784835E+02  0.56630392175E+02  0.10570000000E+00 0.  1.
<mgrwt>
<rscale>  0 0.20077755E+02</rscale>
<asrwt>0</asrwt>
<pdfrwt beam="1">  1        4 0.16981773E-01 0.20077755E+02</pdfrwt>
<pdfrwt beam="2">  1       -4 0.14046255E-03 0.20077755E+02</pdfrwt>
<totfact> 0.94177310E+05</totfact>
</mgrwt>
</event>
<event>
 4    1  0.4710515E-007  0.2002760E+02  0.7818608E-02  0.1744780E+00
          4   -1    0    0  501    0  0.00000000000E+00  0.00000000000E+00  0.12019748258E+02  0.12103336242E+02  0.14200000000E+01 0.  1.
         -4   -1    0    0    0  501 -0.00000000000E+00 -0.00000000000E+00 -0.81686566528E+01  0.82911610472E+01  0.14200000000E+01 0. -1.
        -13    1    1    2    0    0  0.70367156004E+01 -0.71225505710E+01  0.17855955035E+01  0.10170821839E+02  0.10570000000E+00 0. -1.
         13    1    1    2    0    0 -0.70367156004E+01  0.71225505710E+01  0.20654961014E+01  0.10223675450E+02  0.10570000000E+00 0.  1.
<mgrwt>
<rscale>  0 0.20027596E+02</rscale>
<asrwt>0</asrwt>
<pdfrwt beam="1">  1        4 0.18650453E-02 0.20027596E+02</pdfrwt>
<pdfrwt beam="2">  1       -4 0.12725697E-02 0.20027596E+02</pdfrwt>
<totfact> 0.12954060E+06</totfact>
</mgrwt>
</event>
<event>
 5    1  0.5399507E-007  0.2000151E+02  0.7818608E-02  0.1745298E+00
         -4   -1    0    0    0  501 -0.00000000000E+00  0.00000000000E+00  0.10004748179E+01  0.17370520606E+01  0.14200000000E+01 0.  1.
          4   -1    0    0  501    0  0.00000000000E+00 -0.00000000000E+00 -0.72324222869E+02  0.72338161530E+02  0.14200000000E+01 0. -1.
       1023    2    1    2    0    0  0.00000000000E+00  0.00000000000E+00 -0.71323748051E+02  0.74075213591E+02  0.20001505756E+02 0.  0.
        -13    1    3    3    0    0 -0.99988748190E+01  0.16121335888E+00 -0.35587967436E+02  0.36966445408E+02  0.10570000000E+00 0. -1.
         13    1    3    3    0    0  0.99988748190E+01 -0.16121335888E+00 -0.35735780615E+02  0.37108768182E+02  0.10570000000E+00 0.  1.
<mgrwt>
<rscale>  0 0.20001506E+02</rscale>
<asrwt>0</asrwt>
<pdfrwt beam="2">  1        4 0.11184533E-01 0.20001506E+02</pdfrwt>
<pdfrwt beam="1">  1       -4 0.21165125E-03 0.20001506E+02</pdfrwt>
<totfact> 0.10607623E+06</totfact>
</mgrwt>
</event>
<event>
 4    1  0.4710515E-007  0.2001873E+02  0.7818608E-02  0.1744956E+00
         -4   -1    0    0    0  501 -0.00000000000E+00  0.00000000000E+00  0.15591283098E+02  0.15655813893E+02  0.14200000000E+01 0. -1.
          4   -1    0    0  501    0  0.00000000000E+00 -0.00000000000E+00 -0.62684790539E+01  0.64273034508E+01  0.14200000000E+01 0.  1.
        -13    1    1    2    0    0  0.11432970629E+01  0.99394459306E+01  0.49664370133E+01  0.11170334940E+02  0.10570000000E+00 0. -1.
         13    1    1    2    0    0 -0.11432970629E+01 -0.99394459306E+01  0.43563670306E+01  0.10912782403E+02  0.10570000000E+00 0.  1.
<mgrwt>
<rscale>  0 0.20018726E+02</rscale>
<asrwt>0</asrwt>
<pdfrwt beam="2">  1        4 0.98156257E-03 0.20018726E+02</pdfrwt>
<pdfrwt beam="1">  1       -4 0.24158401E-02 0.20018726E+02</pdfrwt>
<totfact> 0.12866818E+06</totfact>
</mgrwt>
</event>
<event>
 5    1  0.4710515E-007  0.2000194E+02  0.7818608E-02  0.1745289E+00
         -4   -1    0    0    0  501 -0.00000000000E+00  0.00000000000E+00  0.59453144234E+00  0.15394374414E+01  0.14200000000E+01 0. -1.
          4   -1    0    0  501    0  0.00000000000E+00 -0.00000000000E+00 -0.92787535887E+02  0.92798400934E+02  0.14200000000E+01 0.  1.
       1023    2    1    2    0    0  0.00000000000E+00  0.00000000000E+00 -0.92193004444E+02  0.94337838375E+02  0.20001941928E+02 0.  0.
        -13    1    3    3    0    0 -0.93278824219E+01 -0.36043624380E+01 -0.45689994080E+02  0.46771653281E+02  0.10570000000E+00 0. -1.
         13    1    3    3    0    0  0.93278824219E+01  0.36043624380E+01 -0.46503010364E+02  0.47566185095E+02  0.10570000000E+00 0.  1.
<mgrwt>
<rscale>  0 0.20001942E+02</rscale>
<asrwt>0</asrwt>
<pdfrwt beam="2">  1        4 0.14348520E-01 0.20001942E+02</pdfrwt>
<pdfrwt beam="1">  1       -4 0.16498730E-03 0.20001942E+02</pdfrwt>
<totfact> 0.99636021E+05</totfact>
</mgrwt>
</event>
<event>
 5    1  0.4710515E-007  0.2000495E+02  0.7818608E-02  0.1745230E+00
          4   -1    0    0  501    0  0.00000000000E+00  0.00000000000E+00  0.14208031139E+02  0.14278814686E+02  0.14200000000E+01 0. -1.
         -4   -1    0    0    0  501 -0.00000000000E+00 -0.00000000000E+00 -0.68807957545E+01  0.70257917856E+01  0.14200000000E+01 0.  1.
       1023    2    1    2    0    0  0.00000000000E+00  0.00000000000E+00  0.73272353845E+01  0.21304606472E+02  0.20004946352E+02 0.  0.
        -13    1    3    3    0    0 -0.99674841088E+01 -0.82891533958E+00  0.36863852585E+01  0.10660133623E+02  0.10570000000E+00 0. -1.
         13    1    3    3    0    0  0.99674841088E+01  0.82891533958E+00  0.36408501260E+01  0.10644472849E+02  0.10570000000E+00 0.  1.
<mgrwt>
<rscale>  0 0.20004946E+02</rscale>
<asrwt>0</asrwt>
<pdfrwt beam="1">  1        4 0.22024494E-02 0.20004946E+02</pdfrwt>
<pdfrwt beam="2">  1       -4 0.10751824E-02 0.20004946E+02</pdfrwt>
<totfact> 0.12930293E+06</totfact>
</mgrwt>
</event>
<event>
 5    1  0.4710515E-007  0.2000306E+02  0.7818608E-02  0.1745267E+00
         -4   -1    0    0    0  501 -0.00000000000E+00  0.00000000000E+00  0.66392707208E+01  0.67894267582E+01  0.14200000000E+01 0.  1.
          4   -1    0    0  501    0  0.00000000000E+00 -0.00000000000E+00 -0.14713320116E+02  0.14781684235E+02  0.14200000000E+01 0. -1.
       1023    2    1    2    0    0  0.00000000000E+00  0.00000000000E+00 -0.80740493949E+01  0.21571110993E+02  0.20003063662E+02 0.  0.
        -13    1    3    3    0    0 -0.44196289997E+01  0.89707434389E+01 -0.41556874977E+01  0.10829970887E+02  0.10570000000E+00 0. -1.
         13    1    3    3    0    0  0.44196289997E+01 -0.89707434389E+01 -0.39183618972E+01  0.10741140107E+02  0.10570000000E+00 0.  1.
<mgrwt>
<rscale>  0 0.20003064E+02</rscale>
<asrwt>0</asrwt>
<pdfrwt beam="2">  1        4 0.22803969E-02 0.20003064E+02</pdfrwt>
<pdfrwt beam="1">  1       -4 0.10382355E-02 0.20003064E+02</pdfrwt>
<totfact> 0.12917170E+06</totfact>
</mgrwt>
</event>
<event>
 5    1  0.4729241E-007  0.2000188E+02  0.7818608E-02  0.1745291E+00
          4   -1    0    0  501    0  0.00000000000E+00  0.00000000000E+00  0.77066875214E+01  0.78364170736E+01  0.14200000000E+01 0. -1.
         -4   -1    0    0    0  501 -0.00000000000E+00 -0.00000000000E+00 -0.12700227220E+02  0.12779365064E+02  0.14200000000E+01 0.  1.
       1023    2    1    2    0    0  0.00000000000E+00  0.00000000000E+00 -0.49935396986E+01  0.20615782138E+02  0.20001875773E+02 0.  0.
        -13    1    3    3    0    0  0.88387344448E+01 -0.46777947906E+01 -0.25492788205E+01  0.10320609753E+02  0.10570000000E+00 0.  1.
         13    1    3    3    0    0 -0.88387344448E+01  0.46777947906E+01 -0.24442608781E+01  0.10295172384E+02  0.10570000000E+00 0. -1.
<mgrwt>
<rscale>  0 0.20001876E+02</rscale>
<asrwt>0</asrwt>
<pdfrwt beam="1">  1        4 0.12017110E-02 0.20001876E+02</pdfrwt>
<pdfrwt beam="2">  1       -4 0.19699478E-02 0.20001876E+02</pdfrwt>
<totfact> 0.12974990E+06</totfact>
</mgrwt>
</event>
<event>
 5    1  0.4710515E-007  0.2000395E+02  0.7818608E-02  0.1745250E+00
         -4   -1    0    0    0  501 -0.00000000000E+00  0.00000000000E+00  0.29100327459E+01  0.32380071931E+01  0.14200000000E+01 0. -1.
          4   -1    0    0  501    0  0.00000000000E+00 -0.00000000000E+00 -0.32199077502E+02  0.32230373749E+02  0.14200000000E+01 0.  1.
       1023    2    1    2    0    0  0.00000000000E+00  0.00000000000E+00 -0.29289044756E+02  0.35468380942E+02  0.20003947208E+02 0.  0.
        -13    1    3    3    0    0  0.97389498720E+01 -0.22710111883E+01 -0.14917293140E+02  0.17959438843E+02  0.10570000000E+00 0.  1.
         13    1    3    3    0    0 -0.97389498720E+01  0.22710111883E+01 -0.14371751616E+02  0.17508942099E+02  0.10570000000E+00 0. -1.
<mgrwt>
<rscale>  0 0.20003947E+02</rscale>
<asrwt>0</asrwt>
<pdfrwt beam="2">  1        4 0.49813402E-02 0.20003947E+02</pdfrwt>
<pdfrwt beam="1">  1       -4 0.47533358E-03 0.20003947E+02</pdfrwt>
<totfact> 0.12174105E+06</totfact>
</mgrwt>
</event>
<event>
 5    1  0.4710515E-007  0.2000143E+02  0.7818608E-02  0.1745300E+00
         -4   -1    0    0    0  501 -0.00000000000E+00  0.00000000000E+00  0.91551314233E+00  0.16895455939E+01  0.14200000000E+01 0.  1.
          4   -1    0    0  501    0  0.00000000000E+00 -0.00000000000E+00 -0.76002042547E+02  0.76015306822E+02  0.14200000000E+01 0. -1.
       1023    2    1    2    0    0  0.00000000000E+00  0.00000000000E+00 -0.75086529404E+02  0.77704852416E+02  0.20001429724E+02 0.  0.
        -13    1    3    3    0    0  0.83736699918E+01 -0.54666784172E+01 -0.37598645998E+02  0.38905941389E+02  0.10570000000E+00 0. -1.
         13    1    3    3    0    0 -0.83736699918E+01  0.54666784172E+01 -0.37487883407E+02  0.38798911027E+02  0.10570000000E+00 0.  1.
<mgrwt>
<rscale>  0 0.20001430E+02</rscale>
<asrwt>0</asrwt>
<pdfrwt beam="2">  1        4 0.11753180E-01 0.20001430E+02</pdfrwt>
<pdfrwt beam="1">  1       -4 0.20140952E-03 0.20001430E+02</pdfrwt>
<totfact> 0.10485328E+06</totfact>
</mgrwt>
</event>
<event>
 5    1  0.4710515E-007  0.2000163E+02  0.7818608E-02  0.1745296E+00
          4   -1    0    0  501    0  0.00000000000E+00  0.00000000000E+00  0.85575215655E+02  0.85586996293E+02  0.14200000000E+01 0. -1.
         -4   -1    0    0    0  501 -0.00000000000E+00 -0.00000000000E+00 -0.72111469383E+00  0.15926099339E+01  0.14200000000E+01 0.  1.
       1023    2    1    2    0    0  0.00000000000E+00  0.00000000000E+00  0.84854100961E+02  0.87179606226E+02  0.20001632231E+02 0.  0.
        -13    1    3    3    0    0  0.36705455494E+01  0.93021674542E+01  0.42235741751E+02  0.43403597520E+02  0.10570000000E+00 0.  1.
         13    1    3    3    0    0 -0.36705455494E+01 -0.93021674542E+01  0.42618359210E+02  0.43776008706E+02  0.10570000000E+00 0. -1.
<mgrwt>
<rscale>  0 0.20001632E+02</rscale>
<asrwt>0</asrwt>
<pdfrwt beam="1">  1        4 0.13233364E-01 0.20001632E+02</pdfrwt>
<pdfrwt beam="2">  1       -4 0.17888500E-03 0.20001632E+02</pdfrwt>
<totfact> 0.10180803E+06</totfact>
</mgrwt>
</event>
<event>
 4    1  0.4710515E-007  0.2003928E+02  0.7818608E-02  0.1744548E+00
         -4   -1    0    0    0  501 -0.00000000000E+00  0.00000000000E+00  0.42945111813E+02  0.42968581878E+02  0.14200000000E+01 0. -1.
          4   -1    0    0  501    0  0.00000000000E+00 -0.00000000000E+00 -0.20956503915E+01  0.25314325121E+01  0.14200000000E+01 0.  1.
        -13    1    1    2    0    0  0.79643613426E+01  0.60538195837E+01  0.19176455115E+02  0.21629317752E+02  0.10570000000E+00 0.  1.
         13    1    1    2    0    0 -0.79643613426E+01 -0.60538195837E+01  0.21673006306E+02  0.23870696638E+02  0.10570000000E+00 0. -1.
<mgrwt>
<rscale>  0 0.20039282E+02</rscale>
<asrwt>0</asrwt>
<pdfrwt beam="2">  1        4 0.35773487E-03 0.20039282E+02</pdfrwt>
<pdfrwt beam="1">  1       -4 0.66422670E-02 0.20039282E+02</pdfrwt>
<totfact> 0.11667399E+06</totfact>
</mgrwt>
</event>
<event>
 4    1  0.4710515E-007  0.2015443E+02  0.7818608E-02  0.1742274E+00
          4   -1    0    0  501    0  0.00000000000E+00  0.00000000000E+00  0.49322059435E+01  0.51325486329E+01  0.14200000000E+01 0.  1.
         -4   -1    0    0    0  501 -0.00000000000E+00 -0.00000000000E+00 -0.19953298909E+02  0.20003763080E+02  0.14200000000E+01 0. -1.
        -13    1    1    2    0    0 -0.94218592001E+01  0.33719028444E+01 -0.89851298040E+01  0.13449345325E+02  0.10570000000E+00 0.  1.
         13    1    1    2    0    0  0.94218592001E+01 -0.33719028444E+01 -0.60359631619E+01  0.11686966388E+02  0.10570000000E+00 0. -1.
<mgrwt>
<rscale>  0 0.20154427E+02</rscale>
<asrwt>0</asrwt>
<pdfrwt beam="1">  1        4 0.77809376E-03 0.20154427E+02</pdfrwt>
<pdfrwt beam="2">  1       -4 0.30890311E-02 0.20154427E+02</pdfrwt>
<totfact> 0.12520153E+06</totfact>
</mgrwt>
</event>
<event>
 5    1  0.4710515E-007  0.2000864E+02  0.7818608E-02  0.1745156E+00
         -4   -1    0    0    0  501 -0.00000000000E+00  0.00000000000E+00  0.10078713148E+02  0.10178254208E+02  0.14200000000E+01 0.  1.
          4   -1    0    0  501    0  0.00000000000E+00 -0.00000000000E+00 -0.97303480940E+01  0.98334161933E+01  0.14200000000E+01 0. -1.
       1023    2    1    2    0    0  0.00000000000E+00  0.00000000000E+00  0.34836505389E+00  0.20011670401E+02  0.20008637985E+02 0.  0.
        -13    1    3    3    0    0 -0.94871183997E+01  0.31727117566E+01  0.23510641809E+00  0.10006895769E+02  0.10570000000E+00 0. -1.
         13    1    3    3    0    0  0.94871183997E+01 -0.31727117566E+01  0.11325863581E+00  0.10004774632E+02  0.10570000000E+00 0.  1.
<mgrwt>
<rscale>  0 0.20008638E+02</rscale>
<asrwt>0</asrwt>
<pdfrwt beam="2">  1        4 0.15125619E-02 0.20008638E+02</pdfrwt>
<pdfrwt beam="1">  1       -4 0.15661566E-02 0.20008638E+02</pdfrwt>
<totfact> 0.13001882E+06</totfact>
</mgrwt>
</event>
<event>
 5    1  0.5157681E-007  0.2000122E+02  0.7818608E-02  0.1745304E+00
         -4   -1    0    0    0  501 -0.00000000000E+00  0.00000000000E+00  0.17820765645E+02  0.17877250577E+02  0.14200000000E+01 0.  1.
          4   -1    0    0  501    0  0.00000000000E+00 -0.00000000000E+00 -0.54557223915E+01  0.56374911808E+01  0.14200000000E+01 0. -1.
       1023    2    1    2    0    0  0.00000000000E+00  0.00000000000E+00  0.12365043254E+02  0.23514741757E+02  0.20001219594E+02 0.  0.
        -13    1    3    3    0    0  0.99995970417E+01 -0.95151724962E-01  0.61761930618E+01  0.11754043052E+02  0.10570000000E+00 0. -1.
         13    1    3    3    0    0 -0.99995970417E+01  0.95151724962E-01  0.61888501919E+01  0.11760698705E+02  0.10570000000E+00 0.  1.
<mgrwt>
<rscale>  0 0.20001220E+02</rscale>
<asrwt>0</asrwt>
<pdfrwt beam="2">  1        4 0.85766910E-03 0.20001220E+02</pdfrwt>
<pdfrwt beam="1">  1       -4 0.27599835E-02 0.20001220E+02</pdfrwt>
<totfact> 0.12807637E+06</totfact>
</mgrwt>
</event>
<event>
 5    1  0.4710515E-007  0.2000642E+02  0.7818608E-02  0.1745200E+00
          4   -1    0    0  501    0  0.00000000000E+00  0.00000000000E+00  0.27188025067E+01  0.30672931178E+01  0.14200000000E+01 0.  1.
         -4   -1    0    0    0  501 -0.00000000000E+00 -0.00000000000E+00 -0.34223727151E+02  0.34253173577E+02  0.14200000000E+01 0. -1.
       1023    2    1    2    0    0  0.00000000000E+00  0.00000000000E+00 -0.31504924644E+02  0.37320466695E+02  0.20006422906E+02 0.  0.
        -13    1    3    3    0    0  0.70746488841E+01 -0.70695256386E+01 -0.16042757901E+02  0.18905292993E+02  0.10570000000E+00 0. -1.
         13    1    3    3    0    0 -0.70746488841E+01  0.70695256386E+01 -0.15462166743E+02  0.18415173702E+02  0.10570000000E+00 0.  1.
<mgrwt>
<rscale>  0 0.20006423E+02</rscale>
<asrwt>0</asrwt>
<pdfrwt beam="1">  1        4 0.44734941E-03 0.20006423E+02</pdfrwt>
<pdfrwt beam="2">  1       -4 0.52942606E-02 0.20006423E+02</pdfrwt>
<totfact> 0.12081337E+06</totfact>
</mgrwt>
</event>
<event>
 4    1  0.4710515E-007  0.2001442E+02  0.7818608E-02  0.1745041E+00
         -4   -1    0    0    0  501 -0.00000000000E+00  0.00000000000E+00  0.11225792554E+01  0.18101337478E+01  0.14200000000E+01 0. -1.
          4   -1    0    0  501    0  0.00000000000E+00 -0.00000000000E+00 -0.67597855609E+02  0.67612768639E+02  0.14200000000E+01 0.  1.
        -13    1    1    2    0    0 -0.88656148903E+01 -0.46402433397E+01 -0.33396372970E+02  0.34863446268E+02  0.10570000000E+00 0. -1.
         13    1    1    2    0    0  0.88656148903E+01  0.46402433397E+01 -0.33078903384E+02  0.34559456118E+02  0.10570000000E+00 0.  1.
<mgrwt>
<rscale>  0 0.20014420E+02</rscale>
<asrwt>0</asrwt>
<pdfrwt beam="2">  1        4 0.10453704E-01 0.20014420E+02</pdfrwt>
<pdfrwt beam="1">  1       -4 0.22674052E-03 0.20014420E+02</pdfrwt>
<totfact> 0.10755650E+06</totfact>
</mgrwt>
</event>
<event>
 5    1  0.4710515E-007  0.2000150E+02  0.7818608E-02  0.1745298E+00
         -4   -1    0    0    0  501 -0.00000000000E+00  0.00000000000E+00  0.22110739894E+02  0.22156290725E+02  0.14200000000E+01 0. -1.
          4   -1    0    0  501    0  0.00000000000E+00 -0.00000000000E+00 -0.43603472783E+01  0.45857418579E+01  0.14200000000E+01 0.  1.
       1023    2    1    2    0    0  0.00000000000E+00  0.00000000000E+00  0.17750392616E+02  0.26742032583E+02  0.20001496660E+02 0.  0.
        -13    1    3    3    0    0  0.84170131567E+01  0.53997233339E+01  0.89098579813E+01  0.13394023455E+02  0.10570000000E+00 0. -1.
         13    1    3    3    0    0 -0.84170131567E+01 -0.53997233339E+01  0.88405346347E+01  0.13348009128E+02  0.10570000000E+00 0.  1.
<mgrwt>
<rscale>  0 0.20001497E+02</rscale>
<asrwt>0</asrwt>
<pdfrwt beam="2">  1        4 0.69166461E-03 0.20001497E+02</pdfrwt>
<pdfrwt beam="1">  1       -4 0.34224943E-02 0.20001497E+02</pdfrwt>
<totfact> 0.12627606E+06</totfact>
</mgrwt>
</event>
<event>
 5    1  0.4710515E-007  0.2000622E+02  0.7818608E-02  0.1745204E+00
          4   -1    0    0  501    0  0.00000000000E+00  0.00000000000E+00  0.11546746523E+01  0.18302113410E+01  0.14200000000E+01 0.  1.
         -4   -1    0    0    0  501 -0.00000000000E+00 -0.00000000000E+00 -0.66361070129E+02  0.66376261032E+02  0.14200000000E+01 0. -1.
       1023    2    1    2    0    0  0.00000000000E+00  0.00000000000E+00 -0.65206395477E+02  0.68206472373E+02  0.20006220597E+02 0.  0.
        -13    1    3    3    0    0 -0.78061186533E+00  0.99719774503E+01 -0.32477747957E+02  0.33983304342E+02  0.10570000000E+00 0. -1.
         13    1    3    3    0    0  0.78061186533E+00 -0.99719774503E+01 -0.32728647520E+02  0.34223168032E+02  0.10570000000E+00 0.  1.
<mgrwt>
<rscale>  0 0.20006221E+02</rscale>
<asrwt>0</asrwt>
<pdfrwt beam="1">  1        4 0.23077520E-03 0.20006221E+02</pdfrwt>
<pdfrwt beam="2">  1       -4 0.10262526E-01 0.20006221E+02</pdfrwt>
<totfact> 0.10807829E+06</totfact>
</mgrwt>
</event>
<event>
 5    1  0.4710515E-007  0.2000548E+02  0.7818608E-02  0.1745219E+00
          4   -1    0    0  501    0  0.00000000000E+00  0.00000000000E+00  0.10973023892E+03  0.10973942653E+03  0.14200000000E+01 0.  1.
         -4   -1    0    0    0  501 -0.00000000000E+00 -0.00000000000E+00 -0.34406329108E+00  0.14610884806E+01  0.14200000000E+01 0. -1.
       1023    2    1    2    0    0  0.00000000000E+00  0.00000000000E+00  0.10938617563E+03  0.11120051501E+03  0.20005477205E+02 0.  0.
        -13    1    3    3    0    0 -0.92933031868E+01  0.36982783621E+01  0.54856104351E+02  0.55760614272E+02  0.10570000000E+00 0. -1.
         13    1    3    3    0    0  0.92933031868E+01 -0.36982783621E+01  0.54530071283E+02  0.55439900735E+02  0.10570000000E+00 0.  1.
<mgrwt>
<rscale>  0 0.20005477E+02</rscale>
<asrwt>0</asrwt>
<pdfrwt beam="1">  1        4 0.16968210E-01 0.20005477E+02</pdfrwt>
<pdfrwt beam="2">  1       -4 0.13956454E-03 0.20005477E+02</pdfrwt>
<totfact> 0.94881338E+05</totfact>
</mgrwt>
</event>
<event>
 5    1  0.4710515E-007  0.2000548E+02  0.7818608E-02  0.1745219E+00
          4   -1    0    0  501    0  0.00000000000E+00  0.00000000000E+00  0.81364461849E+02  0.81376852065E+02  0.14200000000E+01 0.  1.
         -4   -1    0    0    0  501 -0.00000000000E+00 -0.00000000000E+00 -0.80304796907E+00  0.16313448564E+01  0.14200000000E+01 0. -1.
       1023    2    1    2    0    0  0.00000000000E+00  0.00000000000E+00  0.80561413880E+02  0.83008196921E+02  0.20005482993E+02 0.  0.
        -13    1    3    3    0    0 -0.98511406373E+01  0.17242385405E+01  0.39615598451E+02  0.40858594978E+02  0.10570000000E+00 0.  1.
         13    1    3    3    0    0  0.98511406373E+01 -0.17242385405E+01  0.40945815429E+02  0.42149601944E+02  0.10570000000E+00 0. -1.
<mgrwt>
<rscale>  0 0.20005483E+02</rscale>
<asrwt>0</asrwt>
<pdfrwt beam="1">  1        4 0.12582278E-01 0.20005483E+02</pdfrwt>
<pdfrwt beam="2">  1       -4 0.18821408E-03 0.20005483E+02</pdfrwt>
<totfact> 0.10308264E+06</totfact>
</mgrwt>
</event>
<event>
 4    1  0.4710515E-007  0.2001533E+02  0.7818608E-02  0.1745023E+00
          4   -1    0    0  501    0  0.00000000000E+00  0.00000000000E+00  0.24371402463E+02  0.24412735570E+02  0.14200000000E+01 0. -1.
         -4   -1    0    0    0  501 -0.00000000000E+00 -0.00000000000E+00 -0.39405173742E+01  0.41885650498E+01  0.14200000000E+01 0.  1.
        -13    1    1    2    0    0  0.47274226832E-02  0.10003809121E+02  0.98484972764E+01  0.14038528783E+02  0.10570000000E+00 0.  1.
         13    1    1    2    0    0 -0.47274226832E-02 -0.10003809121E+02  0.10582387813E+02  0.14562771838E+02  0.10570000000E+00 0. -1.
<mgrwt>
<rscale>  0 0.20015327E+02</rscale>
<asrwt>0</asrwt>
<pdfrwt beam="1">  1        4 0.37717066E-02 0.20015327E+02</pdfrwt>
<pdfrwt beam="2">  1       -4 0.62849350E-03 0.20015327E+02</pdfrwt>
<totfact> 0.12509948E+06</totfact>
</mgrwt>
</event>
<event>
 4    1  0.4710515E-007  0.2001670E+02  0.7818608E-02  0.1744996E+00
          4   -1    0    0  501    0  0.00000000000E+00  0.00000000000E+00  0.89657138755E+02  0.89668383111E+02  0.14200000000E+01 0. -1.
         -4   -1    0    0    0  501 -0.00000000000E+00 -0.00000000000E+00 -0.65004553876E+00  0.15617167485E+01  0.14200000000E+01 0.  1.
        -13    1    1    2    0    0  0.69722293021E+01  0.71788897171E+01  0.44108630831E+02  0.45229757078E+02  0.10570000000E+00 0.  1.
         13    1    1    2    0    0 -0.69722293021E+01 -0.71788897171E+01  0.44898462385E+02  0.46000342782E+02  0.10570000000E+00 0. -1.
<mgrwt>
<rscale>  0 0.20016705E+02</rscale>
<asrwt>0</asrwt>
<pdfrwt beam="1">  1        4 0.13864401E-01 0.20016705E+02</pdfrwt>
<pdfrwt beam="2">  1       -4 0.17100049E-03 0.20016705E+02</pdfrwt>
<totfact> 0.10041631E+06</totfact>
</mgrwt>
</event>
<event>
 5    1  0.5103311E-007  0.2000126E+02  0.7818608E-02  0.1745303E+00
         -4   -1    0    0    0  501 -0.00000000000E+00  0.00000000000E+00  0.72502989819E+01  0.73880467870E+01  0.14200000000E+01 0.  1.
          4   -1    0    0  501    0  0.00000000000E+00 -0.00000000000E+00 -0.13489095919E+02  0.13563631840E+02  0.14200000000E+01 0. -1.
       1023    2    1    2    0    0  0.00000000000E+00  0.00000000000E+00 -0.62387969366E+01  0.20951678627E+02  0.20001256213E+02 0.  0.
        -13    1    3    3    0    0 -0.57449470127E+01 -0.81850938388E+01 -0.31558771242E+01  0.10486701590E+02  0.10570000000E+00 0.  1.
         13    1    3    3    0    0  0.57449470127E+01  0.81850938388E+01 -0.30829198124E+01  0.10464977037E+02  0.10570000000E+00 0. -1.
<mgrwt>
<rscale>  0 0.20001256E+02</rscale>
<asrwt>0</asrwt>
<pdfrwt beam="2">  1        4 0.20915750E-02 0.20001256E+02</pdfrwt>
<pdfrwt beam="1">  1       -4 0.11317601E-02 0.20001256E+02</pdfrwt>
<totfact> 0.12955943E+06</totfact>
</mgrwt>
</event>
<event>
 5    1  0.4710515E-007  0.2000616E+02  0.7818608E-02  0.1745206E+00
          4   -1    0    0  501    0  0.00000000000E+00  0.00000000000E+00  0.22850312402E+02  0.22894391821E+02  0.14200000000E+01 0.  1.
         -4   -1    0    0    0  501 -0.00000000000E+00 -0.00000000000E+00 -0.42141904352E+01  0.44469991033E+01  0.14200000000E+01 0. -1.
       1023    2    1    2    0    0  0.00000000000E+00  0.00000000000E+00  0.18636121966E+02  0.27341390924E+02  0.20006164443E+02 0.  0.
        -13    1    3    3    0    0 -0.94682603081E+01 -0.32240011012E+01  0.94429062240E+01  0.13755791028E+02  0.10570000000E+00 0.  1.
         13    1    3    3    0    0  0.94682603081E+01  0.32240011012E+01  0.91932157424E+01  0.13585599896E+02  0.10570000000E+00 0. -1.
<mgrwt>
<rscale>  0 0.20006164E+02</rscale>
<asrwt>0</asrwt>
<pdfrwt beam="1">  1        4 0.35367318E-02 0.20006164E+02</pdfrwt>
<pdfrwt beam="2">  1       -4 0.66963607E-03 0.20006164E+02</pdfrwt>
<totfact> 0.12589105E+06</totfact>
</mgrwt>
</event>
<event>
 5    1  0.4710515E-007  0.2000569E+02  0.7818608E-02  0.1745215E+00
         -4   -1    0    0    0  501 -0.00000000000E+00  0.00000000000E+00  0.29442910751E+02  0.29477133400E+02  0.14200000000E+01 0.  1.
          4   -1    0    0  501    0  0.00000000000E+00 -0.00000000000E+00 -0.32121153635E+01  0.35119916156E+01  0.14200000000E+01 0. -1.
       1023    2    1    2    0    0  0.00000000000E+00  0.00000000000E+00  0.26230795388E+02  0.32989125016E+02  0.20005692756E+02 0.  0.
        -13    1    3    3    0    0 -0.50100048971E+01  0.86566007295E+01  0.12960025735E+02  0.16371020884E+02  0.10570000000E+00 0. -1.
         13    1    3    3    0    0  0.50100048971E+01 -0.86566007295E+01  0.13270769653E+02  0.16618104132E+02  0.10570000000E+00 0.  1.
<mgrwt>
<rscale>  0 0.20005693E+02</rscale>
<asrwt>0</asrwt>
<pdfrwt beam="2">  1        4 0.51987151E-03 0.20005693E+02</pdfrwt>
<pdfrwt beam="1">  1       -4 0.45553785E-02 0.20005693E+02</pdfrwt>
<totfact> 0.12295146E+06</totfact>
</mgrwt>
</event>
<event>
 4    1  0.4710515E-007  0.2002220E+02  0.7818608E-02  0.1744887E+00
         -4   -1    0    0    0  501 -0.00000000000E+00  0.00000000000E+00  0.85946048319E+01  0.87111211802E+01  0.14200000000E+01 0. -1.
          4   -1    0    0  501    0  0.00000000000E+00 -0.00000000000E+00 -0.11421764021E+02  0.11509695624E+02  0.14200000000E+01 0.  1.
        -13    1    1    2    0    0  0.51512174449E+01  0.85830787205E+01 -0.13309338123E+01  0.10098853340E+02  0.10570000000E+00 0.  1.
         13    1    1    2    0    0 -0.51512174449E+01 -0.85830787205E+01 -0.14962253767E+01  0.10121963463E+02  0.10570000000E+00 0. -1.
<mgrwt>
<rscale>  0 0.20022203E+02</rscale>
<asrwt>0</asrwt>
<pdfrwt beam="2">  1        4 0.17729212E-02 0.20022203E+02</pdfrwt>
<pdfrwt beam="1">  1       -4 0.13379737E-02 0.20022203E+02</pdfrwt>
<totfact> 0.12971489E+06</totfact>
</mgrwt>
</event>
<event>
 5    1  0.4710515E-007  0.2000243E+02  0.7818608E-02  0.1745280E+00
          4   -1    0    0  501    0  0.00000000000E+00  0.00000000000E+00  0.14829522076E+01  0.20531797900E+01  0.14200000000E+01 0. -1.
         -4   -1    0    0    0  501 -0.00000000000E+00 -0.00000000000E+00 -0.55992012750E+02  0.56010015996E+02  0.14200000000E+01 0.  1.
       1023    2    1    2    0    0  0.00000000000E+00  0.00000000000E+00 -0.54509060543E+02  0.58063195786E+02  0.20002425443E+02 0.  0.
        -13    1    3    3    0    0 -0.80549689426E+01 -0.59264383670E+01 -0.27512325502E+02  0.29273613091E+02  0.10570000000E+00 0. -1.
         13    1    3    3    0    0  0.80549689426E+01  0.59264383670E+01 -0.26996735041E+02  0.28789582695E+02  0.10570000000E+00 0.  1.
<mgrwt>
<rscale>  0 0.20002425E+02</rscale>
<asrwt>0</asrwt>
<pdfrwt beam="1">  1        4 0.27339506E-03 0.20002425E+02</pdfrwt>
<pdfrwt beam="2">  1       -4 0.86594030E-02 0.20002425E+02</pdfrwt>
<totfact> 0.11191039E+06</totfact>
</mgrwt>
</event>
<event>
 4    1  0.4710515E-007  0.2004768E+02  0.7818608E-02  0.1744382E+00
          4   -1    0    0  501    0  0.00000000000E+00  0.00000000000E+00  0.50874645803E+00  0.15083842211E+01  0.14200000000E+01 0. -1.
         -4   -1    0    0    0  501 -0.00000000000E+00 -0.00000000000E+00 -0.98616727646E+02  0.98626950534E+02  0.14200000000E+01 0.  1.
        -13    1    1    2    0    0 -0.99193935484E+01  0.13769933277E+01 -0.46960483028E+02  0.48016545250E+02  0.10570000000E+00 0.  1.
         13    1    1    2    0    0  0.99193935484E+01 -0.13769933277E+01 -0.51147498160E+02  0.52118789505E+02  0.10570000000E+00 0. -1.
<mgrwt>
<rscale>  0 0.20047676E+02</rscale>
<asrwt>0</asrwt>
<pdfrwt beam="1">  1        4 0.15595035E-03 0.20047676E+02</pdfrwt>
<pdfrwt beam="2">  1       -4 0.15249478E-01 0.20047676E+02</pdfrwt>
<totfact> 0.97509567E+05</totfact>
</mgrwt>
</event>
<event>
 5    1  0.4710515E-007  0.2000500E+02  0.7818608E-02  0.1745229E+00
          4   -1    0    0  501    0  0.00000000000E+00  0.00000000000E+00  0.34461384781E+00  0.14612182260E+01  0.14200000000E+01 0. -1.
         -4   -1    0    0    0  501 -0.00000000000E+00 -0.00000000000E+00 -0.10968360294E+03  0.10969279445E+03  0.14200000000E+01 0.  1.
       1023    2    1    2    0    0  0.00000000000E+00  0.00000000000E+00 -0.10933898909E+03  0.11115401267E+03  0.20004999323E+02 0.  0.
        -13    1    3    3    0    0 -0.77233745672E+01  0.63529936420E+01 -0.55595651370E+02  0.56488040032E+02  0.10570000000E+00 0.  1.
         13    1    3    3    0    0  0.77233745672E+01 -0.63529936420E+01 -0.53743337719E+02  0.54665972639E+02  0.10570000000E+00 0. -1.
<mgrwt>
<rscale>  0 0.20004999E+02</rscale>
<asrwt>0</asrwt>
<pdfrwt beam="1">  1        4 0.13961729E-03 0.20004999E+02</pdfrwt>
<pdfrwt beam="2">  1       -4 0.16960990E-01 0.20004999E+02</pdfrwt>
<totfact> 0.94898216E+05</totfact>
</mgrwt>
</event>
<event>
 5    1  0.4710515E-007  0.2000305E+02  0.7818608E-02  0.1745267E+00
         -4   -1    0    0    0  501 -0.00000000000E+00  0.00000000000E+00  0.99025541177E+01  0.10003848162E+02  0.14200000000E+01 0. -1.
          4   -1    0    0  501    0  0.00000000000E+00 -0.00000000000E+00 -0.98978656476E+01  0.99992071875E+01  0.14200000000E+01 0.  1.
       1023    2    1    2    0    0  0.00000000000E+00  0.00000000000E+00  0.46884701653E-02  0.20003055350E+02  0.20003054800E+02 0.  0.
        -13    1    3    3    0    0 -0.50314261240E+01  0.86426237113E+01  0.98179464292E-01  0.10001550137E+02  0.10570000000E+00 0.  1.
         13    1    3    3    0    0  0.50314261240E+01 -0.86426237113E+01 -0.93490994127E-01  0.10001505212E+02  0.10570000000E+00 0. -1.
<mgrwt>
<rscale>  0 0.20003055E+02</rscale>
<asrwt>0</asrwt>
<pdfrwt beam="2">  1        4 0.15383359E-02 0.20003055E+02</pdfrwt>
<pdfrwt beam="1">  1       -4 0.15390572E-02 0.20003055E+02</pdfrwt>
<totfact> 0.13009805E+06</totfact>
</mgrwt>
</event>
<event>
 5    1  0.4710515E-007  0.2000308E+02  0.7818608E-02  0.1745267E+00
          4   -1    0    0  501    0  0.00000000000E+00  0.00000000000E+00  0.42929628517E+02  0.42953107043E+02  0.14200000000E+01 0.  1.
         -4   -1    0    0    0  501 -0.00000000000E+00 -0.00000000000E+00 -0.20873253924E+01  0.25245449676E+01  0.14200000000E+01 0.  1.
       1023    2    1    2    0    0  0.00000000000E+00  0.00000000000E+00  0.40842303125E+02  0.45477652010E+02  0.20003077459E+02 0.  0.
        -13    1    3    3    0    0 -0.84967584252E+01  0.52742048714E+01  0.20224734815E+02  0.22562429204E+02  0.10570000000E+00 0. -1.
         13    1    3    3    0    0  0.84967584252E+01 -0.52742048714E+01  0.20617568310E+02  0.22915222806E+02  0.10570000000E+00 0.  1.
<mgrwt>
<rscale>  0 0.20003077E+02</rscale>
<asrwt>0</asrwt>
<pdfrwt beam="1">  1        4 0.66399964E-02 0.20003077E+02</pdfrwt>
<pdfrwt beam="2">  1       -4 0.35656531E-03 0.20003077E+02</pdfrwt>
<totfact> 0.11711097E+06</totfact>
</mgrwt>
</event>
<event>
 5    1  0.4710515E-007  0.2000207E+02  0.7818608E-02  0.1745287E+00
         -4   -1    0    0    0  501 -0.00000000000E+00  0.00000000000E+00  0.25584255284E+02  0.25623632030E+02  0.14200000000E+01 0. -1.
          4   -1    0    0  501    0  0.00000000000E+00 -0.00000000000E+00 -0.37366190046E+01  0.39973393132E+01  0.14200000000E+01 0.  1.
       1023    2    1    2    0    0  0.00000000000E+00  0.00000000000E+00  0.21847636279E+02  0.29620971343E+02  0.20002068202E+02 0.  0.
        -13    1    3    3    0    0  0.76326378661E+01 -0.64611305049E+01  0.10807755231E+02  0.14724880774E+02  0.10570000000E+00 0.  1.
         13    1    3    3    0    0 -0.76326378661E+01  0.64611305049E+01  0.11039881049E+02  0.14896090569E+02  0.10570000000E+00 0. -1.
<mgrwt>
<rscale>  0 0.20002068E+02</rscale>
<asrwt>0</asrwt>
<pdfrwt beam="2">  1        4 0.59794886E-03 0.20002068E+02</pdfrwt>
<pdfrwt beam="1">  1       -4 0.39591236E-02 0.20002068E+02</pdfrwt>
<totfact> 0.12472963E+06</totfact>
</mgrwt>
</event>
<event>
 4    1  0.4710515E-007  0.2002697E+02  0.7818608E-02  0.1744792E+00
         -4   -1    0    0    0  501 -0.00000000000E+00  0.00000000000E+00  0.89200398497E+01  0.90323591005E+01  0.14200000000E+01 0. -1.
          4   -1    0    0  501    0  0.00000000000E+00 -0.00000000000E+00 -0.11012446299E+02  0.11103619837E+02  0.14200000000E+01 0.  1.
        -13    1    1    2    0    0  0.41658748808E+01 -0.91044970281E+01 -0.93460987273E+00  0.10056393377E+02  0.10570000000E+00 0. -1.
         13    1    1    2    0    0 -0.41658748808E+01  0.91044970281E+01 -0.11577965761E+01  0.10079585560E+02  0.10570000000E+00 0.  1.
<mgrwt>
<rscale>  0 0.20026969E+02</rscale>
<asrwt>0</asrwt>
<pdfrwt beam="2">  1        4 0.17098758E-02 0.20026969E+02</pdfrwt>
<pdfrwt beam="1">  1       -4 0.13879671E-02 0.20026969E+02</pdfrwt>
<totfact> 0.12970236E+06</totfact>
</mgrwt>
</event>
<event>
 5    1  0.4866468E-007  0.2000206E+02  0.7818608E-02  0.1745287E+00
          4   -1    0    0  501    0  0.00000000000E+00  0.00000000000E+00  0.15691333877E+02  0.15755454891E+02  0.14200000000E+01 0.  1.
         -4   -1    0    0    0  501 -0.00000000000E+00 -0.00000000000E+00 -0.62169242875E+01  0.63770328207E+01  0.14200000000E+01 0. -1.
       1023    2    1    2    0    0  0.00000000000E+00  0.00000000000E+00  0.94744095894E+01  0.22132487712E+02  0.20002064275E+02 0.  0.
        -13    1    3    3    0    0  0.41695692837E+01  0.90896562051E+01  0.46839842297E+01  0.11043461355E+02  0.10570000000E+00 0. -1.
         13    1    3    3    0    0 -0.41695692837E+01 -0.90896562051E+01  0.47904253597E+01  0.11089026357E+02  0.10570000000E+00 0.  1.
<mgrwt>
<rscale>  0 0.20002064E+02</rscale>
<asrwt>0</asrwt>
<pdfrwt beam="1">  1        4 0.24312997E-02 0.20002064E+02</pdfrwt>
<pdfrwt beam="2">  1       -4 0.97369834E-03 0.20002064E+02</pdfrwt>
<totfact> 0.12885828E+06</totfact>
</mgrwt>
</event>
<event>
 4    1  0.4710515E-007  0.2001693E+02  0.7818608E-02  0.1744992E+00
         -4   -1    0    0    0  501 -0.00000000000E+00  0.00000000000E+00  0.24583717199E+02  0.24624693934E+02  0.14200000000E+01 0.  1.
          4   -1    0    0  501    0  0.00000000000E+00 -0.00000000000E+00 -0.39050656565E+01  0.41552301720E+01  0.14200000000E+01 0. -1.
        -13    1    1    2    0    0 -0.10255745638E+01 -0.99508200028E+01  0.99138886750E+01  0.14084281418E+02  0.10570000000E+00 0. -1.
         13    1    1    2    0    0  0.10255745638E+01  0.99508200028E+01  0.10764762868E+02  0.14695642688E+02  0.10570000000E+00 0.  1.
<mgrwt>
<rscale>  0 0.20016928E+02</rscale>
<asrwt>0</asrwt>
<pdfrwt beam="2">  1        4 0.62317482E-03 0.20016928E+02</pdfrwt>
<pdfrwt beam="1">  1       -4 0.38045058E-02 0.20016928E+02</pdfrwt>
<totfact> 0.12498445E+06</totfact>
</mgrwt>
</event>
<event>
 5    1  0.4710515E-007  0.2000268E+02  0.7818608E-02  0.1745275E+00
          4   -1    0    0  501    0  0.00000000000E+00  0.00000000000E+00  0.19095970323E+02  0.19148694017E+02  0.14200000000E+01 0. -1.
         -4   -1    0    0    0  501 -0.00000000000E+00 -0.00000000000E+00 -0.50806772614E+01  0.52753844821E+01  0.14200000000E+01 0.  1.
       1023    2    1    2    0    0  0.00000000000E+00  0.00000000000E+00  0.14015293062E+02  0.24424078500E+02  0.20002679094E+02 0.  0.
        -13    1    3    3    0    0  0.97408317148E+01 -0.22641870743E+01  0.70963267146E+01  0.12262926687E+02  0.10570000000E+00 0. -1.
         13    1    3    3    0    0 -0.97408317148E+01  0.22641870743E+01  0.69189663469E+01  0.12161151812E+02  0.10570000000E+00 0.  1.
<mgrwt>
<rscale>  0 0.20002679E+02</rscale>
<asrwt>0</asrwt>
<pdfrwt beam="1">  1        4 0.29568748E-02 0.20002679E+02</pdfrwt>
<pdfrwt beam="2">  1       -4 0.80067579E-03 0.20002679E+02</pdfrwt>
<totfact> 0.12754390E+06</totfact>
</mgrwt>
</event>
<event>
 5    1  0.4818823E-007  0.2000237E+02  0.7818608E-02  0.1745281E+00
          4   -1    0    0  501    0  0.00000000000E+00  0.00000000000E+00  0.74529067750E+01  0.75869769603E+01  0.14200000000E+01 0.  1.
         -4   -1    0    0    0  501 -0.00000000000E+00 -0.00000000000E+00 -0.13128433154E+02  0.13205005001E+02  0.14200000000E+01 0. -1.
       1023    2    1    2    0    0  0.00000000000E+00  0.00000000000E+00 -0.56755263793E+01  0.20791981962E+02  0.20002372715E+02 0.  0.
        -13    1    3    3    0    0  0.27677108095E+01 -0.96096772159E+01 -0.27543667539E+01  0.10373226500E+02  0.10570000000E+00 0. -1.
         13    1    3    3    0    0 -0.27677108095E+01  0.96096772159E+01 -0.29211596254E+01  0.10418755461E+02  0.10570000000E+00 0.  1.
<mgrwt>
<rscale>  0 0.20002373E+02</rscale>
<asrwt>0</asrwt>
<pdfrwt beam="1">  1        4 0.11628043E-02 0.20002373E+02</pdfrwt>
<pdfrwt beam="2">  1       -4 0.20359622E-02 0.20002373E+02</pdfrwt>
<totfact> 0.12963913E+06</totfact>
</mgrwt>
</event>
<event>
 5    1  0.5563297E-007  0.2000123E+02  0.7818608E-02  0.1745304E+00
         -4   -1    0    0    0  501 -0.00000000000E+00  0.00000000000E+00  0.40916160868E+01  0.43310186102E+01  0.14200000000E+01 0.  1.
          4   -1    0    0  501    0  0.00000000000E+00 -0.00000000000E+00 -0.23486993842E+02  0.23529880572E+02  0.14200000000E+01 0. -1.
       1023    2    1    2    0    0  0.00000000000E+00  0.00000000000E+00 -0.19395377755E+02  0.27860899182E+02  0.20001225587E+02 0.  0.
        -13    1    3    3    0    0 -0.85596997131E+01  0.51703178209E+01 -0.97268482358E+01  0.13950748892E+02  0.10570000000E+00 0. -1.
         13    1    3    3    0    0  0.85596997131E+01 -0.51703178209E+01 -0.96685295196E+01  0.13910150291E+02  0.10570000000E+00 0.  1.
<mgrwt>
<rscale>  0 0.20001226E+02</rscale>
<asrwt>0</asrwt>
<pdfrwt beam="2">  1        4 0.36350981E-02 0.20001226E+02</pdfrwt>
<pdfrwt beam="1">  1       -4 0.65119397E-03 0.20001226E+02</pdfrwt>
<totfact> 0.12567446E+06</totfact>
</mgrwt>
</event>
<event>
 5    1  0.4714447E-007  0.2000140E+02  0.7818608E-02  0.1745300E+00
         -4   -1    0    0    0  501 -0.00000000000E+00  0.00000000000E+00  0.66806097035E+02  0.66821186767E+02  0.14200000000E+01 0.  1.
          4   -1    0    0  501    0  0.00000000000E+00 -0.00000000000E+00 -0.11415828820E+01  0.18219800977E+01  0.14200000000E+01 0. -1.
       1023    2    1    2    0    0  0.00000000000E+00  0.00000000000E+00  0.65664514153E+02  0.68643166865E+02  0.20001398410E+02 0.  0.
        -13    1    3    3    0    0 -0.99752212527E+01  0.70509680046E+00  0.32747386391E+02  0.34240395565E+02  0.10570000000E+00 0. -1.
         13    1    3    3    0    0  0.99752212527E+01 -0.70509680046E+00  0.32917127762E+02  0.34402771300E+02  0.10570000000E+00 0.  1.
<mgrwt>
<rscale>  0 0.20001398E+02</rscale>
<asrwt>0</asrwt>
<pdfrwt beam="2">  1        4 0.22912719E-03 0.20001398E+02</pdfrwt>
<pdfrwt beam="1">  1       -4 0.10331358E-01 0.20001398E+02</pdfrwt>
<totfact> 0.10797449E+06</totfact>
</mgrwt>
</event>
<event>
 5    1  0.4738345E-007  0.2000189E+02  0.7818608E-02  0.1745290E+00
          4   -1    0    0  501    0  0.00000000000E+00  0.00000000000E+00  0.29131162290E+01  0.32407786354E+01  0.14200000000E+01 0. -1.
         -4   -1    0    0    0  501 -0.00000000000E+00 -0.00000000000E+00 -0.32161734236E+02  0.32193066786E+02  0.14200000000E+01 0.  1.
       1023    2    1    2    0    0  0.00000000000E+00  0.00000000000E+00 -0.29248618007E+02  0.35433845421E+02  0.20001893561E+02 0.  0.
        -13    1    3    3    0    0 -0.79953021517E+01 -0.60067513081E+01 -0.14700427649E+02  0.17779754310E+02  0.10570000000E+00 0. -1.
         13    1    3    3    0    0  0.79953021517E+01  0.60067513081E+01 -0.14548190358E+02  0.17654091111E+02  0.10570000000E+00 0.  1.
<mgrwt>
<rscale>  0 0.20001894E+02</rscale>
<asrwt>0</asrwt>
<pdfrwt beam="1">  1        4 0.47578675E-03 0.20001894E+02</pdfrwt>
<pdfrwt beam="2">  1       -4 0.49755739E-02 0.20001894E+02</pdfrwt>
<totfact> 0.12178331E+06</totfact>
</mgrwt>
</event>
<event>
 5    1  0.4710515E-007  0.2000255E+02  0.7818608E-02  0.1745277E+00
         -4   -1    0    0    0  501 -0.00000000000E+00  0.00000000000E+00  0.52484658006E+01  0.54371677609E+01  0.14200000000E+01 0.  1.
          4   -1    0    0  501    0  0.00000000000E+00 -0.00000000000E+00 -0.18505099756E+02  0.18559502067E+02  0.14200000000E+01 0. -1.
       1023    2    1    2    0    0  0.00000000000E+00  0.00000000000E+00 -0.13256633955E+02  0.23996669828E+02  0.20002545313E+02 0.  0.
        -13    1    3    3    0    0 -0.84864902388E+01 -0.52908239145E+01 -0.65913793958E+01  0.11977929249E+02  0.10570000000E+00 0. -1.
         13    1    3    3    0    0  0.84864902388E+01  0.52908239145E+01 -0.66652545593E+01  0.12018740579E+02  0.10570000000E+00 0.  1.
<mgrwt>
<rscale>  0 0.20002545E+02</rscale>
<asrwt>0</asrwt>
<pdfrwt beam="2">  1        4 0.28656387E-02 0.20002545E+02</pdfrwt>
<pdfrwt beam="1">  1       -4 0.82615662E-03 0.20002545E+02</pdfrwt>
<totfact> 0.12778634E+06</totfact>
</mgrwt>
</event>
<event>
 4    1  0.4710515E-007  0.2002573E+02  0.7818608E-02  0.1744817E+00
         -4   -1    0    0    0  501 -0.00000000000E+00  0.00000000000E+00  0.32183983790E+01  0.35177390645E+01  0.14200000000E+01 0. -1.
          4   -1    0    0  501    0  0.00000000000E+00 -0.00000000000E+00 -0.29449842900E+02  0.29484057503E+02  0.14200000000E+01 0.  1.
        -13    1    1    2    0    0 -0.92812317336E+01  0.37554681712E+01 -0.13051947963E+02  0.16450207348E+02  0.10570000000E+00 0.  1.
         13    1    1    2    0    0  0.92812317336E+01 -0.37554681712E+01 -0.13179496559E+02  0.16551589220E+02  0.10570000000E+00 0. -1.
<mgrwt>
<rscale>  0 0.20025731E+02</rscale>
<asrwt>0</asrwt>
<pdfrwt beam="2">  1        4 0.45564030E-02 0.20025731E+02</pdfrwt>
<pdfrwt beam="1">  1       -4 0.52079633E-03 0.20025731E+02</pdfrwt>
<totfact> 0.12269549E+06</totfact>
</mgrwt>
</event>
<event>
 5    1  0.4710515E-007  0.2000253E+02  0.7818608E-02  0.1745278E+00
         -4   -1    0    0    0  501 -0.00000000000E+00  0.00000000000E+00  0.39227910780E+02  0.39253603454E+02  0.14200000000E+01 0. -1.
          4   -1    0    0  501    0  0.00000000000E+00 -0.00000000000E+00 -0.23234757885E+01  0.27230386959E+01  0.14200000000E+01 0.  1.
       1023    2    1    2    0    0  0.00000000000E+00  0.00000000000E+00  0.36904434991E+02  0.41976642150E+02  0.20002528945E+02 0.  0.
        -13    1    3    3    0    0  0.97119178459E+01 -0.23836015991E+01  0.18229990011E+02  0.20792946234E+02  0.10570000000E+00 0.  1.
         13    1    3    3    0    0 -0.97119178459E+01  0.23836015991E+01  0.18674444981E+02  0.21183695916E+02  0.10570000000E+00 0. -1.
<mgrwt>
<rscale>  0 0.20002529E+02</rscale>
<asrwt>0</asrwt>
<pdfrwt beam="2">  1        4 0.39016980E-03 0.20002529E+02</pdfrwt>
<pdfrwt beam="1">  1       -4 0.60677749E-02 0.20002529E+02</pdfrwt>
<totfact> 0.11868552E+06</totfact>
</mgrwt>
</event>
<event>
 5    1  0.4710515E-007  0.2000233E+02  0.7818608E-02  0.1745282E+00
         -4   -1    0    0    0  501 -0.00000000000E+00  0.00000000000E+00  0.88030789610E+01  0.89168716035E+01  0.14200000000E+01 0. -1.
          4   -1    0    0  501    0  0.00000000000E+00 -0.00000000000E+00 -0.11130153041E+02  0.11220370168E+02  0.14200000000E+01 0.  1.
       1023    2    1    2    0    0  0.00000000000E+00  0.00000000000E+00 -0.23270740797E+01  0.20137241772E+02  0.20002330674E+02 0.  0.
        -13    1    3    3    0    0 -0.17005667738E+01  0.98543608439E+01 -0.10542664317E+01  0.10055993496E+02  0.10570000000E+00 0. -1.
         13    1    3    3    0    0  0.17005667738E+01 -0.98543608439E+01 -0.12728076480E+01  0.10081248276E+02  0.10570000000E+00 0.  1.
<mgrwt>
<rscale>  0 0.20002331E+02</rscale>
<asrwt>0</asrwt>
<pdfrwt beam="2">  1        4 0.17280243E-02 0.20002331E+02</pdfrwt>
<pdfrwt beam="1">  1       -4 0.13700129E-02 0.20002331E+02</pdfrwt>
<totfact> 0.13002797E+06</totfact>
</mgrwt>
</event>
<event>
 5    1  0.4710515E-007  0.2000894E+02  0.7818608E-02  0.1745150E+00
         -4   -1    0    0    0  501 -0.00000000000E+00  0.00000000000E+00  0.22412680051E+02  0.22457618464E+02  0.14200000000E+01 0. -1.
          4   -1    0    0  501    0  0.00000000000E+00 -0.00000000000E+00 -0.43020762446E+01  0.45303708473E+01  0.14200000000E+01 0.  1.
       1023    2    1    2    0    0  0.00000000000E+00  0.00000000000E+00  0.18110603806E+02  0.26987989311E+02  0.20008937924E+02 0.  0.
        -13    1    3    3    0    0 -0.64712427940E+01  0.76288508783E+01  0.89968553250E+01  0.13454773400E+02  0.10570000000E+00 0. -1.
         13    1    3    3    0    0  0.64712427940E+01 -0.76288508783E+01  0.91137484815E+01  0.13533215911E+02  0.10570000000E+00 0.  1.
<mgrwt>
<rscale>  0 0.20008938E+02</rscale>
<asrwt>0</asrwt>
<pdfrwt beam="2">  1        4 0.68287582E-03 0.20008938E+02</pdfrwt>
<pdfrwt beam="1">  1       -4 0.34691225E-02 0.20008938E+02</pdfrwt>
<totfact> 0.12604684E+06</totfact>
</mgrwt>
</event>
<event>
 5    1  0.4710515E-007  0.2000581E+02  0.7818608E-02  0.1745213E+00
          4   -1    0    0  501    0  0.00000000000E+00  0.00000000000E+00  0.98532631503E+01  0.99550587497E+01  0.14200000000E+01 0.  1.
         -4   -1    0    0    0  501 -0.00000000000E+00 -0.00000000000E+00 -0.99501683689E+01  0.10050982567E+02  0.14200000000E+01 0. -1.
       1023    2    1    2    0    0  0.00000000000E+00  0.00000000000E+00 -0.96905218528E-01  0.20006041317E+02  0.20005806621E+02 0.  0.
        -13    1    3    3    0    0  0.58745217735E+01 -0.80954768114E+01 -0.60752291557E-01  0.10003080236E+02  0.10570000000E+00 0.  1.
         13    1    3    3    0    0 -0.58745217735E+01  0.80954768114E+01 -0.36152926971E-01  0.10002961081E+02  0.10570000000E+00 0. -1.
<mgrwt>
<rscale>  0 0.20005807E+02</rscale>
<asrwt>0</asrwt>
<pdfrwt beam="1">  1        4 0.15314720E-02 0.20005807E+02</pdfrwt>
<pdfrwt beam="2">  1       -4 0.15463805E-02 0.20005807E+02</pdfrwt>
<totfact> 0.13005974E+06</totfact>
</mgrwt>
</event>
<event>
 4    1  0.4710515E-007  0.2016229E+02  0.7818608E-02  0.1742120E+00
         -4   -1    0    0    0  501 -0.00000000000E+00  0.00000000000E+00  0.55348511758E+02  0.55366724247E+02  0.14200000000E+01 0. -1.
          4   -1    0    0  501    0  0.00000000000E+00 -0.00000000000E+00 -0.15402714589E+01  0.20949549320E+01  0.14200000000E+01 0.  1.
        -13    1    1    2    0    0  0.26897830881E+01  0.96619069022E+01  0.24010448225E+02  0.26021148601E+02  0.10570000000E+00 0.  1.
         13    1    1    2    0    0 -0.26897830881E+01 -0.96619069022E+01  0.29797792074E+02  0.31440530578E+02  0.10570000000E+00 0. -1.
<mgrwt>
<rscale>  0 0.20162288E+02</rscale>
<asrwt>0</asrwt>
<pdfrwt beam="2">  1        4 0.28103378E-03 0.20162288E+02</pdfrwt>
<pdfrwt beam="1">  1       -4 0.85592240E-02 0.20162288E+02</pdfrwt>
<totfact> 0.11036066E+06</totfact>
</mgrwt>
</event>
<event>
 5    1  0.4710515E-007  0.2000143E+02  0.7818608E-02  0.1745300E+00
          4   -1    0    0  501    0  0.00000000000E+00  0.00000000000E+00  0.32203594906E+01  0.35195333851E+01  0.14200000000E+01 0. -1.
         -4   -1    0    0    0  501 -0.00000000000E+00 -0.00000000000E+00 -0.29361223992E+02  0.29395541742E+02  0.14200000000E+01 0.  1.
       1023    2    1    2    0    0  0.00000000000E+00  0.00000000000E+00 -0.26140864502E+02  0.32915075127E+02  0.20001434292E+02 0.  0.
        -13    1    3    3    0    0  0.53525744459E+01  0.84470084764E+01 -0.13014250060E+02  0.16412918159E+02  0.10570000000E+00 0. -1.
         13    1    3    3    0    0 -0.53525744459E+01 -0.84470084764E+01 -0.13126614442E+02  0.16502156968E+02  0.10570000000E+00 0.  1.
<mgrwt>
<rscale>  0 0.20001434E+02</rscale>
<asrwt>0</asrwt>
<pdfrwt beam="1">  1        4 0.52109315E-03 0.20001434E+02</pdfrwt>
<pdfrwt beam="2">  1       -4 0.45427644E-02 0.20001434E+02</pdfrwt>
<totfact> 0.12304197E+06</totfact>
</mgrwt>
</event>
<event>
 5    1  0.4710515E-007  0.2000560E+02  0.7818608E-02  0.1745217E+00
         -4   -1    0    0    0  501 -0.00000000000E+00  0.00000000000E+00  0.92366933154E+02  0.92377847671E+02  0.14200000000E+01 0.  1.
          4   -1    0    0  501    0  0.00000000000E+00 -0.00000000000E+00 -0.60210018861E+00  0.15423762956E+01  0.14200000000E+01 0. -1.
       1023    2    1    2    0    0  0.00000000000E+00  0.00000000000E+00  0.91764832966E+02  0.93920223967E+02  0.20005596735E+02 0.  0.
        -13    1    3    3    0    0 -0.61620933392E+01  0.78765362711E+01  0.45022059683E+02  0.46119499657E+02  0.10570000000E+00 0. -1.
         13    1    3    3    0    0  0.61620933392E+01 -0.78765362711E+01  0.46742773282E+02  0.47800724310E+02  0.10570000000E+00 0.  1.
<mgrwt>
<rscale>  0 0.20005597E+02</rscale>
<asrwt>0</asrwt>
<pdfrwt beam="2">  1        4 0.16579933E-03 0.20005597E+02</pdfrwt>
<pdfrwt beam="1">  1       -4 0.14283464E-01 0.20005597E+02</pdfrwt>
<totfact> 0.99723243E+05</totfact>
</mgrwt>
</event>
<event>
 4    1  0.4710515E-007  0.2010341E+02  0.7818608E-02  0.1743279E+00
         -4   -1    0    0    0  501 -0.00000000000E+00  0.00000000000E+00  0.16576177816E+02  0.16636888861E+02  0.14200000000E+01 0. -1.
          4   -1    0    0  501    0  0.00000000000E+00 -0.00000000000E+00 -0.59396035593E+01  0.61069870182E+01  0.14200000000E+01 0.  1.
        -13    1    1    2    0    0 -0.97384397625E+01 -0.23475196032E+01  0.43870289491E+01  0.10936418645E+02  0.10570000000E+00 0. -1.
         13    1    1    2    0    0  0.97384397625E+01  0.23475196032E+01  0.62495453075E+01  0.11807457234E+02  0.10570000000E+00 0.  1.
<mgrwt>
<rscale>  0 0.20103412E+02</rscale>
<asrwt>0</asrwt>
<pdfrwt beam="2">  1        4 0.93133092E-03 0.20103412E+02</pdfrwt>
<pdfrwt beam="1">  1       -4 0.25677269E-02 0.20103412E+02</pdfrwt>
<totfact> 0.12718744E+06</totfact>
</mgrwt>
</event>
<event>
 5    1  0.4710515E-007  0.2001124E+02  0.7818608E-02  0.1745105E+00
         -4   -1    0    0    0  501 -0.00000000000E+00  0.00000000000E+00  0.11416680329E+02  0.11504650787E+02  0.14200000000E+01 0.  1.
          4   -1    0    0  501    0  0.00000000000E+00 -0.00000000000E+00 -0.85888187923E+01  0.87054125834E+01  0.14200000000E+01 0. -1.
       1023    2    1    2    0    0  0.00000000000E+00  0.00000000000E+00  0.28278615364E+01  0.20210063370E+02  0.20011243354E+02 0.  0.
        -13    1    3    3    0    0  0.90913234353E+01  0.41706479736E+01  0.16504073690E+01  0.10138120304E+02  0.10570000000E+00 0. -1.
         13    1    3    3    0    0 -0.90913234353E+01 -0.41706479736E+01  0.11774541675E+01  0.10071943066E+02  0.10570000000E+00 0.  1.
<mgrwt>
<rscale>  0 0.20011243E+02</rscale>
<asrwt>0</asrwt>
<pdfrwt beam="2">  1        4 0.13370924E-02 0.20011243E+02</pdfrwt>
<pdfrwt beam="1">  1       -4 0.17721481E-02 0.20011243E+02</pdfrwt>
<totfact> 0.12986636E+06</totfact>
</mgrwt>
</event>
<event>
 5    1  0.4710515E-007  0.2000315E+02  0.7818608E-02  0.1745266E+00
         -4   -1    0    0    0  501 -0.00000000000E+00  0.00000000000E+00  0.94202199839E+00  0.17040555875E+01  0.14200000000E+01 0. -1.
          4   -1    0    0  501    0  0.00000000000E+00 -0.00000000000E+00 -0.74836648377E+02  0.74850119173E+02  0.14200000000E+01 0.  1.
       1023    2    1    2    0    0  0.00000000000E+00  0.00000000000E+00 -0.73894626378E+02  0.76554174761E+02  0.20003146396E+02 0.  0.
        -13    1    3    3    0    0 -0.99849957630E+01 -0.56057182251E+00 -0.37241597163E+02  0.38561147713E+02  0.10570000000E+00 0. -1.
         13    1    3    3    0    0  0.99849957630E+01  0.56057182251E+00 -0.36653029215E+02  0.37993027048E+02  0.10570000000E+00 0.  1.
<mgrwt>
<rscale>  0 0.20003146E+02</rscale>
<asrwt>0</asrwt>
<pdfrwt beam="2">  1        4 0.11572981E-01 0.20003146E+02</pdfrwt>
<pdfrwt beam="1">  1       -4 0.20458070E-03 0.20003146E+02</pdfrwt>
<totfact> 0.10521946E+06</totfact>
</mgrwt>
</event>
<event>
 5    1  0.4710515E-007  0.2000177E+02  0.7818608E-02  0.1745293E+00
          4   -1    0    0  501    0  0.00000000000E+00  0.00000000000E+00  0.68144202366E+02  0.68158995856E+02  0.14200000000E+01 0. -1.
         -4   -1    0    0    0  501 -0.00000000000E+00 -0.00000000000E+00 -0.11057468784E+01  0.17997433592E+01  0.14200000000E+01 0.  1.
       1023    2    1    2    0    0  0.00000000000E+00  0.00000000000E+00  0.67038455487E+02  0.69958739215E+02  0.20001766882E+02 0.  0.
        -13    1    3    3    0    0 -0.73873683267E+01  0.67401211496E+01  0.33741903551E+02  0.35192750271E+02  0.10570000000E+00 0. -1.
         13    1    3    3    0    0  0.73873683267E+01 -0.67401211496E+01  0.33296551936E+02  0.34765988944E+02  0.10570000000E+00 0.  1.
<mgrwt>
<rscale>  0 0.20001767E+02</rscale>
<asrwt>0</asrwt>
<pdfrwt beam="1">  1        4 0.10538243E-01 0.20001767E+02</pdfrwt>
<pdfrwt beam="2">  1       -4 0.22463728E-03 0.20001767E+02</pdfrwt>
<totfact> 0.10750352E+06</totfact>
</mgrwt>
</event>
<event>
 5    1  0.4710515E-007  0.2000647E+02  0.7818608E-02  0.1745199E+00
         -4   -1    0    0    0  501 -0.00000000000E+00  0.00000000000E+00  0.15965276738E+02  0.16028301885E+02  0.14200000000E+01 0. -1.
          4   -1    0    0  501    0  0.00000000000E+00 -0.00000000000E+00 -0.61107072592E+01  0.62735271744E+01  0.14200000000E+01 0.  1.
       1023    2    1    2    0    0  0.00000000000E+00  0.00000000000E+00  0.98545694791E+01  0.22301829060E+02  0.20006474947E+02 0.  0.
        -13    1    3    3    0    0 -0.68393497189E+01  0.72986203943E+01  0.48338651231E+01  0.11109634952E+02  0.10570000000E+00 0.  1.
         13    1    3    3    0    0  0.68393497189E+01 -0.72986203943E+01  0.50207043559E+01  0.11192194108E+02  0.10570000000E+00 0. -1.
<mgrwt>
<rscale>  0 0.20006475E+02</rscale>
<asrwt>0</asrwt>
<pdfrwt beam="2">  1        4 0.95748152E-03 0.20006475E+02</pdfrwt>
<pdfrwt beam="1">  1       -4 0.24735691E-02 0.20006475E+02</pdfrwt>
<totfact> 0.12870245E+06</totfact>
</mgrwt>
</event>
<event>
 4    1  0.4710515E-007  0.2019045E+02  0.7818608E-02  0.1741567E+00
          4   -1    0    0  501    0  0.00000000000E+00  0.00000000000E+00  0.98170386587E+01  0.99192060180E+01  0.14200000000E+01 0. -1.
         -4   -1    0    0    0  501 -0.00000000000E+00 -0.00000000000E+00 -0.10175835146E+02  0.10274435309E+02  0.14200000000E+01 0.  1.
        -13    1    1    2    0    0  0.39707174351E+01 -0.92623720142E+01 -0.76626086657E+00  0.10107247918E+02  0.10570000000E+00 0.  1.
         13    1    1    2    0    0 -0.39707174351E+01  0.92623720142E+01  0.40746437936E+00  0.10086393408E+02  0.10570000000E+00 0. -1.
<mgrwt>
<rscale>  0 0.20190454E+02</rscale>
<asrwt>0</asrwt>
<pdfrwt beam="1">  1        4 0.15257573E-02 0.20190454E+02</pdfrwt>
<pdfrwt beam="2">  1       -4 0.15809568E-02 0.20190454E+02</pdfrwt>
<totfact> 0.12753047E+06</totfact>
</mgrwt>
</event>
<event>
 5    1  0.4710515E-007  0.2000429E+02  0.7818608E-02  0.1745243E+00
         -4   -1    0    0    0  501 -0.00000000000E+00  0.00000000000E+00  0.13345138806E+02  0.13420474274E+02  0.14200000000E+01 0. -1.
          4   -1    0    0  501    0  0.00000000000E+00 -0.00000000000E+00 -0.73318317010E+01  0.74680757958E+01  0.14200000000E+01 0.  1.
       1023    2    1    2    0    0  0.00000000000E+00  0.00000000000E+00  0.60133071045E+01  0.20888550070E+02  0.20004291082E+02 0.  0.
        -13    1    3    3    0    0  0.82905940300E+01 -0.55938127075E+01  0.30943477107E+01  0.10469520057E+02  0.10570000000E+00 0.  1.
         13    1    3    3    0    0 -0.82905940300E+01  0.55938127075E+01  0.29189593938E+01  0.10419030013E+02  0.10570000000E+00 0. -1.
<mgrwt>
<rscale>  0 0.20004291E+02</rscale>
<asrwt>0</asrwt>
<pdfrwt beam="2">  1        4 0.11442495E-02 0.20004291E+02</pdfrwt>
<pdfrwt beam="1">  1       -4 0.20693736E-02 0.20004291E+02</pdfrwt>
<totfact> 0.12955663E+06</totfact>
</mgrwt>
</event>
<event>
 5    1  0.4710515E-007  0.2000429E+02  0.7818608E-02  0.1745243E+00
         -4   -1    0    0    0  501 -0.00000000000E+00  0.00000000000E+00  0.75065125989E+02  0.75078555791E+02  0.14200000000E+01 0.  1.
          4   -1    0    0  501    0  0.00000000000E+00 -0.00000000000E+00 -0.93702957119E+00  0.17013008015E+01  0.14200000000E+01 0. -1.
       1023    2    1    2    0    0  0.00000000000E+00  0.00000000000E+00  0.74128096417E+02  0.76779856593E+02  0.20004292038E+02 0.  0.
        -13    1    3    3    0    0 -0.87646668119E+01 -0.48172472507E+01  0.36754674323E+02  0.38091239314E+02  0.10570000000E+00 0.  1.
         13    1    3    3    0    0  0.87646668119E+01  0.48172472507E+01  0.37373422095E+02  0.38688617279E+02  0.10570000000E+00 0. -1.
<mgrwt>
<rscale>  0 0.20004292E+02</rscale>
<asrwt>0</asrwt>
<pdfrwt beam="2">  1        4 0.20398153E-03 0.20004292E+02</pdfrwt>
<pdfrwt beam="1">  1       -4 0.11608305E-01 0.20004292E+02</pdfrwt>
<totfact> 0.10513176E+06</totfact>
</mgrwt>
</event>
<event>
 4    1  0.4710515E-007  0.2001408E+02  0.7818608E-02  0.1745048E+00
          4   -1    0    0  501    0  0.00000000000E+00  0.00000000000E+00  0.86324571968E+02  0.86336250356E+02  0.14200000000E+01 0.  1.
         -4   -1    0    0    0  501 -0.00000000000E+00 -0.00000000000E+00 -0.70925337397E+00  0.15872745032E+01  0.14200000000E+01 0. -1.
        -13    1    1    2    0    0  0.57839334151E+01  0.81653931835E+01  0.43011705007E+02  0.44160451444E+02  0.10570000000E+00 0.  1.
         13    1    1    2    0    0 -0.57839334151E+01 -0.81653931835E+01  0.42603613587E+02  0.43763073415E+02  0.10570000000E+00 0. -1.
<mgrwt>
<rscale>  0 0.20014081E+02</rscale>
<asrwt>0</asrwt>
<pdfrwt beam="1">  1        4 0.13349138E-01 0.20014081E+02</pdfrwt>
<pdfrwt beam="2">  1       -4 0.17755438E-03 0.20014081E+02</pdfrwt>
<totfact> 0.10145129E+06</totfact>
</mgrwt>
</event>
<event>
 5    1  0.4710515E-007  0.2000155E+02  0.7818608E-02  0.1745297E+00
         -4   -1    0    0    0  501 -0.00000000000E+00  0.00000000000E+00  0.72064083858E+00  0.15923954340E+01  0.14200000000E+01 0.  1.
          4   -1    0    0  501    0  0.00000000000E+00 -0.00000000000E+00 -0.85599955071E+02  0.85611732305E+02  0.14200000000E+01 0. -1.
       1023    2    1    2    0    0  0.00000000000E+00  0.00000000000E+00 -0.84879314233E+02  0.87204127739E+02  0.20001547691E+02 0.  0.
        -13    1    3    3    0    0  0.45273472294E+01 -0.89166848366E+01 -0.42383889721E+02  0.43547783202E+02  0.10570000000E+00 0.  1.
         13    1    3    3    0    0 -0.45273472294E+01  0.89166848366E+01 -0.42495424511E+02  0.43656344537E+02  0.10570000000E+00 0. -1.
<mgrwt>
<rscale>  0 0.20001548E+02</rscale>
<asrwt>0</asrwt>
<pdfrwt beam="2">  1        4 0.13237183E-01 0.20001548E+02</pdfrwt>
<pdfrwt beam="1">  1       -4 0.17883188E-03 0.20001548E+02</pdfrwt>
<totfact> 0.10180129E+06</totfact>
</mgrwt>
</event>
<event>
 5    1  0.4710515E-007  0.2000628E+02  0.7818608E-02  0.1745203E+00
         -4   -1    0    0    0  501 -0.00000000000E+00  0.00000000000E+00  0.65254238712E+01  0.66781402126E+01  0.14200000000E+01 0.  1.
          4   -1    0    0  501    0  0.00000000000E+00 -0.00000000000E+00 -0.14970241716E+02  0.15037437848E+02  0.14200000000E+01 0. -1.
       1023    2    1    2    0    0  0.00000000000E+00  0.00000000000E+00 -0.84448178450E+01  0.21715578061E+02  0.20006283565E+02 0.  0.
        -13    1    3    3    0    0  0.89370737844E+01 -0.44883824369E+01 -0.44249188863E+01  0.10936541701E+02  0.10570000000E+00 0.  1.
         13    1    3    3    0    0 -0.89370737844E+01  0.44883824369E+01 -0.40198989587E+01  0.10779036360E+02  0.10570000000E+00 0. -1.
<mgrwt>
<rscale>  0 0.20006284E+02</rscale>
<asrwt>0</asrwt>
<pdfrwt beam="2">  1        4 0.23200304E-02 0.20006284E+02</pdfrwt>
<pdfrwt beam="1">  1       -4 0.10208277E-02 0.20006284E+02</pdfrwt>
<totfact> 0.12904501E+06</totfact>
</mgrwt>
</event>
<event>
 4    1  0.4710515E-007  0.2003699E+02  0.7818608E-02  0.1744593E+00
         -4   -1    0    0    0  501 -0.00000000000E+00  0.00000000000E+00  0.85493002323E+02  0.85504794287E+02  0.14200000000E+01 0. -1.
          4   -1    0    0  501    0  0.00000000000E+00 -0.00000000000E+00 -0.72833639524E+00  0.15958928237E+01  0.14200000000E+01 0.  1.
        -13    1    1    2    0    0  0.99843789252E+01  0.81926128286E+00  0.42340570100E+02  0.43509700763E+02  0.10570000000E+00 0. -1.
         13    1    1    2    0    0 -0.99843789252E+01 -0.81926128286E+00  0.42424095827E+02  0.43590986348E+02  0.10570000000E+00 0.  1.
<mgrwt>
<rscale>  0 0.20036993E+02</rscale>
<asrwt>0</asrwt>
<pdfrwt beam="2">  1        4 0.17969395E-03 0.20036993E+02</pdfrwt>
<pdfrwt beam="1">  1       -4 0.13220411E-01 0.20036993E+02</pdfrwt>
<totfact> 0.10147345E+06</totfact>
</mgrwt>
</event>
<event>
 5    1  0.4710515E-007  0.2000640E+02  0.7818608E-02  0.1745201E+00
         -4   -1    0    0    0  501 -0.00000000000E+00  0.00000000000E+00  0.44771917809E+01  0.46969826743E+01  0.14200000000E+01 0. -1.
          4   -1    0    0  501    0  0.00000000000E+00 -0.00000000000E+00 -0.21570595064E+02  0.21617284090E+02  0.14200000000E+01 0.  1.
       1023    2    1    2    0    0  0.00000000000E+00  0.00000000000E+00 -0.17093403284E+02  0.26314266764E+02  0.20006403963E+02 0.  0.
        -13    1    3    3    0    0 -0.23650932642E+01  0.97175635178E+01 -0.87674612938E+01  0.13300535963E+02  0.10570000000E+00 0.  1.
         13    1    3    3    0    0  0.23650932642E+01 -0.97175635178E+01 -0.83259419897E+01  0.13013730802E+02  0.10570000000E+00 0. -1.
<mgrwt>
<rscale>  0 0.20006404E+02</rscale>
<asrwt>0</asrwt>
<pdfrwt beam="2">  1        4 0.33390515E-02 0.20006404E+02</pdfrwt>
<pdfrwt beam="1">  1       -4 0.70929720E-03 0.20006404E+02</pdfrwt>
<totfact> 0.12644664E+06</totfact>
</mgrwt>
</event>
<event>
 4    1  0.4710515E-007  0.2002502E+02  0.7818608E-02  0.1744831E+00
         -4   -1    0    0    0  501 -0.00000000000E+00  0.00000000000E+00  0.38316139700E+02  0.38342443343E+02  0.14200000000E+01 0.  1.
          4   -1    0    0  501    0  0.00000000000E+00 -0.00000000000E+00 -0.23944327434E+01  0.27838297654E+01  0.14200000000E+01 0. -1.
        -13    1    1    2    0    0 -0.53012858001E+01 -0.84897791835E+01  0.18460437463E+02  0.20999497744E+02  0.10570000000E+00 0.  1.
         13    1    1    2    0    0  0.53012858001E+01  0.84897791835E+01  0.17461269494E+02  0.20126775364E+02  0.10570000000E+00 0. -1.
<mgrwt>
<rscale>  0 0.20025017E+02</rscale>
<asrwt>0</asrwt>
<pdfrwt beam="2">  1        4 0.40035127E-03 0.20025017E+02</pdfrwt>
<pdfrwt beam="1">  1       -4 0.59267673E-02 0.20025017E+02</pdfrwt>
<totfact> 0.11880416E+06</totfact>
</mgrwt>
</event>
<event>
 5    1  0.4710515E-007  0.2000269E+02  0.7818608E-02  0.1745275E+00
         -4   -1    0    0    0  501 -0.00000000000E+00  0.00000000000E+00  0.68146616229E+01  0.69610353422E+01  0.14200000000E+01 0. -1.
          4   -1    0    0  501    0  0.00000000000E+00 -0.00000000000E+00 -0.14340413250E+02  0.14410546561E+02  0.14200000000E+01 0.  1.
       1023    2    1    2    0    0  0.00000000000E+00  0.00000000000E+00 -0.75257516269E+01  0.21371581903E+02  0.20002689206E+02 0.  0.
        -13    1    3    3    0    0 -0.98328195546E+01  0.18251348998E+01 -0.37802221037E+01  0.10691899244E+02  0.10570000000E+00 0.  1.
         13    1    3    3    0    0  0.98328195546E+01 -0.18251348998E+01 -0.37455295232E+01  0.10679682659E+02  0.10570000000E+00 0. -1.
<mgrwt>
<rscale>  0 0.20002689E+02</rscale>
<asrwt>0</asrwt>
<pdfrwt beam="2">  1        4 0.22228718E-02 0.20002689E+02</pdfrwt>
<pdfrwt beam="1">  1       -4 0.10650639E-02 0.20002689E+02</pdfrwt>
<totfact> 0.12929341E+06</totfact>
</mgrwt>
</event>
<event>
 5    1  0.4710515E-007  0.2000202E+02  0.7818608E-02  0.1745288E+00
          4   -1    0    0  501    0  0.00000000000E+00  0.00000000000E+00  0.20268772251E+01  0.24747992415E+01  0.14200000000E+01 0. -1.
         -4   -1    0    0    0  501 -0.00000000000E+00 -0.00000000000E+00 -0.43976325941E+02  0.43999245940E+02  0.14200000000E+01 0. -1.
       1023    2    1    2    0    0  0.00000000000E+00  0.00000000000E+00 -0.41949448716E+02  0.46474045181E+02  0.20002015597E+02 0.  0.
        -13    1    3    3    0    0  0.99916991408E+01 -0.41247835492E+00 -0.21135604695E+02  0.23382240022E+02  0.10570000000E+00 0.  1.
         13    1    3    3    0    0 -0.99916991408E+01  0.41247835492E+00 -0.20813844021E+02  0.23091805160E+02  0.10570000000E+00 0. -1.
<mgrwt>
<rscale>  0 0.20002016E+02</rscale>
<asrwt>0</asrwt>
<pdfrwt beam="1">  1        4 0.34804591E-03 0.20002016E+02</pdfrwt>
<pdfrwt beam="2">  1       -4 0.68018066E-02 0.20002016E+02</pdfrwt>
<totfact> 0.11668743E+06</totfact>
</mgrwt>
</event>
<event>
 5    1  0.5077895E-007  0.2000185E+02  0.7818608E-02  0.1745291E+00
          4   -1    0    0  501    0  0.00000000000E+00  0.00000000000E+00  0.41235497209E+01  0.43611996401E+01  0.14200000000E+01 0.  1.
         -4   -1    0    0    0  501 -0.00000000000E+00 -0.00000000000E+00 -0.23316221466E+02  0.23359421727E+02  0.14200000000E+01 0. -1.
       1023    2    1    2    0    0  0.00000000000E+00  0.00000000000E+00 -0.19192671745E+02  0.27720621367E+02  0.20001854921E+02 0.  0.
        -13    1    3    3    0    0  0.21327671005E+01  0.97702747025E+01 -0.95681261353E+01  0.13840779367E+02  0.10570000000E+00 0.  1.
         13    1    3    3    0    0 -0.21327671005E+01 -0.97702747025E+01 -0.96245456095E+01  0.13879842000E+02  0.10570000000E+00 0. -1.
<mgrwt>
<rscale>  0 0.20001855E+02</rscale>
<asrwt>0</asrwt>
<pdfrwt beam="1">  1        4 0.65599614E-03 0.20001855E+02</pdfrwt>
<pdfrwt beam="2">  1       -4 0.36087148E-02 0.20001855E+02</pdfrwt>
<totfact> 0.12574179E+06</totfact>
</mgrwt>
</event>
<event>
 4    1  0.4710515E-007  0.2019972E+02  0.7818608E-02  0.1741385E+00
         -4   -1    0    0    0  501 -0.00000000000E+00  0.00000000000E+00  0.55789950843E+00  0.15256644000E+01  0.14200000000E+01 0. -1.
          4   -1    0    0  501    0  0.00000000000E+00 -0.00000000000E+00 -0.96940669034E+02  0.96951068652E+02  0.14200000000E+01 0.  1.
        -13    1    1    2    0    0  0.26307859505E+01 -0.96958461908E+01 -0.43159026207E+02  0.44313013706E+02  0.10570000000E+00 0. -1.
         13    1    1    2    0    0 -0.26307859505E+01  0.96958461908E+01 -0.53223743319E+02  0.54163719346E+02  0.10570000000E+00 0.  1.
<mgrwt>
<rscale>  0 0.20199720E+02</rscale>
<asrwt>0</asrwt>
<pdfrwt beam="2">  1        4 0.14989185E-01 0.20199720E+02</pdfrwt>
<pdfrwt beam="1">  1       -4 0.16107419E-03 0.20199720E+02</pdfrwt>
<totfact> 0.96512907E+05</totfact>
</mgrwt>
</event>
<event>
 4    1  0.4710515E-007  0.2001319E+02  0.7818608E-02  0.1745066E+00
         -4   -1    0    0    0  501 -0.00000000000E+00  0.00000000000E+00  0.89729433947E+02  0.89740669245E+02  0.14200000000E+01 0.  1.
          4   -1    0    0  501    0  0.00000000000E+00 -0.00000000000E+00 -0.64823329615E+00  0.15609632943E+01  0.14200000000E+01 0. -1.
        -13    1    1    2    0    0 -0.69321731106E+01 -0.72128745180E+01  0.43625982925E+02  0.44758442126E+02  0.10570000000E+00 0. -1.
         13    1    1    2    0    0  0.69321731106E+01  0.72128745180E+01  0.45455217726E+02  0.46543190413E+02  0.10570000000E+00 0.  1.
<mgrwt>
<rscale>  0 0.20013191E+02</rscale>
<asrwt>0</asrwt>
<pdfrwt beam="2">  1        4 0.17080241E-03 0.20013191E+02</pdfrwt>
<pdfrwt beam="1">  1       -4 0.13875606E-01 0.20013191E+02</pdfrwt>
<totfact> 0.10042998E+06</totfact>
</mgrwt>
</event>
<event>
 4    1  0.4710515E-007  0.2003362E+02  0.7818608E-02  0.1744660E+00
         -4   -1    0    0    0  501 -0.00000000000E+00  0.00000000000E+00  0.27986775700E+02  0.28022776702E+02  0.14200000000E+01 0.  1.
          4   -1    0    0  501    0  0.00000000000E+00 -0.00000000000E+00 -0.34046110195E+01  0.36888719406E+01  0.14200000000E+01 0. -1.
        -13    1    1    2    0    0  0.88330974032E+01 -0.46951730971E+01  0.13093589579E+02  0.16477910083E+02  0.10570000000E+00 0. -1.
         13    1    1    2    0    0 -0.88330974032E+01  0.46951730971E+01  0.11488575101E+02  0.15233738559E+02  0.10570000000E+00 0.  1.
<mgrwt>
<rscale>  0 0.20033618E+02</rscale>
<asrwt>0</asrwt>
<pdfrwt beam="2">  1        4 0.54842182E-03 0.20033618E+02</pdfrwt>
<pdfrwt beam="1">  1       -4 0.43302935E-02 0.20033618E+02</pdfrwt>
<totfact> 0.12325106E+06</totfact>
</mgrwt>
</event>
<event>
 4    1  0.4710515E-007  0.2014182E+02  0.7818608E-02  0.1742522E+00
         -4   -1    0    0    0  501 -0.00000000000E+00  0.00000000000E+00  0.72361781256E+00  0.15937448788E+01  0.14200000000E+01 0.  1.
          4   -1    0    0  501    0  0.00000000000E+00 -0.00000000000E+00 -0.86655163913E+02  0.86666797753E+02  0.14200000000E+01 0. -1.
        -13    1    1    2    0    0 -0.33122576081E+00  0.10042869738E+02 -0.45882579362E+02  0.46970109691E+02  0.10570000000E+00 0. -1.
         13    1    1    2    0    0  0.33122576081E+00 -0.10042869738E+02 -0.40048966739E+02  0.41290432940E+02  0.10570000000E+00 0.  1.
<mgrwt>
<rscale>  0 0.20141816E+02</rscale>
<asrwt>0</asrwt>
<pdfrwt beam="2">  1        4 0.13399386E-01 0.20141816E+02</pdfrwt>
<pdfrwt beam="1">  1       -4 0.17915365E-03 0.20141816E+02</pdfrwt>
<totfact> 0.10006528E+06</totfact>
</mgrwt>
</event>
<event>
 5    1  0.4710515E-007  0.2000164E+02  0.7818608E-02  0.1745296E+00
         -4   -1    0    0    0  501 -0.00000000000E+00  0.00000000000E+00  0.20682910188E+02  0.20731598439E+02  0.14200000000E+01 0. -1.
          4   -1    0    0  501    0  0.00000000000E+00 -0.00000000000E+00 -0.46757704989E+01  0.48866378788E+01  0.14200000000E+01 0.  1.
       1023    2    1    2    0    0  0.00000000000E+00  0.00000000000E+00  0.16007139689E+02  0.25618236318E+02  0.20001637708E+02 0.  0.
        -13    1    3    3    0    0  0.95136158122E+01  0.30815903646E+01  0.79895236730E+01  0.12800341636E+02  0.10570000000E+00 0.  1.
         13    1    3    3    0    0 -0.95136158122E+01 -0.30815903646E+01  0.80176160163E+01  0.12817894682E+02  0.10570000000E+00 0. -1.
<mgrwt>
<rscale>  0 0.20001638E+02</rscale>
<asrwt>0</asrwt>
<pdfrwt beam="2">  1        4 0.73931513E-03 0.20001638E+02</pdfrwt>
<pdfrwt beam="1">  1       -4 0.32019520E-02 0.20001638E+02</pdfrwt>
<totfact> 0.12689123E+06</totfact>
</mgrwt>
</event>
<event>
 5    1  0.4710515E-007  0.2000148E+02  0.7818608E-02  0.1745299E+00
         -4   -1    0    0    0  501 -0.00000000000E+00  0.00000000000E+00  0.10102046139E+03  0.10103044106E+03  0.14200000000E+01 0. -1.
          4   -1    0    0  501    0  0.00000000000E+00 -0.00000000000E+00 -0.46559847666E+00  0.14943834653E+01  0.14200000000E+01 0.  1.
       1023    2    1    2    0    0  0.00000000000E+00  0.00000000000E+00  0.10055486292E+03  0.10252482452E+03  0.20001479623E+02 0.  0.
        -13    1    3    3    0    0  0.11864039969E+01 -0.99294927127E+01  0.50458244883E+02  0.51439751449E+02  0.10570000000E+00 0. -1.
         13    1    3    3    0    0 -0.11864039969E+01  0.99294927127E+01  0.50096618033E+02  0.51085073073E+02  0.10570000000E+00 0.  1.
<mgrwt>
<rscale>  0 0.20001480E+02</rscale>
<asrwt>0</asrwt>
<pdfrwt beam="2">  1        4 0.15153545E-03 0.20001480E+02</pdfrwt>
<pdfrwt beam="1">  1       -4 0.15621521E-01 0.20001480E+02</pdfrwt>
<totfact> 0.97285043E+05</totfact>
</mgrwt>
</event>
<event>
 4    1  0.4710515E-007  0.2001251E+02  0.7818608E-02  0.1745079E+00
          4   -1    0    0  501    0  0.00000000000E+00  0.00000000000E+00  0.58798653296E+01  0.60489020735E+01  0.14200000000E+01 0. -1.
         -4   -1    0    0    0  501 -0.00000000000E+00 -0.00000000000E+00 -0.16587377040E+02  0.16648047245E+02  0.14200000000E+01 0.  1.
        -13    1    1    2    0    0 -0.60285952896E+01 -0.79856046037E+01 -0.53393745142E+01  0.11341690119E+02  0.10570000000E+00 0. -1.
         13    1    1    2    0    0  0.60285952896E+01  0.79856046037E+01 -0.53681371965E+01  0.11355259200E+02  0.10570000000E+00 0.  1.
<mgrwt>
<rscale>  0 0.20012514E+02</rscale>
<asrwt>0</asrwt>
<pdfrwt beam="1">  1        4 0.92226444E-03 0.20012514E+02</pdfrwt>
<pdfrwt beam="2">  1       -4 0.25695739E-02 0.20012514E+02</pdfrwt>
<totfact> 0.12839576E+06</totfact>
</mgrwt>
</event>
<event>
 5    1  0.4710515E-007  0.2000162E+02  0.7818608E-02  0.1745296E+00
          4   -1    0    0  501    0  0.00000000000E+00  0.00000000000E+00  0.14058830506E+01  0.19982260012E+01  0.14200000000E+01 0. -1.
         -4   -1    0    0    0  501 -0.00000000000E+00 -0.00000000000E+00 -0.58159550304E+02  0.58176882794E+02  0.14200000000E+01 0.  1.
       1023    2    1    2    0    0  0.00000000000E+00  0.00000000000E+00 -0.56753667254E+02  0.60175108795E+02  0.20001624228E+02 0.  0.
        -13    1    3    3    0    0 -0.50120701412E+01  0.86535610313E+01 -0.28346031582E+02  0.30058503698E+02  0.10570000000E+00 0. -1.
         13    1    3    3    0    0  0.50120701412E+01 -0.86535610313E+01 -0.28407635672E+02  0.30116605097E+02  0.10570000000E+00 0.  1.
<mgrwt>
<rscale>  0 0.20001624E+02</rscale>
<asrwt>0</asrwt>
<pdfrwt beam="1">  1        4 0.26318786E-03 0.20001624E+02</pdfrwt>
<pdfrwt beam="2">  1       -4 0.89945197E-02 0.20001624E+02</pdfrwt>
<totfact> 0.11110322E+06</totfact>
</mgrwt>
</event>
<event>
 5    1  0.4710515E-007  0.2000173E+02  0.7818608E-02  0.1745294E+00
          4   -1    0    0  501    0  0.00000000000E+00  0.00000000000E+00  0.46631696233E+02  0.46653311711E+02  0.14200000000E+01 0. -1.
         -4   -1    0    0    0  501 -0.00000000000E+00 -0.00000000000E+00 -0.18851837149E+01  0.23601520373E+01  0.14200000000E+01 0.  1.
       1023    2    1    2    0    0  0.00000000000E+00  0.00000000000E+00  0.44746512518E+02  0.49013463748E+02  0.20001731076E+02 0.  0.
        -13    1    3    3    0    0  0.82067457060E+01  0.57144934360E+01  0.22360127386E+02  0.24494745958E+02  0.10570000000E+00 0.  1.
         13    1    3    3    0    0 -0.82067457060E+01 -0.57144934360E+01  0.22386385132E+02  0.24518717790E+02  0.10570000000E+00 0. -1.
<mgrwt>
<rscale>  0 0.20001731E+02</rscale>
<asrwt>0</asrwt>
<pdfrwt beam="1">  1        4 0.72123062E-02 0.20001731E+02</pdfrwt>
<pdfrwt beam="2">  1       -4 0.32822700E-03 0.20001731E+02</pdfrwt>
<totfact> 0.11559888E+06</totfact>
</mgrwt>
</event>
<event>
 4    1  0.4710515E-007  0.2010161E+02  0.7818608E-02  0.1743315E+00
          4   -1    0    0  501    0  0.00000000000E+00  0.00000000000E+00  0.15512973029E+02  0.15577828224E+02  0.14200000000E+01 0.  1.
         -4   -1    0    0    0  501 -0.00000000000E+00 -0.00000000000E+00 -0.63549212612E+01  0.65116376002E+01  0.14200000000E+01 0. -1.
        -13    1    1    2    0    0 -0.35173732014E+01  0.93922067852E+01  0.38651596124E+01  0.10748771737E+02  0.10570000000E+00 0. -1.
         13    1    1    2    0    0  0.35173732014E+01 -0.93922067852E+01  0.52928921550E+01  0.11340694088E+02  0.10570000000E+00 0.  1.
<mgrwt>
<rscale>  0 0.20101607E+02</rscale>
<asrwt>0</asrwt>
<pdfrwt beam="1">  1        4 0.24036551E-02 0.20101607E+02</pdfrwt>
<pdfrwt beam="2">  1       -4 0.99472418E-03 0.20101607E+02</pdfrwt>
<totfact> 0.12758411E+06</totfact>
</mgrwt>
</event>
<event>
 5    1  0.5013450E-007  0.2000338E+02  0.7818608E-02  0.1745261E+00
         -4   -1    0    0    0  501 -0.00000000000E+00  0.00000000000E+00  0.36028970953E+01  0.38726305633E+01  0.14200000000E+01 0. -1.
          4   -1    0    0  501    0  0.00000000000E+00 -0.00000000000E+00 -0.26473572380E+02  0.26511628290E+02  0.14200000000E+01 0.  1.
       1023    2    1    2    0    0  0.00000000000E+00  0.00000000000E+00 -0.22870675285E+02  0.30384258853E+02  0.20003384665E+02 0.  0.
        -13    1    3    3    0    0  0.37706840699E+01 -0.92625520051E+01 -0.11585314994E+02  0.15305019569E+02  0.10570000000E+00 0. -1.
         13    1    3    3    0    0 -0.37706840699E+01  0.92625520051E+01 -0.11285360291E+02  0.15079239284E+02  0.10570000000E+00 0.  1.
<mgrwt>
<rscale>  0 0.20003385E+02</rscale>
<asrwt>0</asrwt>
<pdfrwt beam="2">  1        4 0.40965333E-02 0.20003385E+02</pdfrwt>
<pdfrwt beam="1">  1       -4 0.57796798E-03 0.20003385E+02</pdfrwt>
<totfact> 0.12431444E+06</totfact>
</mgrwt>
</event>
<event>
 4    1  0.4710515E-007  0.2007419E+02  0.7818608E-02  0.1743857E+00
          4   -1    0    0  501    0  0.00000000000E+00  0.00000000000E+00  0.16223176304E+01  0.21559950125E+01  0.14200000000E+01 0.  1.
         -4   -1    0    0    0  501 -0.00000000000E+00 -0.00000000000E+00 -0.52782565158E+02  0.52801662707E+02  0.14200000000E+01 0. -1.
        -13    1    1    2    0    0  0.65291261443E+01  0.76020264162E+01 -0.24051311235E+02  0.26055652716E+02  0.10570000000E+00 0.  1.
         13    1    1    2    0    0 -0.65291261443E+01 -0.76020264162E+01 -0.27108936292E+02  0.28902005003E+02  0.10570000000E+00 0. -1.
<mgrwt>
<rscale>  0 0.20074193E+02</rscale>
<asrwt>0</asrwt>
<pdfrwt beam="1">  1        4 0.29210852E-03 0.20074193E+02</pdfrwt>
<pdfrwt beam="2">  1       -4 0.81629147E-02 0.20074193E+02</pdfrwt>
<totfact> 0.11232463E+06</totfact>
</mgrwt>
</event>
<event>
 5    1  0.4710515E-007  0.2000175E+02  0.7818608E-02  0.1745293E+00
          4   -1    0    0  501    0  0.00000000000E+00  0.00000000000E+00  0.12772000234E+02  0.12850696089E+02  0.14200000000E+01 0. -1.
         -4   -1    0    0    0  501 -0.00000000000E+00 -0.00000000000E+00 -0.76628225636E+01  0.77932823406E+01  0.14200000000E+01 0.  1.
       1023    2    1    2    0    0  0.00000000000E+00  0.00000000000E+00  0.51091776699E+01  0.20643978429E+02  0.20001753646E+02 0.  0.
        -13    1    3    3    0    0  0.68536579785E+01  0.72824015757E+01  0.25742895649E+01  0.10326864948E+02  0.10570000000E+00 0. -1.
         13    1    3    3    0    0 -0.68536579785E+01 -0.72824015757E+01  0.25348881050E+01  0.10317113482E+02  0.10570000000E+00 0.  1.
<mgrwt>
<rscale>  0 0.20001754E+02</rscale>
<asrwt>0</asrwt>
<pdfrwt beam="1">  1        4 0.19810120E-02 0.20001754E+02</pdfrwt>
<pdfrwt beam="2">  1       -4 0.11949847E-02 0.20001754E+02</pdfrwt>
<totfact> 0.12973486E+06</totfact>
</mgrwt>
</event>
<event>
 5    1  0.4710515E-007  0.2000546E+02  0.7818608E-02  0.1745219E+00
          4   -1    0    0  501    0  0.00000000000E+00  0.00000000000E+00  0.39847513372E+02  0.39872806798E+02  0.14200000000E+01 0.  1.
         -4   -1    0    0    0  501 -0.00000000000E+00 -0.00000000000E+00 -0.22819090014E+01  0.26876585889E+01  0.14200000000E+01 0. -1.
       1023    2    1    2    0    0  0.00000000000E+00  0.00000000000E+00  0.37565604371E+02  0.42560465387E+02  0.20005463809E+02 0.  0.
        -13    1    3    3    0    0  0.10000881137E+02 -0.15264733819E+00  0.18675406532E+02  0.21185440905E+02  0.10570000000E+00 0. -1.
         13    1    3    3    0    0 -0.10000881137E+02  0.15264733819E+00  0.18890197839E+02  0.21375024482E+02  0.10570000000E+00 0.  1.
<mgrwt>
<rscale>  0 0.20005464E+02</rscale>
<asrwt>0</asrwt>
<pdfrwt beam="1">  1        4 0.61635439E-02 0.20005464E+02</pdfrwt>
<pdfrwt beam="2">  1       -4 0.38422008E-03 0.20005464E+02</pdfrwt>
<totfact> 0.11838516E+06</totfact>
</mgrwt>
</event>
<event>
 5    1  0.4710515E-007  0.2000223E+02  0.7818608E-02  0.1745284E+00
         -4   -1    0    0    0  501 -0.00000000000E+00  0.00000000000E+00  0.32807346715E+02  0.32838063257E+02  0.14200000000E+01 0.  1.
          4   -1    0    0  501    0  0.00000000000E+00 -0.00000000000E+00 -0.28494444235E+01  0.31836666790E+01  0.14200000000E+01 0. -1.
       1023    2    1    2    0    0  0.00000000000E+00  0.00000000000E+00  0.29957902291E+02  0.36021729936E+02  0.20002227823E+02 0.  0.
        -13    1    3    3    0    0  0.30645525123E+01  0.95193401755E+01  0.14902811726E+02  0.17947542709E+02  0.10570000000E+00 0.  1.
         13    1    3    3    0    0 -0.30645525123E+01 -0.95193401755E+01  0.15055090566E+02  0.18074187227E+02  0.10570000000E+00 0. -1.
<mgrwt>
<rscale>  0 0.20002228E+02</rscale>
<asrwt>0</asrwt>
<pdfrwt beam="2">  1        4 0.46644828E-03 0.20002228E+02</pdfrwt>
<pdfrwt beam="1">  1       -4 0.50753563E-02 0.20002228E+02</pdfrwt>
<totfact> 0.12149208E+06</totfact>
</mgrwt>
</event>
<event>
 5    1  0.4710515E-007  0.2000233E+02  0.7818608E-02  0.1745282E+00
         -4   -1    0    0    0  501 -0.00000000000E+00  0.00000000000E+00  0.53580855555E+01  0.55430569923E+01  0.14200000000E+01 0. -1.
          4   -1    0    0  501    0  0.00000000000E+00 -0.00000000000E+00 -0.18137782464E+02  0.18193283176E+02  0.14200000000E+01 0.  1.
       1023    2    1    2    0    0  0.00000000000E+00  0.00000000000E+00 -0.12779696909E+02  0.23736340168E+02  0.20002329652E+02 0.  0.
        -13    1    3    3    0    0  0.73746697583E+01  0.67541885918E+01 -0.62884043643E+01  0.11813552366E+02  0.10570000000E+00 0. -1.
         13    1    3    3    0    0 -0.73746697583E+01 -0.67541885918E+01 -0.64912925444E+01  0.11922787802E+02  0.10570000000E+00 0.  1.
<mgrwt>
<rscale>  0 0.20002330E+02</rscale>
<asrwt>0</asrwt>
<pdfrwt beam="2">  1        4 0.28089259E-02 0.20002330E+02</pdfrwt>
<pdfrwt beam="1">  1       -4 0.84281872E-03 0.20002330E+02</pdfrwt>
<totfact> 0.12793624E+06</totfact>
</mgrwt>
</event>
<event>
 4    1  0.4710515E-007  0.2001479E+02  0.7818608E-02  0.1745034E+00
          4   -1    0    0  501    0  0.00000000000E+00  0.00000000000E+00  0.58996512218E+01  0.60681368260E+01  0.14200000000E+01 0. -1.
         -4   -1    0    0    0  501 -0.00000000000E+00 -0.00000000000E+00 -0.16536904782E+02  0.16597759480E+02  0.14200000000E+01 0.  1.
        -13    1    1    2    0    0 -0.99775296988E+01 -0.76193511813E+00 -0.52377015437E+01  0.11294969410E+02  0.10570000000E+00 0. -1.
         13    1    1    2    0    0  0.99775296988E+01  0.76193511813E+00 -0.53995520160E+01  0.11370926896E+02  0.10570000000E+00 0.  1.
<mgrwt>
<rscale>  0 0.20014787E+02</rscale>
<asrwt>0</asrwt>
<pdfrwt beam="1">  1        4 0.92528022E-03 0.20014787E+02</pdfrwt>
<pdfrwt beam="2">  1       -4 0.25617807E-02 0.20014787E+02</pdfrwt>
<totfact> 0.12838385E+06</totfact>
</mgrwt>
</event>
<event>
 5    1  0.4710515E-007  0.2000780E+02  0.7818608E-02  0.1745173E+00
          4   -1    0    0  501    0  0.00000000000E+00  0.00000000000E+00  0.98499473185E+02  0.98509708241E+02  0.14200000000E+01 0.  1.
         -4   -1    0    0    0  501 -0.00000000000E+00 -0.00000000000E+00 -0.50447531848E+00  0.15069490194E+01  0.14200000000E+01 0. -1.
       1023    2    1    2    0    0  0.00000000000E+00  0.00000000000E+00  0.97994997866E+02  0.10001665726E+03  0.20007801545E+02 0.  0.
        -13    1    3    3    0    0  0.99969404024E+01 -0.28843873638E+00  0.47938916991E+02  0.48971144045E+02  0.10570000000E+00 0.  1.
         13    1    3    3    0    0 -0.99969404024E+01  0.28843873638E+00  0.50056080875E+02  0.51045513215E+02  0.10570000000E+00 0. -1.
<mgrwt>
<rscale>  0 0.20007802E+02</rscale>
<asrwt>0</asrwt>
<pdfrwt beam="1">  1        4 0.15231670E-01 0.20007802E+02</pdfrwt>
<pdfrwt beam="2">  1       -4 0.15551222E-03 0.20007802E+02</pdfrwt>
<totfact> 0.97931506E+05</totfact>
</mgrwt>
</event>
<event>
 5    1  0.4710515E-007  0.2000507E+02  0.7818608E-02  0.1745227E+00
          4   -1    0    0  501    0  0.00000000000E+00  0.00000000000E+00  0.80079605925E+02  0.80092194908E+02  0.14200000000E+01 0. -1.
         -4   -1    0    0    0  501 -0.00000000000E+00 -0.00000000000E+00 -0.82904484791E+00  0.16442978319E+01  0.14200000000E+01 0.  1.
       1023    2    1    2    0    0  0.00000000000E+00  0.00000000000E+00  0.79250561077E+02  0.81736492740E+02  0.20005069715E+02 0.  0.
        -13    1    3    3    0    0  0.27847134966E+01 -0.96045003089E+01  0.40426716589E+02  0.41645307564E+02  0.10570000000E+00 0. -1.
         13    1    3    3    0    0 -0.27847134966E+01  0.96045003089E+01  0.38823844488E+02  0.40091185176E+02  0.10570000000E+00 0.  1.
<mgrwt>
<rscale>  0 0.20005070E+02</rscale>
<asrwt>0</asrwt>
<pdfrwt beam="1">  1        4 0.12383618E-01 0.20005070E+02</pdfrwt>
<pdfrwt beam="2">  1       -4 0.19122554E-03 0.20005070E+02</pdfrwt>
<totfact> 0.10349514E+06</totfact>
</mgrwt>
</event>
<event>
 5    1  0.4710515E-007  0.2000161E+02  0.7818608E-02  0.1745296E+00
          4   -1    0    0  501    0  0.00000000000E+00  0.00000000000E+00  0.51527469873E+02  0.51547032422E+02  0.14200000000E+01 0.  1.
         -4   -1    0    0    0  501 -0.00000000000E+00 -0.00000000000E+00 -0.16586350083E+01  0.21834537070E+01  0.14200000000E+01 0. -1.
       1023    2    1    2    0    0  0.00000000000E+00  0.00000000000E+00  0.49868834865E+02  0.53730486129E+02  0.20001611158E+02 0.  0.
        -13    1    3    3    0    0 -0.97626598620E+01 -0.21668767031E+01  0.24954788552E+02  0.26884150096E+02  0.10570000000E+00 0.  1.
         13    1    3    3    0    0  0.97626598620E+01  0.21668767031E+01  0.24914046313E+02  0.26846336033E+02  0.10570000000E+00 0. -1.
<mgrwt>
<rscale>  0 0.20001611E+02</rscale>
<asrwt>0</asrwt>
<pdfrwt beam="1">  1        4 0.79691787E-02 0.20001611E+02</pdfrwt>
<pdfrwt beam="2">  1       -4 0.29705009E-03 0.20001611E+02</pdfrwt>
<totfact> 0.11364276E+06</totfact>
</mgrwt>
</event>
<event>
 5    1  0.4710515E-007  0.2000630E+02  0.7818608E-02  0.1745203E+00
         -4   -1    0    0    0  501 -0.00000000000E+00  0.00000000000E+00  0.55196328745E+02  0.55214591431E+02  0.14200000000E+01 0. -1.
          4   -1    0    0  501    0  0.00000000000E+00 -0.00000000000E+00 -0.15132932278E+01  0.20752003261E+01  0.14200000000E+01 0.  1.
       1023    2    1    2    0    0  0.00000000000E+00  0.00000000000E+00  0.53683035517E+02  0.57289791757E+02  0.20006297440E+02 0.  0.
        -13    1    3    3    0    0 -0.51438974225E+01 -0.85765344596E+01  0.27378681339E+02  0.29148241600E+02  0.10570000000E+00 0.  1.
         13    1    3    3    0    0  0.51438974225E+01  0.85765344596E+01  0.26304354178E+02  0.28141550157E+02  0.10570000000E+00 0. -1.
<mgrwt>
<rscale>  0 0.20006297E+02</rscale>
<asrwt>0</asrwt>
<pdfrwt beam="2">  1        4 0.27744285E-03 0.20006297E+02</pdfrwt>
<pdfrwt beam="1">  1       -4 0.85363696E-02 0.20006297E+02</pdfrwt>
<totfact> 0.11216928E+06</totfact>
</mgrwt>
</event>
<event>
 5    1  0.4710515E-007  0.2000389E+02  0.7818608E-02  0.1745251E+00
         -4   -1    0    0    0  501 -0.00000000000E+00  0.00000000000E+00  0.20759802654E+02  0.20808310989E+02  0.14200000000E+01 0.  1.
          4   -1    0    0  501    0  0.00000000000E+00 -0.00000000000E+00 -0.46588212969E+01  0.48704225563E+01  0.14200000000E+01 0. -1.
       1023    2    1    2    0    0  0.00000000000E+00  0.00000000000E+00  0.16100981357E+02  0.25678733545E+02  0.20003893517E+02 0.  0.
        -13    1    3    3    0    0  0.10001231238E+02  0.28751760907E-01  0.79887462925E+01  0.12800652044E+02  0.10570000000E+00 0. -1.
         13    1    3    3    0    0 -0.10001231238E+02 -0.28751760907E-01  0.81122350641E+01  0.12878081501E+02  0.10570000000E+00 0.  1.
<mgrwt>
<rscale>  0 0.20003894E+02</rscale>
<asrwt>0</asrwt>
<pdfrwt beam="2">  1        4 0.73675017E-03 0.20003894E+02</pdfrwt>
<pdfrwt beam="1">  1       -4 0.32138242E-02 0.20003894E+02</pdfrwt>
<totfact> 0.12682865E+06</totfact>
</mgrwt>
</event>
<event>
 5    1  0.4710515E-007  0.2000586E+02  0.7818608E-02  0.1745212E+00
          4   -1    0    0  501    0  0.00000000000E+00  0.00000000000E+00  0.19997626741E+02  0.20047979331E+02  0.14200000000E+01 0.  1.
         -4   -1    0    0    0  501 -0.00000000000E+00 -0.00000000000E+00 -0.48448482283E+01  0.50486586689E+01  0.14200000000E+01 0. -1.
       1023    2    1    2    0    0  0.00000000000E+00  0.00000000000E+00  0.15152778512E+02  0.25096638000E+02  0.20005862697E+02 0.  0.
        -13    1    3    3    0    0  0.20838654132E+01 -0.97828887694E+01  0.75857213057E+01  0.12553953479E+02  0.10570000000E+00 0. -1.
         13    1    3    3    0    0 -0.20838654132E+01  0.97828887694E+01  0.75670572067E+01  0.12542684521E+02  0.10570000000E+00 0.  1.
<mgrwt>
<rscale>  0 0.20005863E+02</rscale>
<asrwt>0</asrwt>
<pdfrwt beam="1">  1        4 0.30961089E-02 0.20005863E+02</pdfrwt>
<pdfrwt beam="2">  1       -4 0.76491228E-03 0.20005863E+02</pdfrwt>
<totfact> 0.12712616E+06</totfact>
</mgrwt>
</event>
<event>
 4    1  0.4710515E-007  0.2003506E+02  0.7818608E-02  0.1744632E+00
          4   -1    0    0  501    0  0.00000000000E+00  0.00000000000E+00  0.37395692354E+02  0.37422642967E+02  0.14200000000E+01 0. -1.
         -4   -1    0    0    0  501 -0.00000000000E+00 -0.00000000000E+00 -0.24656714092E+01  0.28453357443E+01  0.14200000000E+01 0.  1.
        -13    1    1    2    0    0 -0.10004892192E+02 -0.48584510141E+00  0.17618747417E+02  0.20267346799E+02  0.10570000000E+00 0. -1.
         13    1    1    2    0    0  0.10004892192E+02  0.48584510141E+00  0.17311273528E+02  0.20000631913E+02  0.10570000000E+00 0.  1.
<mgrwt>
<rscale>  0 0.20035063E+02</rscale>
<asrwt>0</asrwt>
<pdfrwt beam="1">  1        4 0.57844612E-02 0.20035063E+02</pdfrwt>
<pdfrwt beam="2">  1       -4 0.41061215E-03 0.20035063E+02</pdfrwt>
<totfact> 0.11907855E+06</totfact>
</mgrwt>
</event>
<event>
 5    1  0.4715819E-007  0.2000141E+02  0.7818608E-02  0.1745300E+00
          4   -1    0    0  501    0  0.00000000000E+00  0.00000000000E+00  0.21764950432E+02  0.21811223425E+02  0.14200000000E+01 0. -1.
         -4   -1    0    0    0  501 -0.00000000000E+00 -0.00000000000E+00 -0.44329789998E+01  0.46548579799E+01  0.14200000000E+01 0.  1.
       1023    2    1    2    0    0  0.00000000000E+00  0.00000000000E+00  0.17331971432E+02  0.26466081405E+02  0.20001405731E+02 0.  0.
        -13    1    3    3    0    0  0.94443270472E+01 -0.32870597540E+01  0.87361298132E+01  0.13278976309E+02  0.10570000000E+00 0.  1.
         13    1    3    3    0    0 -0.94443270472E+01  0.32870597540E+01  0.85958416189E+01  0.13187105097E+02  0.10570000000E+00 0. -1.
<mgrwt>
<rscale>  0 0.20001406E+02</rscale>
<asrwt>0</asrwt>
<pdfrwt beam="1">  1        4 0.33690811E-02 0.20001406E+02</pdfrwt>
<pdfrwt beam="2">  1       -4 0.70262383E-03 0.20001406E+02</pdfrwt>
<totfact> 0.12642785E+06</totfact>
</mgrwt>
</event>
<event>
 4    1  0.4710515E-007  0.2001284E+02  0.7818608E-02  0.1745073E+00
          4   -1    0    0  501    0  0.00000000000E+00  0.00000000000E+00  0.12283315867E+01  0.18775511942E+01  0.14200000000E+01 0. -1.
         -4   -1    0    0    0  501 -0.00000000000E+00 -0.00000000000E+00 -0.63817870621E+02  0.63833666749E+02  0.14200000000E+01 0.  1.
        -13    1    1    2    0    0  0.77932718018E+01 -0.62748534408E+01 -0.30993868593E+02  0.32569002655E+02  0.10570000000E+00 0. -1.
         13    1    1    2    0    0 -0.77932718018E+01  0.62748534408E+01 -0.31595670442E+02  0.33142215288E+02  0.10570000000E+00 0.  1.
<mgrwt>
<rscale>  0 0.20012840E+02</rscale>
<asrwt>0</asrwt>
<pdfrwt beam="1">  1        4 0.24012920E-03 0.20012840E+02</pdfrwt>
<pdfrwt beam="2">  1       -4 0.98692870E-02 0.20012840E+02</pdfrwt>
<totfact> 0.10890832E+06</totfact>
</mgrwt>
</event>
<event>
 4    1  0.4710515E-007  0.2003155E+02  0.7818608E-02  0.1744701E+00
          4   -1    0    0  501    0  0.00000000000E+00  0.00000000000E+00  0.21399998366E+02  0.21447058774E+02  0.14200000000E+01 0. -1.
         -4   -1    0    0    0  501 -0.00000000000E+00 -0.00000000000E+00 -0.45265698719E+01  0.47440736509E+01  0.14200000000E+01 0.  1.
        -13    1    1    2    0    0 -0.68377181117E+01 -0.73082999315E+01  0.89240042171E+01  0.13409498895E+02  0.10570000000E+00 0.  1.
         13    1    1    2    0    0  0.68377181117E+01  0.73082999315E+01  0.79494242767E+01  0.12781633530E+02  0.10570000000E+00 0. -1.
<mgrwt>
<rscale>  0 0.20031546E+02</rscale>
<asrwt>0</asrwt>
<pdfrwt beam="1">  1        4 0.33126586E-02 0.20031546E+02</pdfrwt>
<pdfrwt beam="2">  1       -4 0.71674645E-03 0.20031546E+02</pdfrwt>
<totfact> 0.12619109E+06</totfact>
</mgrwt>
</event>
<event>
 5    1  0.4710515E-007  0.2000507E+02  0.7818608E-02  0.1745227E+00
          4   -1    0    0  501    0  0.00000000000E+00  0.00000000000E+00  0.20610020180E+02  0.20658880217E+02  0.14200000000E+01 0.  1.
         -4   -1    0    0    0  501 -0.00000000000E+00 -0.00000000000E+00 -0.46947103758E+01  0.49047635532E+01  0.14200000000E+01 0. -1.
       1023    2    1    2    0    0  0.00000000000E+00  0.00000000000E+00  0.15915309804E+02  0.25563643770E+02  0.20005069274E+02 0.  0.
        -13    1    3    3    0    0 -0.90713065325E+01  0.42130893305E+01  0.79938604478E+01  0.12804362587E+02  0.10570000000E+00 0. -1.
         13    1    3    3    0    0  0.90713065325E+01 -0.42130893305E+01  0.79214493566E+01  0.12759281183E+02  0.10570000000E+00 0.  1.
<mgrwt>
<rscale>  0 0.20005069E+02</rscale>
<asrwt>0</asrwt>
<pdfrwt beam="1">  1        4 0.31906887E-02 0.20005069E+02</pdfrwt>
<pdfrwt beam="2">  1       -4 0.74217955E-03 0.20005069E+02</pdfrwt>
<totfact> 0.12687712E+06</totfact>
</mgrwt>
</event>
<event>
 4    1  0.4710515E-007  0.2003416E+02  0.7818608E-02  0.1744650E+00
         -4   -1    0    0    0  501 -0.00000000000E+00  0.00000000000E+00  0.78118766288E+00  0.16206955805E+01  0.14200000000E+01 0. -1.
          4   -1    0    0  501    0  0.00000000000E+00 -0.00000000000E+00 -0.82704978045E+02  0.82717167465E+02  0.14200000000E+01 0.  1.
        -13    1    1    2    0    0 -0.99247469333E+00 -0.99664852489E+01 -0.40447666659E+02  0.41669422180E+02  0.10570000000E+00 0. -1.
         13    1    1    2    0    0  0.99247469333E+00  0.99664852489E+01 -0.41476123724E+02  0.42668440865E+02  0.10570000000E+00 0.  1.
<mgrwt>
<rscale>  0 0.20034164E+02</rscale>
<asrwt>0</asrwt>
<pdfrwt beam="2">  1        4 0.12789354E-01 0.20034164E+02</pdfrwt>
<pdfrwt beam="1">  1       -4 0.18569796E-03 0.20034164E+02</pdfrwt>
<totfact> 0.10236597E+06</totfact>
</mgrwt>
</event>
<event>
 5    1  0.4710515E-007  0.2000240E+02  0.7818608E-02  0.1745280E+00
          4   -1    0    0  501    0  0.00000000000E+00  0.00000000000E+00  0.70413753325E+01  0.71831306945E+01  0.14200000000E+01 0. -1.
         -4   -1    0    0    0  501 -0.00000000000E+00 -0.00000000000E+00 -0.13885295035E+02  0.13957715365E+02  0.14200000000E+01 0.  1.
       1023    2    1    2    0    0  0.00000000000E+00  0.00000000000E+00 -0.68439197022E+01  0.21140846059E+02  0.20002403236E+02 0.  0.
        -13    1    3    3    0    0  0.80097664680E+01 -0.59879660284E+01 -0.33927216311E+01  0.10560957749E+02  0.10570000000E+00 0. -1.
         13    1    3    3    0    0 -0.80097664680E+01  0.59879660284E+01 -0.34511980711E+01  0.10579888310E+02  0.10570000000E+00 0.  1.
<mgrwt>
<rscale>  0 0.20002403E+02</rscale>
<asrwt>0</asrwt>
<pdfrwt beam="1">  1        4 0.10997636E-02 0.20002403E+02</pdfrwt>
<pdfrwt beam="2">  1       -4 0.21526743E-02 0.20002403E+02</pdfrwt>
<totfact> 0.12943273E+06</totfact>
</mgrwt>
</event>
<event>
 5    1  0.4710515E-007  0.2000539E+02  0.7818608E-02  0.1745221E+00
         -4   -1    0    0    0  501 -0.00000000000E+00  0.00000000000E+00  0.31610841364E+00  0.14547592685E+01  0.14200000000E+01 0.  1.
          4   -1    0    0  501    0  0.00000000000E+00 -0.00000000000E+00 -0.11185380294E+03  0.11186281613E+03  0.14200000000E+01 0. -1.
       1023    2    1    2    0    0  0.00000000000E+00  0.00000000000E+00 -0.11153769452E+03  0.11331757539E+03  0.20005389112E+02 0.  0.
        -13    1    3    3    0    0  0.46055350464E+01 -0.88785458874E+01 -0.56089058625E+02  0.56973969496E+02  0.10570000000E+00 0. -1.
         13    1    3    3    0    0 -0.46055350464E+01  0.88785458874E+01 -0.55448635898E+02  0.56343605898E+02  0.10570000000E+00 0.  1.
<mgrwt>
<rscale>  0 0.20005389E+02</rscale>
<asrwt>0</asrwt>
<pdfrwt beam="2">  1        4 0.17296548E-01 0.20005389E+02</pdfrwt>
<pdfrwt beam="1">  1       -4 0.13691400E-03 0.20005389E+02</pdfrwt>
<totfact> 0.94324086E+05</totfact>
</mgrwt>
</event>
<event>
 5    1  0.4719205E-007  0.2000355E+02  0.7818608E-02  0.1745258E+00
          4   -1    0    0  501    0  0.00000000000E+00  0.00000000000E+00  0.35550176608E+02  0.35578525220E+02  0.14200000000E+01 0. -1.
         -4   -1    0    0    0  501 -0.00000000000E+00 -0.00000000000E+00 -0.26033350250E+01  0.29654263188E+01  0.14200000000E+01 0.  1.
       1023    2    1    2    0    0  0.00000000000E+00  0.00000000000E+00  0.32946841583E+02  0.38543951539E+02  0.20003545435E+02 0.  0.
        -13    1    3    3    0    0  0.98777868333E+01 -0.15610213379E+01  0.16223488497E+02  0.19058337070E+02  0.10570000000E+00 0.  1.
         13    1    3    3    0    0 -0.98777868333E+01  0.15610213379E+01  0.16723353085E+02  0.19485614469E+02  0.10570000000E+00 0. -1.
<mgrwt>
<rscale>  0 0.20003545E+02</rscale>
<asrwt>0</asrwt>
<pdfrwt beam="1">  1        4 0.54992918E-02 0.20003545E+02</pdfrwt>
<pdfrwt beam="2">  1       -4 0.43054692E-03 0.20003545E+02</pdfrwt>
<totfact> 0.12026609E+06</totfact>
</mgrwt>
</event>
<event>
 5    1  0.4730641E-007  0.2000211E+02  0.7818608E-02  0.1745286E+00
          4   -1    0    0  501    0  0.00000000000E+00  0.00000000000E+00  0.54656533945E+01  0.56471025339E+01  0.14200000000E+01 0.  1.
         -4   -1    0    0    0  501 -0.00000000000E+00 -0.00000000000E+00 -0.17790928367E+02  0.17847507729E+02  0.14200000000E+01 0. -1.
       1023    2    1    2    0    0  0.00000000000E+00  0.00000000000E+00 -0.12325274972E+02  0.23494610263E+02  0.20002107596E+02 0.  0.
        -13    1    3    3    0    0 -0.98729613795E+01 -0.15903010521E+01 -0.62495960266E+01  0.11792923591E+02  0.10570000000E+00 0.  1.
         13    1    3    3    0    0  0.98729613795E+01  0.15903010521E+01 -0.60756789457E+01  0.11701686672E+02  0.10570000000E+00 0. -1.
<mgrwt>
<rscale>  0 0.20002108E+02</rscale>
<asrwt>0</asrwt>
<pdfrwt beam="1">  1        4 0.85917965E-03 0.20002108E+02</pdfrwt>
<pdfrwt beam="2">  1       -4 0.27553758E-02 0.20002108E+02</pdfrwt>
<totfact> 0.12807621E+06</totfact>
</mgrwt>
</event>
<event>
 4    1  0.4710515E-007  0.2001648E+02  0.7818608E-02  0.1745001E+00
          4   -1    0    0  501    0  0.00000000000E+00  0.00000000000E+00  0.88551706588E+00  0.16734815428E+01  0.14200000000E+01 0.  1.
         -4   -1    0    0    0  501 -0.00000000000E+00 -0.00000000000E+00 -0.77487967983E+02  0.77500977943E+02  0.14200000000E+01 0. -1.
        -13    1    1    2    0    0 -0.58410889930E+01 -0.81260782957E+01 -0.38488662222E+02  0.39768577561E+02  0.10570000000E+00 0. -1.
         13    1    1    2    0    0  0.58410889930E+01  0.81260782957E+01 -0.38113788695E+02  0.39405881925E+02  0.10570000000E+00 0.  1.
<mgrwt>
<rscale>  0 0.20016482E+02</rscale>
<asrwt>0</asrwt>
<pdfrwt beam="1">  1        4 0.19784687E-03 0.20016482E+02</pdfrwt>
<pdfrwt beam="2">  1       -4 0.11982836E-01 0.20016482E+02</pdfrwt>
<totfact> 0.10421021E+06</totfact>
</mgrwt>
</event>
<event>
 4    1  0.4710515E-007  0.2120601E+02  0.7818608E-02  0.1722357E+00
          4   -1    0    0  501    0  0.00000000000E+00  0.00000000000E+00  0.22117278875E+02  0.22162816266E+02  0.14200000000E+01 0.  1.
         -4   -1    0    0    0  501 -0.00000000000E+00 -0.00000000000E+00 -0.49320290503E+01  0.51323786447E+01  0.14200000000E+01 0. -1.
        -13    1    1    2    0    0  0.24338120627E+01 -0.10218801702E+02  0.67428988724E+01  0.12482996718E+02  0.10570000000E+00 0. -1.
         13    1    1    2    0    0 -0.24338120627E+01  0.10218801702E+02  0.10442350952E+02  0.14812198192E+02  0.10570000000E+00 0.  1.
<mgrwt>
<rscale>  0 0.21206010E+02</rscale>
<asrwt>0</asrwt>
<pdfrwt beam="1">  1        4 0.34215727E-02 0.21206010E+02</pdfrwt>
<pdfrwt beam="2">  1       -4 0.77768809E-03 0.21206010E+02</pdfrwt>
<totfact> 0.11168524E+06</totfact>
</mgrwt>
</event>
<event>
 5    1  0.4710515E-007  0.2000781E+02  0.7818608E-02  0.1745173E+00
         -4   -1    0    0    0  501 -0.00000000000E+00  0.00000000000E+00  0.37591658907E+01  0.40184235957E+01  0.14200000000E+01 0. -1.
          4   -1    0    0  501    0  0.00000000000E+00 -0.00000000000E+00 -0.25455284295E+02  0.25494860237E+02  0.14200000000E+01 0.  1.
       1023    2    1    2    0    0  0.00000000000E+00  0.00000000000E+00 -0.21696118404E+02  0.29513283833E+02  0.20007807696E+02 0.  0.
        -13    1    3    3    0    0  0.19790711626E+01 -0.98056176355E+01 -0.10859469220E+02  0.14765029770E+02  0.10570000000E+00 0. -1.
         13    1    3    3    0    0 -0.19790711626E+01  0.98056176355E+01 -0.10836649184E+02  0.14748254063E+02  0.10570000000E+00 0.  1.
<mgrwt>
<rscale>  0 0.20007808E+02</rscale>
<asrwt>0</asrwt>
<pdfrwt beam="2">  1        4 0.39391847E-02 0.20007808E+02</pdfrwt>
<pdfrwt beam="1">  1       -4 0.60132043E-03 0.20007808E+02</pdfrwt>
<totfact> 0.12471343E+06</totfact>
</mgrwt>
</event>
<event>
 4    1  0.4710515E-007  0.2009127E+02  0.7818608E-02  0.1743519E+00
         -4   -1    0    0    0  501 -0.00000000000E+00  0.00000000000E+00  0.20672670303E+01  0.25079858401E+01  0.14200000000E+01 0.  1.
          4   -1    0    0  501    0  0.00000000000E+00 -0.00000000000E+00 -0.43659961266E+02  0.43683047258E+02  0.14200000000E+01 0. -1.
        -13    1    1    2    0    0 -0.44478673247E+01  0.89925536255E+01 -0.21955297178E+02  0.24139092591E+02  0.10570000000E+00 0. -1.
         13    1    1    2    0    0  0.44478673247E+01 -0.89925536255E+01 -0.19637397058E+02  0.22051940508E+02  0.10570000000E+00 0.  1.
<mgrwt>
<rscale>  0 0.20091275E+02</rscale>
<asrwt>0</asrwt>
<pdfrwt beam="2">  1        4 0.67525938E-02 0.20091275E+02</pdfrwt>
<pdfrwt beam="1">  1       -4 0.35371841E-03 0.20091275E+02</pdfrwt>
<totfact> 0.11576434E+06</totfact>
</mgrwt>
</event>
<event>
 4    1  0.4710515E-007  0.2001377E+02  0.7818608E-02  0.1745054E+00
          4   -1    0    0  501    0  0.00000000000E+00  0.00000000000E+00  0.17289644991E+02  0.17347859347E+02  0.14200000000E+01 0.  1.
         -4   -1    0    0    0  501 -0.00000000000E+00 -0.00000000000E+00 -0.56356073794E+01  0.58117527937E+01  0.14200000000E+01 0. -1.
        -13    1    1    2    0    0  0.19554811903E+01 -0.98099095156E+01  0.61295655730E+01  0.11732049181E+02  0.10570000000E+00 0.  1.
         13    1    1    2    0    0 -0.19554811903E+01  0.98099095156E+01  0.55244720386E+01  0.11427562959E+02  0.10570000000E+00 0. -1.
<mgrwt>
<rscale>  0 0.20013771E+02</rscale>
<asrwt>0</asrwt>
<pdfrwt beam="1">  1        4 0.26779730E-02 0.20013771E+02</pdfrwt>
<pdfrwt beam="2">  1       -4 0.88504421E-03 0.20013771E+02</pdfrwt>
<totfact> 0.12811464E+06</totfact>
</mgrwt>
</event>
<event>
 4    1  0.4710515E-007  0.2029697E+02  0.7818608E-02  0.1739486E+00
         -4   -1    0    0    0  501 -0.00000000000E+00  0.00000000000E+00  0.26253416334E+02  0.26291790909E+02  0.14200000000E+01 0.  1.
          4   -1    0    0  501    0  0.00000000000E+00 -0.00000000000E+00 -0.37517843094E+01  0.40115191018E+01  0.14200000000E+01 0. -1.
        -13    1    1    2    0    0  0.59168440607E+01  0.82270154997E+01  0.10449884575E+02  0.14556925767E+02  0.10570000000E+00 0. -1.
         13    1    1    2    0    0 -0.59168440607E+01 -0.82270154997E+01  0.12051747450E+02  0.15746384244E+02  0.10570000000E+00 0.  1.
<mgrwt>
<rscale>  0 0.20296974E+02</rscale>
<asrwt>0</asrwt>
<pdfrwt beam="2">  1        4 0.60012909E-03 0.20296974E+02</pdfrwt>
<pdfrwt beam="1">  1       -4 0.40619185E-02 0.20296974E+02</pdfrwt>
<totfact> 0.12071820E+06</totfact>
</mgrwt>
</event>
<event>
 4    1  0.4710515E-007  0.2002912E+02  0.7818608E-02  0.1744750E+00
         -4   -1    0    0    0  501 -0.00000000000E+00  0.00000000000E+00  0.24158466431E+02  0.24200163229E+02  0.14200000000E+01 0.  1.
          4   -1    0    0  501    0  0.00000000000E+00 -0.00000000000E+00 -0.39832451622E+01  0.42287872993E+01  0.14200000000E+01 0. -1.
        -13    1    1    2    0    0  0.91262311084E+01 -0.41042526499E+01  0.95429267244E+01  0.13827928515E+02  0.10570000000E+00 0. -1.
         13    1    1    2    0    0 -0.91262311084E+01  0.41042526499E+01  0.10632294545E+02  0.14601022013E+02  0.10570000000E+00 0.  1.
<mgrwt>
<rscale>  0 0.20029121E+02</rscale>
<asrwt>0</asrwt>
<pdfrwt beam="2">  1        4 0.63490226E-03 0.20029121E+02</pdfrwt>
<pdfrwt beam="1">  1       -4 0.37387824E-02 0.20029121E+02</pdfrwt>
<totfact> 0.12501579E+06</totfact>
</mgrwt>
</event>
<event>
 5    1  0.4843237E-007  0.2000330E+02  0.7818608E-02  0.1745262E+00
         -4   -1    0    0    0  501 -0.00000000000E+00  0.00000000000E+00  0.29855207962E+02  0.29888958537E+02  0.14200000000E+01 0. -1.
          4   -1    0    0  501    0  0.00000000000E+00 -0.00000000000E+00 -0.31628042508E+01  0.34669483308E+01  0.14200000000E+01 0.  1.
       1023    2    1    2    0    0  0.00000000000E+00  0.00000000000E+00  0.26692403711E+02  0.33355906868E+02  0.20003302405E+02 0.  0.
        -13    1    3    3    0    0 -0.99784688570E+01 -0.67094635504E+00  0.13274584861E+02  0.16620643353E+02  0.10570000000E+00 0. -1.
         13    1    3    3    0    0  0.99784688570E+01  0.67094635504E+00  0.13417818850E+02  0.16735263515E+02  0.10570000000E+00 0.  1.
<mgrwt>
<rscale>  0 0.20003302E+02</rscale>
<asrwt>0</asrwt>
<pdfrwt beam="2">  1        4 0.51257716E-03 0.20003302E+02</pdfrwt>
<pdfrwt beam="1">  1       -4 0.46191008E-02 0.20003302E+02</pdfrwt>
<totfact> 0.12279667E+06</totfact>
</mgrwt>
</event>
<event>
 5    1  0.4710515E-007  0.2000981E+02  0.7818608E-02  0.1745133E+00
          4   -1    0    0  501    0  0.00000000000E+00  0.00000000000E+00  0.92374840538E+02  0.92385754120E+02  0.14200000000E+01 0.  1.
         -4   -1    0    0    0  501 -0.00000000000E+00 -0.00000000000E+00 -0.60262478088E+00  0.15425811572E+01  0.14200000000E+01 0. -1.
       1023    2    1    2    0    0  0.00000000000E+00  0.00000000000E+00  0.91772215757E+02  0.93928335278E+02  0.20009812170E+02 0.  0.
        -13    1    3    3    0    0 -0.64500193420E+01  0.76454282250E+01  0.45050990583E+02  0.46148220412E+02  0.10570000000E+00 0.  1.
         13    1    3    3    0    0  0.64500193420E+01 -0.76454282250E+01  0.46721225174E+02  0.47780114865E+02  0.10570000000E+00 0. -1.
<mgrwt>
<rscale>  0 0.20009812E+02</rscale>
<asrwt>0</asrwt>
<pdfrwt beam="1">  1        4 0.14284662E-01 0.20009812E+02</pdfrwt>
<pdfrwt beam="2">  1       -4 0.16585530E-03 0.20009812E+02</pdfrwt>
<totfact> 0.99678876E+05</totfact>
</mgrwt>
</event>
<event>
 5    1  0.4710515E-007  0.2000178E+02  0.7818608E-02  0.1745293E+00
          4   -1    0    0  501    0  0.00000000000E+00  0.00000000000E+00  0.12327989525E+01  0.18804768697E+01  0.14200000000E+01 0. -1.
         -4   -1    0    0    0  501 -0.00000000000E+00 -0.00000000000E+00 -0.63595186651E+02  0.63611038077E+02  0.14200000000E+01 0.  1.
       1023    2    1    2    0    0  0.00000000000E+00  0.00000000000E+00 -0.62362387699E+02  0.65491514947E+02  0.20001778183E+02 0.  0.
        -13    1    3    3    0    0 -0.56253659664E+01  0.82680303352E+01 -0.31052607571E+02  0.32623314935E+02  0.10570000000E+00 0.  1.
         13    1    3    3    0    0  0.56253659664E+01 -0.82680303352E+01 -0.31309780128E+02  0.32868200012E+02  0.10570000000E+00 0. -1.
<mgrwt>
<rscale>  0 0.20001778E+02</rscale>
<asrwt>0</asrwt>
<pdfrwt beam="1">  1        4 0.24070215E-03 0.20001778E+02</pdfrwt>
<pdfrwt beam="2">  1       -4 0.98349136E-02 0.20001778E+02</pdfrwt>
<totfact> 0.10910975E+06</totfact>
</mgrwt>
</event>
<event>
 5    1  0.4710515E-007  0.2000298E+02  0.7818608E-02  0.1745269E+00
         -4   -1    0    0    0  501 -0.00000000000E+00  0.00000000000E+00  0.91092578796E+01  0.92192721577E+01  0.14200000000E+01 0. -1.
          4   -1    0    0  501    0  0.00000000000E+00 -0.00000000000E+00 -0.10758256538E+02  0.10851565958E+02  0.14200000000E+01 0.  1.
       1023    2    1    2    0    0  0.00000000000E+00  0.00000000000E+00 -0.16489986581E+01  0.20070838115E+02  0.20002983429E+02 0.  0.
        -13    1    3    3    0    0  0.27585289675E+01  0.96129246000E+01 -0.79502966831E+00  0.10032997862E+02  0.10570000000E+00 0. -1.
         13    1    3    3    0    0 -0.27585289675E+01 -0.96129246000E+01 -0.85396898983E+00  0.10037840254E+02  0.10570000000E+00 0.  1.
<mgrwt>
<rscale>  0 0.20002983E+02</rscale>
<asrwt>0</asrwt>
<pdfrwt beam="2">  1        4 0.16707567E-02 0.20002983E+02</pdfrwt>
<pdfrwt beam="1">  1       -4 0.14170646E-02 0.20002983E+02</pdfrwt>
<totfact> 0.13005880E+06</totfact>
</mgrwt>
</event>
<event>
 5    1  0.4710515E-007  0.2000225E+02  0.7818608E-02  0.1745283E+00
          4   -1    0    0  501    0  0.00000000000E+00  0.00000000000E+00  0.17967925524E+02  0.18023949280E+02  0.14200000000E+01 0.  1.
         -4   -1    0    0    0  501 -0.00000000000E+00 -0.00000000000E+00 -0.54102686655E+01  0.55935147298E+01  0.14200000000E+01 0. -1.
       1023    2    1    2    0    0  0.00000000000E+00  0.00000000000E+00  0.12557656858E+02  0.23617464009E+02  0.20002246385E+02 0.  0.
        -13    1    3    3    0    0  0.94313561431E+01  0.33253869479E+01  0.62184421841E+01  0.11776623996E+02  0.10570000000E+00 0. -1.
         13    1    3    3    0    0 -0.94313561431E+01 -0.33253869479E+01  0.63392146743E+01  0.11840840014E+02  0.10570000000E+00 0.  1.
<mgrwt>
<rscale>  0 0.20002246E+02</rscale>
<asrwt>0</asrwt>
<pdfrwt beam="1">  1        4 0.27827016E-02 0.20002246E+02</pdfrwt>
<pdfrwt beam="2">  1       -4 0.85075440E-03 0.20002246E+02</pdfrwt>
<totfact> 0.12800468E+06</totfact>
</mgrwt>
</event>
<event>
 5    1  0.4710515E-007  0.2001158E+02  0.7818608E-02  0.1745098E+00
         -4   -1    0    0    0  501 -0.00000000000E+00  0.00000000000E+00  0.19326772366E+01  0.23982579722E+01  0.14200000000E+01 0. -1.
          4   -1    0    0  501    0  0.00000000000E+00 -0.00000000000E+00 -0.45755112213E+02  0.45777141606E+02  0.14200000000E+01 0.  1.
       1023    2    1    2    0    0  0.00000000000E+00  0.00000000000E+00 -0.43822434977E+02  0.48175399578E+02  0.20011579580E+02 0.  0.
        -13    1    3    3    0    0  0.56911555362E+01 -0.82227282205E+01 -0.22680622218E+02  0.24787583735E+02  0.10570000000E+00 0.  1.
         13    1    3    3    0    0 -0.56911555362E+01  0.82227282205E+01 -0.21141812758E+02  0.23387815843E+02  0.10570000000E+00 0. -1.
<mgrwt>
<rscale>  0 0.20011580E+02</rscale>
<asrwt>0</asrwt>
<pdfrwt beam="2">  1        4 0.70767558E-02 0.20011580E+02</pdfrwt>
<pdfrwt beam="1">  1       -4 0.33484347E-03 0.20011580E+02</pdfrwt>
<totfact> 0.11584100E+06</totfact>
</mgrwt>
</event>
<event>
 5    1  0.4710515E-007  0.2000470E+02  0.7818608E-02  0.1745235E+00
         -4   -1    0    0    0  501 -0.00000000000E+00  0.00000000000E+00  0.14474851012E+02  0.14544336073E+02  0.14200000000E+01 0. -1.
          4   -1    0    0  501    0  0.00000000000E+00 -0.00000000000E+00 -0.67517133407E+01  0.68994226595E+01  0.14200000000E+01 0.  1.
       1023    2    1    2    0    0  0.00000000000E+00  0.00000000000E+00  0.77231376710E+01  0.21443758733E+02  0.20004697776E+02 0.  0.
        -13    1    3    3    0    0  0.42281445638E+01  0.90623496256E+01  0.40545875861E+01  0.10791396581E+02  0.10570000000E+00 0. -1.
         13    1    3    3    0    0 -0.42281445638E+01 -0.90623496256E+01  0.36685500849E+01  0.10652362151E+02  0.10570000000E+00 0.  1.
<mgrwt>
<rscale>  0 0.20004698E+02</rscale>
<asrwt>0</asrwt>
<pdfrwt beam="2">  1        4 0.10554324E-02 0.20004698E+02</pdfrwt>
<pdfrwt beam="1">  1       -4 0.22436074E-02 0.20004698E+02</pdfrwt>
<totfact> 0.12922465E+06</totfact>
</mgrwt>
</event>
<event>
 5    1  0.5000333E-007  0.2000432E+02  0.7818608E-02  0.1745242E+00
          4   -1    0    0  501    0  0.00000000000E+00  0.00000000000E+00  0.30978416944E+02  0.31010945106E+02  0.14200000000E+01 0.  1.
         -4   -1    0    0    0  501 -0.00000000000E+00 -0.00000000000E+00 -0.30373720413E+01  0.33529134969E+01  0.14200000000E+01 0. -1.
       1023    2    1    2    0    0  0.00000000000E+00  0.00000000000E+00  0.27941044903E+02  0.34363858603E+02  0.20004319229E+02 0.  0.
        -13    1    3    3    0    0 -0.10000430754E+02  0.77363134481E-02  0.14233014147E+02  0.17395359707E+02  0.10570000000E+00 0. -1.
         13    1    3    3    0    0  0.10000430754E+02 -0.77363134481E-02  0.13708030756E+02  0.16968498897E+02  0.10570000000E+00 0.  1.
<mgrwt>
<rscale>  0 0.20004319E+02</rscale>
<asrwt>0</asrwt>
<pdfrwt beam="1">  1        4 0.47926848E-02 0.20004319E+02</pdfrwt>
<pdfrwt beam="2">  1       -4 0.49406260E-03 0.20004319E+02</pdfrwt>
<totfact> 0.12228090E+06</totfact>
</mgrwt>
</event>
<event>
 5    1  0.5181641E-007  0.2000142E+02  0.7818608E-02  0.1745300E+00
         -4   -1    0    0    0  501 -0.00000000000E+00  0.00000000000E+00  0.19582867803E+01  0.24189433879E+01  0.14200000000E+01 0.  1.
          4   -1    0    0  501    0  0.00000000000E+00 -0.00000000000E+00 -0.45224502113E+02  0.45246789846E+02  0.14200000000E+01 0. -1.
       1023    2    1    2    0    0  0.00000000000E+00  0.00000000000E+00 -0.43266215333E+02  0.47665733234E+02  0.20001418338E+02 0.  0.
        -13    1    3    3    0    0 -0.91493910545E+01  0.40361654599E+01 -0.21556881351E+02  0.23763675944E+02  0.10570000000E+00 0. -1.
         13    1    3    3    0    0  0.91493910545E+01 -0.40361654599E+01 -0.21709333982E+02  0.23902057291E+02  0.10570000000E+00 0.  1.
<mgrwt>
<rscale>  0 0.20001418E+02</rscale>
<asrwt>0</asrwt>
<pdfrwt beam="2">  1        4 0.69947646E-02 0.20001418E+02</pdfrwt>
<pdfrwt beam="1">  1       -4 0.33842449E-03 0.20001418E+02</pdfrwt>
<totfact> 0.11617859E+06</totfact>
</mgrwt>
</event>
<event>
 4    1  0.4710515E-007  0.2004933E+02  0.7818608E-02  0.1744349E+00
         -4   -1    0    0    0  501 -0.00000000000E+00  0.00000000000E+00  0.14835992595E+02  0.14903794023E+02  0.14200000000E+01 0. -1.
          4   -1    0    0  501    0  0.00000000000E+00 -0.00000000000E+00 -0.66148941433E+01  0.67655912178E+01  0.14200000000E+01 0.  1.
        -13    1    1    2    0    0  0.61202287136E+01  0.79373300810E+01  0.42792668356E+01  0.10898702008E+02  0.10570000000E+00 0.  1.
         13    1    1    2    0    0 -0.61202287136E+01 -0.79373300810E+01  0.39418316162E+01  0.10770683233E+02  0.10570000000E+00 0. -1.
<mgrwt>
<rscale>  0 0.20049334E+02</rscale>
<asrwt>0</asrwt>
<pdfrwt beam="2">  1        4 0.10344836E-02 0.20049334E+02</pdfrwt>
<pdfrwt beam="1">  1       -4 0.22992679E-02 0.20049334E+02</pdfrwt>
<totfact> 0.12850706E+06</totfact>
</mgrwt>
</event>
<event>
 5    1  0.4717451E-007  0.2000142E+02  0.7818608E-02  0.1745300E+00
          4   -1    0    0  501    0  0.00000000000E+00  0.00000000000E+00  0.45783645362E+02  0.45805661033E+02  0.14200000000E+01 0.  1.
         -4   -1    0    0    0  501 -0.00000000000E+00 -0.00000000000E+00 -0.19287239410E+01  0.23950732850E+01  0.14200000000E+01 0. -1.
       1023    2    1    2    0    0  0.00000000000E+00  0.00000000000E+00  0.43854921421E+02  0.48200734318E+02  0.20001416348E+02 0.  0.
        -13    1    3    3    0    0  0.99004252661E+01  0.14086993498E+01  0.21955686019E+02  0.24126047653E+02  0.10570000000E+00 0.  1.
         13    1    3    3    0    0 -0.99004252661E+01 -0.14086993498E+01  0.21899235402E+02  0.24074686665E+02  0.10570000000E+00 0. -1.
<mgrwt>
<rscale>  0 0.20001416E+02</rscale>
<asrwt>0</asrwt>
<pdfrwt beam="1">  1        4 0.70812033E-02 0.20001416E+02</pdfrwt>
<pdfrwt beam="2">  1       -4 0.33429334E-03 0.20001416E+02</pdfrwt>
<totfact> 0.11594901E+06</totfact>
</mgrwt>
</event>
<event>
 5    1  0.4831277E-007  0.2000258E+02  0.7818608E-02  0.1745277E+00
          4   -1    0    0  501    0  0.00000000000E+00  0.00000000000E+00  0.33841889889E+02  0.33871668268E+02  0.14200000000E+01 0. -1.
         -4   -1    0    0    0  501 -0.00000000000E+00 -0.00000000000E+00 -0.27521548528E+01  0.30968946275E+01  0.14200000000E+01 0.  1.
       1023    2    1    2    0    0  0.00000000000E+00  0.00000000000E+00  0.31089735036E+02  0.36968562895E+02  0.20002575283E+02 0.  0.
        -13    1    3    3    0    0  0.98921749213E+01 -0.14662984651E+01  0.15724305106E+02  0.18635184448E+02  0.10570000000E+00 0. -1.
         13    1    3    3    0    0 -0.98921749213E+01  0.14662984651E+01  0.15365429930E+02  0.18333378447E+02  0.10570000000E+00 0.  1.
<mgrwt>
<rscale>  0 0.20002575E+02</rscale>
<asrwt>0</asrwt>
<pdfrwt beam="1">  1        4 0.52352535E-02 0.20002575E+02</pdfrwt>
<pdfrwt beam="2">  1       -4 0.45221754E-03 0.20002575E+02</pdfrwt>
<totfact> 0.12102952E+06</totfact>
</mgrwt>
</event>
<event>
 5    1  0.4710515E-007  0.2000143E+02  0.7818608E-02  0.1745300E+00
          4   -1    0    0  501    0  0.00000000000E+00  0.00000000000E+00  0.83872173579E+02  0.83884193391E+02  0.14200000000E+01 0. -1.
         -4   -1    0    0    0  501 -0.00000000000E+00 -0.00000000000E+00 -0.75324005014E+00  0.16074111400E+01  0.14200000000E+01 0.  1.
       1023    2    1    2    0    0  0.00000000000E+00  0.00000000000E+00  0.83118933529E+02  0.85491604531E+02  0.20001433307E+02 0.  0.
        -13    1    3    3    0    0 -0.75180063812E+01  0.65941273461E+01  0.41495254718E+02  0.42683372313E+02  0.10570000000E+00 0.  1.
         13    1    3    3    0    0  0.75180063812E+01 -0.65941273461E+01  0.41623678811E+02  0.42808232218E+02  0.10570000000E+00 0. -1.
<mgrwt>
<rscale>  0 0.20001433E+02</rscale>
<asrwt>0</asrwt>
<pdfrwt beam="1">  1        4 0.12970043E-01 0.20001433E+02</pdfrwt>
<pdfrwt beam="2">  1       -4 0.18251314E-03 0.20001433E+02</pdfrwt>
<totfact> 0.10233754E+06</totfact>
</mgrwt>
</event>
<event>
 5    1  0.4710515E-007  0.2000976E+02  0.7818608E-02  0.1745134E+00
          4   -1    0    0  501    0  0.00000000000E+00  0.00000000000E+00  0.51582751814E+02  0.51602293405E+02  0.14200000000E+01 0. -1.
         -4   -1    0    0    0  501 -0.00000000000E+00 -0.00000000000E+00 -0.16580923728E+01  0.21830415288E+01  0.14200000000E+01 0.  1.
       1023    2    1    2    0    0  0.00000000000E+00  0.00000000000E+00  0.49924659441E+02  0.53785334934E+02  0.20009763459E+02 0.  0.
        -13    1    3    3    0    0  0.10000438802E+02 -0.22495718672E+00  0.25404855260E+02  0.27303428818E+02  0.10570000000E+00 0. -1.
         13    1    3    3    0    0 -0.10000438802E+02  0.22495718672E+00  0.24519804181E+02  0.26481906116E+02  0.10570000000E+00 0.  1.
<mgrwt>
<rscale>  0 0.20009763E+02</rscale>
<asrwt>0</asrwt>
<pdfrwt beam="1">  1        4 0.79776919E-02 0.20009763E+02</pdfrwt>
<pdfrwt beam="2">  1       -4 0.29697504E-03 0.20009763E+02</pdfrwt>
<totfact> 0.11352724E+06</totfact>
</mgrwt>
</event>
<event>
 4    1  0.4710515E-007  0.2003007E+02  0.7818608E-02  0.1744731E+00
          4   -1    0    0  501    0  0.00000000000E+00  0.00000000000E+00  0.14980585236E+01  0.20641170849E+01  0.14200000000E+01 0.  1.
         -4   -1    0    0    0  501 -0.00000000000E+00 -0.00000000000E+00 -0.55737872910E+02  0.55755958216E+02  0.14200000000E+01 0. -1.
        -13    1    1    2    0    0  0.90260554910E+01 -0.43208754611E+01 -0.26001550115E+02  0.27860930052E+02  0.10570000000E+00 0.  1.
         13    1    1    2    0    0 -0.90260554910E+01  0.43208754611E+01 -0.28238264272E+02  0.29959145249E+02  0.10570000000E+00 0. -1.
<mgrwt>
<rscale>  0 0.20030068E+02</rscale>
<asrwt>0</asrwt>
<pdfrwt beam="1">  1        4 0.27540473E-03 0.20030068E+02</pdfrwt>
<pdfrwt beam="2">  1       -4 0.86199902E-02 0.20030068E+02</pdfrwt>
<totfact> 0.11169428E+06</totfact>
</mgrwt>
</event>
<event>
 5    1  0.4710515E-007  0.2000241E+02  0.7818608E-02  0.1745280E+00
          4   -1    0    0  501    0  0.00000000000E+00  0.00000000000E+00  0.58500066035E+01  0.60198818312E+01  0.14200000000E+01 0.  1.
         -4   -1    0    0    0  501 -0.00000000000E+00 -0.00000000000E+00 -0.16652899084E+02  0.16713331442E+02  0.14200000000E+01 0. -1.
       1023    2    1    2    0    0  0.00000000000E+00  0.00000000000E+00 -0.10802892481E+02  0.22733213274E+02  0.20002412349E+02 0.  0.
        -13    1    3    3    0    0  0.76920788717E+01  0.63908830012E+01 -0.54453101075E+01  0.11387450881E+02  0.10570000000E+00 0.  1.
         13    1    3    3    0    0 -0.76920788717E+01 -0.63908830012E+01 -0.53575823731E+01  0.11345762393E+02  0.10570000000E+00 0. -1.
<mgrwt>
<rscale>  0 0.20002412E+02</rscale>
<asrwt>0</asrwt>
<pdfrwt beam="1">  1        4 0.91771699E-03 0.20002412E+02</pdfrwt>
<pdfrwt beam="2">  1       -4 0.25797004E-02 0.20002412E+02</pdfrwt>
<totfact> 0.12850715E+06</totfact>
</mgrwt>
</event>
<event>
 5    1  0.5378185E-007  0.2000127E+02  0.7818608E-02  0.1745303E+00
          4   -1    0    0  501    0  0.00000000000E+00  0.00000000000E+00  0.12153149315E+01  0.18690613641E+01  0.14200000000E+01 0. -1.
         -4   -1    0    0    0  501 -0.00000000000E+00 -0.00000000000E+00 -0.64187879320E+02  0.64203584414E+02  0.14200000000E+01 0.  1.
       1023    2    1    2    0    0  0.00000000000E+00  0.00000000000E+00 -0.62972564388E+02  0.66072645778E+02  0.20001266321E+02 0.  0.
        -13    1    3    3    0    0 -0.99863378724E+01 -0.52396030364E+00 -0.31498017923E+02  0.33047507985E+02  0.10570000000E+00 0. -1.
         13    1    3    3    0    0  0.99863378724E+01  0.52396030364E+00 -0.31474546465E+02  0.33025137792E+02  0.10570000000E+00 0.  1.
<mgrwt>
<rscale>  0 0.20001266E+02</rscale>
<asrwt>0</asrwt>
<pdfrwt beam="1">  1        4 0.23846785E-03 0.20001266E+02</pdfrwt>
<pdfrwt beam="2">  1       -4 0.99265526E-02 0.20001266E+02</pdfrwt>
<totfact> 0.10890302E+06</totfact>
</mgrwt>
</event>
<event>
 5    1  0.4710515E-007  0.2000136E+02  0.7818608E-02  0.1745301E+00
         -4   -1    0    0    0  501 -0.00000000000E+00  0.00000000000E+00  0.10384229506E+03  0.10385200356E+03  0.14200000000E+01 0. -1.
          4   -1    0    0  501    0  0.00000000000E+00 -0.00000000000E+00 -0.42458480525E+00  0.14821174909E+01  0.14200000000E+01 0.  1.
       1023    2    1    2    0    0  0.00000000000E+00  0.00000000000E+00  0.10341771025E+03  0.10533412105E+03  0.20001356532E+02 0.  0.
        -13    1    3    3    0    0  0.65773096206E+01 -0.75326198513E+01  0.51539869944E+02  0.52501149797E+02  0.10570000000E+00 0. -1.
         13    1    3    3    0    0 -0.65773096206E+01  0.75326198513E+01  0.51877840309E+02  0.52832971252E+02  0.10570000000E+00 0.  1.
<mgrwt>
<rscale>  0 0.20001357E+02</rscale>
<asrwt>0</asrwt>
<pdfrwt beam="2">  1        4 0.14741621E-03 0.20001357E+02</pdfrwt>
<pdfrwt beam="1">  1       -4 0.16057834E-01 0.20001357E+02</pdfrwt>
<totfact> 0.96506240E+05</totfact>
</mgrwt>
</event>
<event>
 5    1  0.4710515E-007  0.2000160E+02  0.7818608E-02  0.1745296E+00
          4   -1    0    0  501    0  0.00000000000E+00  0.00000000000E+00  0.11249862495E+03  0.11250758648E+03  0.14200000000E+01 0. -1.
         -4   -1    0    0    0  501 -0.00000000000E+00 -0.00000000000E+00 -0.30719598129E+00  0.14528487089E+01  0.14200000000E+01 0.  1.
       1023    2    1    2    0    0  0.00000000000E+00  0.00000000000E+00  0.11219142897E+03  0.11396043519E+03  0.20001601298E+02 0.  0.
        -13    1    3    3    0    0 -0.25503891479E+01 -0.96695491424E+01  0.56171238625E+02  0.57054569375E+02  0.10570000000E+00 0. -1.
         13    1    3    3    0    0  0.25503891479E+01  0.96695491424E+01  0.56020190344E+02  0.56905865814E+02  0.10570000000E+00 0.  1.
<mgrwt>
<rscale>  0 0.20001601E+02</rscale>
<asrwt>0</asrwt>
<pdfrwt beam="1">  1        4 0.17396298E-01 0.20001601E+02</pdfrwt>
<pdfrwt beam="2">  1       -4 0.13607740E-03 0.20001601E+02</pdfrwt>
<totfact> 0.94191510E+05</totfact>
</mgrwt>
</event>
<event>
 5    1  0.4710515E-007  0.2000152E+02  0.7818608E-02  0.1745298E+00
         -4   -1    0    0    0  501 -0.00000000000E+00  0.00000000000E+00  0.27857792173E+02  0.27893959646E+02  0.14200000000E+01 0.  1.
          4   -1    0    0  501    0  0.00000000000E+00 -0.00000000000E+00 -0.34096803206E+01  0.36935511217E+01  0.14200000000E+01 0. -1.
       1023    2    1    2    0    0  0.00000000000E+00  0.00000000000E+00  0.24448111852E+02  0.31587510768E+02  0.20001516527E+02 0.  0.
        -13    1    3    3    0    0  0.87623692754E+01 -0.48192196099E+01  0.12225038223E+02  0.15794515662E+02  0.10570000000E+00 0. -1.
         13    1    3    3    0    0 -0.87623692754E+01  0.48192196099E+01  0.12223073629E+02  0.15792995106E+02  0.10570000000E+00 0.  1.
<mgrwt>
<rscale>  0 0.20001517E+02</rscale>
<asrwt>0</asrwt>
<pdfrwt beam="2">  1        4 0.54918453E-03 0.20001517E+02</pdfrwt>
<pdfrwt beam="1">  1       -4 0.43104326E-02 0.20001517E+02</pdfrwt>
<totfact> 0.12371679E+06</totfact>
</mgrwt>
</event>
<event>
 5    1  0.4710515E-007  0.2000445E+02  0.7818608E-02  0.1745240E+00
          4   -1    0    0  501    0  0.00000000000E+00  0.00000000000E+00  0.93497612760E+02  0.93508395301E+02  0.14200000000E+01 0.  1.
         -4   -1    0    0    0  501 -0.00000000000E+00 -0.00000000000E+00 -0.58320219547E+00  0.15350976519E+01  0.14200000000E+01 0. -1.
       1023    2    1    2    0    0  0.00000000000E+00  0.00000000000E+00  0.92914410564E+02  0.95043492953E+02  0.20004446060E+02 0.  0.
        -13    1    3    3    0    0 -0.62354574323E+01  0.78192215045E+01  0.45933746537E+02  0.47010013803E+02  0.10570000000E+00 0. -1.
         13    1    3    3    0    0  0.62354574323E+01 -0.78192215045E+01  0.46980664027E+02  0.48033479150E+02  0.10570000000E+00 0.  1.
<mgrwt>
<rscale>  0 0.20004446E+02</rscale>
<asrwt>0</asrwt>
<pdfrwt beam="1">  1        4 0.14458305E-01 0.20004446E+02</pdfrwt>
<pdfrwt beam="2">  1       -4 0.16377551E-03 0.20004446E+02</pdfrwt>
<totfact> 0.99403049E+05</totfact>
</mgrwt>
</event>
<event>
 5    1  0.4710515E-007  0.2000500E+02  0.7818608E-02  0.1745229E+00
          4   -1    0    0  501    0  0.00000000000E+00  0.00000000000E+00  0.93698104707E+02  0.93708864179E+02  0.14200000000E+01 0.  1.
         -4   -1    0    0    0  501 -0.00000000000E+00 -0.00000000000E+00 -0.58000182487E+00  0.15338846491E+01  0.14200000000E+01 0. -1.
       1023    2    1    2    0    0  0.00000000000E+00  0.00000000000E+00  0.93118102882E+02  0.95242748828E+02  0.20005002373E+02 0.  0.
        -13    1    3    3    0    0  0.96497832747E+01  0.26266841150E+01  0.45867962593E+02  0.46945702164E+02  0.10570000000E+00 0. -1.
         13    1    3    3    0    0 -0.96497832747E+01 -0.26266841150E+01  0.47250140289E+02  0.48297046665E+02  0.10570000000E+00 0.  1.
<mgrwt>
<rscale>  0 0.20005002E+02</rscale>
<asrwt>0</asrwt>
<pdfrwt beam="1">  1        4 0.14489295E-01 0.20005002E+02</pdfrwt>
<pdfrwt beam="2">  1       -4 0.16343432E-03 0.20005002E+02</pdfrwt>
<totfact> 0.99338978E+05</totfact>
</mgrwt>
</event>
<event>
 5    1  0.4710515E-007  0.2000119E+02  0.7818608E-02  0.1745304E+00
          4   -1    0    0  501    0  0.00000000000E+00  0.00000000000E+00  0.90369772259E+01  0.91478608090E+01  0.14200000000E+01 0. -1.
         -4   -1    0    0    0  501 -0.00000000000E+00 -0.00000000000E+00 -0.10842019399E+02  0.10934614060E+02  0.14200000000E+01 0.  1.
       1023    2    1    2    0    0  0.00000000000E+00  0.00000000000E+00 -0.18050421729E+01  0.20082474869E+02  0.20001190455E+02 0.  0.
        -13    1    3    3    0    0 -0.99033491855E+01  0.13871832949E+01 -0.89108043632E+00  0.10040209132E+02  0.10570000000E+00 0.  1.
         13    1    3    3    0    0  0.99033491855E+01 -0.13871832949E+01 -0.91396173662E+00  0.10042265737E+02  0.10570000000E+00 0. -1.
<mgrwt>
<rscale>  0 0.20001190E+02</rscale>
<asrwt>0</asrwt>
<pdfrwt beam="1">  1        4 0.14059564E-02 0.20001190E+02</pdfrwt>
<pdfrwt beam="2">  1       -4 0.16836552E-02 0.20001190E+02</pdfrwt>
<totfact> 0.13007570E+06</totfact>
</mgrwt>
</event>
<event>
 4    1  0.4710515E-007  0.2001308E+02  0.7818608E-02  0.1745068E+00
          4   -1    0    0  501    0  0.00000000000E+00  0.00000000000E+00  0.57722451992E+02  0.57739915691E+02  0.14200000000E+01 0. -1.
         -4   -1    0    0    0  501 -0.00000000000E+00 -0.00000000000E+00 -0.14233179368E+01  0.20105307631E+01  0.14200000000E+01 0.  1.
        -13    1    1    2    0    0 -0.68999172490E+01  0.72411971771E+01  0.28971938014E+02  0.30650092322E+02  0.10570000000E+00 0. -1.
         13    1    1    2    0    0  0.68999172490E+01 -0.72411971771E+01  0.27327196042E+02  0.29100354132E+02  0.10570000000E+00 0.  1.
<mgrwt>
<rscale>  0 0.20013080E+02</rscale>
<asrwt>0</asrwt>
<pdfrwt beam="1">  1        4 0.89268916E-02 0.20013080E+02</pdfrwt>
<pdfrwt beam="2">  1       -4 0.26548555E-03 0.20013080E+02</pdfrwt>
<totfact> 0.11113817E+06</totfact>
</mgrwt>
</event>
<event>
 5    1  0.4710515E-007  0.2000170E+02  0.7818608E-02  0.1745294E+00
         -4   -1    0    0    0  501 -0.00000000000E+00  0.00000000000E+00  0.18058420512E+02  0.18114164386E+02  0.14200000000E+01 0.  1.
          4   -1    0    0  501    0  0.00000000000E+00 -0.00000000000E+00 -0.53820145180E+01  0.55661908225E+01  0.14200000000E+01 0. -1.
       1023    2    1    2    0    0  0.00000000000E+00  0.00000000000E+00  0.12676405994E+02  0.23680355208E+02  0.20001698774E+02 0.  0.
        -13    1    3    3    0    0 -0.55984024097E+01  0.82860961861E+01  0.62604201896E+01  0.11798539443E+02  0.10570000000E+00 0. -1.
         13    1    3    3    0    0  0.55984024097E+01 -0.82860961861E+01  0.64159858045E+01  0.11881815765E+02  0.10570000000E+00 0.  1.
<mgrwt>
<rscale>  0 0.20001699E+02</rscale>
<asrwt>0</asrwt>
<pdfrwt beam="2">  1        4 0.84645762E-03 0.20001699E+02</pdfrwt>
<pdfrwt beam="1">  1       -4 0.27966740E-02 0.20001699E+02</pdfrwt>
<totfact> 0.12797617E+06</totfact>
</mgrwt>
</event>
<event>
 5    1  0.4710515E-007  0.2000494E+02  0.7818608E-02  0.1745230E+00
          4   -1    0    0  501    0  0.00000000000E+00  0.00000000000E+00  0.55012952447E+01  0.56816062315E+01  0.14200000000E+01 0.  1.
         -4   -1    0    0    0  501 -0.00000000000E+00 -0.00000000000E+00 -0.17684055118E+02  0.17740975323E+02  0.14200000000E+01 0. -1.
       1023    2    1    2    0    0  0.00000000000E+00  0.00000000000E+00 -0.12182759873E+02  0.23422581555E+02  0.20004941603E+02 0.  0.
        -13    1    3    3    0    0  0.16294544855E+01  0.98682888740E+01 -0.60932038156E+01  0.11712239429E+02  0.10570000000E+00 0.  1.
         13    1    3    3    0    0 -0.16294544855E+01 -0.98682888740E+01 -0.60895560576E+01  0.11710342125E+02  0.10570000000E+00 0. -1.
<mgrwt>
<rscale>  0 0.20004942E+02</rscale>
<asrwt>0</asrwt>
<pdfrwt beam="1">  1        4 0.86460168E-03 0.20004942E+02</pdfrwt>
<pdfrwt beam="2">  1       -4 0.27388724E-02 0.20004942E+02</pdfrwt>
<totfact> 0.12808016E+06</totfact>
</mgrwt>
</event>
<event>
 5    1  0.4710515E-007  0.2000230E+02  0.7818608E-02  0.1745282E+00
          4   -1    0    0  501    0  0.00000000000E+00  0.00000000000E+00  0.36044998500E+01  0.38741217287E+01  0.14200000000E+01 0. -1.
         -4   -1    0    0    0  501 -0.00000000000E+00 -0.00000000000E+00 -0.26459693184E+02  0.26497769027E+02  0.14200000000E+01 0.  1.
       1023    2    1    2    0    0  0.00000000000E+00  0.00000000000E+00 -0.22855193334E+02  0.30371890755E+02  0.20002297011E+02 0.  0.
        -13    1    3    3    0    0 -0.74939454517E+01  0.66212592358E+01 -0.11264717242E+02  0.15063376757E+02  0.10570000000E+00 0.  1.
         13    1    3    3    0    0  0.74939454517E+01 -0.66212592358E+01 -0.11590476092E+02  0.15308513998E+02  0.10570000000E+00 0. -1.
<mgrwt>
<rscale>  0 0.20002297E+02</rscale>
<asrwt>0</asrwt>
<pdfrwt beam="1">  1        4 0.57820751E-03 0.20002297E+02</pdfrwt>
<pdfrwt beam="2">  1       -4 0.40943910E-02 0.20002297E+02</pdfrwt>
<totfact> 0.12433460E+06</totfact>
</mgrwt>
</event>
<event>
 5    1  0.4710515E-007  0.2000292E+02  0.7818608E-02  0.1745270E+00
          4   -1    0    0  501    0  0.00000000000E+00  0.00000000000E+00  0.26740893639E+00  0.14449593556E+01  0.14200000000E+01 0.  1.
         -4   -1    0    0    0  501 -0.00000000000E+00 -0.00000000000E+00 -0.11564650156E+03  0.11565521918E+03  0.14200000000E+01 0. -1.
       1023    2    1    2    0    0  0.00000000000E+00  0.00000000000E+00 -0.11537909262E+03  0.11710017853E+03  0.20002919734E+02 0.  0.
        -13    1    3    3    0    0 -0.51939849669E+01 -0.85459156062E+01 -0.58209004789E+02  0.59061912976E+02  0.10570000000E+00 0. -1.
         13    1    3    3    0    0  0.51939849669E+01  0.85459156062E+01 -0.57170087833E+02  0.58038265556E+02  0.10570000000E+00 0.  1.
<mgrwt>
<rscale>  0 0.20002920E+02</rscale>
<asrwt>0</asrwt>
<pdfrwt beam="1">  1        4 0.13239132E-03 0.20002920E+02</pdfrwt>
<pdfrwt beam="2">  1       -4 0.17883008E-01 0.20002920E+02</pdfrwt>
<totfact> 0.93367497E+05</totfact>
</mgrwt>
</event>
<event>
 4    1  0.4710515E-007  0.2002166E+02  0.7818608E-02  0.1744898E+00
          4   -1    0    0  501    0  0.00000000000E+00  0.00000000000E+00  0.39844626189E+02  0.39869921446E+02  0.14200000000E+01 0. -1.
         -4   -1    0    0    0  501 -0.00000000000E+00 -0.00000000000E+00 -0.22865019144E+01  0.26915592143E+01  0.14200000000E+01 0.  1.
        -13    1    1    2    0    0  0.98857401783E+01 -0.15460798262E+01  0.18150825368E+02  0.20726356548E+02  0.10570000000E+00 0. -1.
         13    1    1    2    0    0 -0.98857401783E+01  0.15460798262E+01  0.19407298906E+02  0.21835124113E+02  0.10570000000E+00 0.  1.
<mgrwt>
<rscale>  0 0.20021662E+02</rscale>
<asrwt>0</asrwt>
<pdfrwt beam="1">  1        4 0.61630462E-02 0.20021662E+02</pdfrwt>
<pdfrwt beam="2">  1       -4 0.38487359E-03 0.20021662E+02</pdfrwt>
<totfact> 0.11819106E+06</totfact>
</mgrwt>
</event>
<event>
 5    1  0.4710515E-007  0.2000395E+02  0.7818608E-02  0.1745249E+00
         -4   -1    0    0    0  501 -0.00000000000E+00  0.00000000000E+00  0.19646998434E+01  0.24241380891E+01  0.14200000000E+01 0. -1.
          4   -1    0    0  501    0  0.00000000000E+00 -0.00000000000E+00 -0.45116392035E+02  0.45138733148E+02  0.14200000000E+01 0.  1.
       1023    2    1    2    0    0  0.00000000000E+00  0.00000000000E+00 -0.43151692191E+02  0.47562871237E+02  0.20003954143E+02 0.  0.
        -13    1    3    3    0    0 -0.98554815695E+01  0.17002858989E+01 -0.21773117744E+02  0.23960411472E+02  0.10570000000E+00 0. -1.
         13    1    3    3    0    0  0.98554815695E+01 -0.17002858989E+01 -0.21378574447E+02  0.23602459766E+02  0.10570000000E+00 0.  1.
<mgrwt>
<rscale>  0 0.20003954E+02</rscale>
<asrwt>0</asrwt>
<pdfrwt beam="2">  1        4 0.69780427E-02 0.20003954E+02</pdfrwt>
<pdfrwt beam="1">  1       -4 0.33932150E-03 0.20003954E+02</pdfrwt>
<totfact> 0.11619313E+06</totfact>
</mgrwt>
</event>
<event>
 5    1  0.4710515E-007  0.2000262E+02  0.7818608E-02  0.1745276E+00
         -4   -1    0    0    0  501 -0.00000000000E+00  0.00000000000E+00  0.44376652154E+02  0.44399365496E+02  0.14200000000E+01 0. -1.
          4   -1    0    0  501    0  0.00000000000E+00 -0.00000000000E+00 -0.20046937177E+01  0.24566637746E+01  0.14200000000E+01 0.  1.
       1023    2    1    2    0    0  0.00000000000E+00  0.00000000000E+00  0.42371958437E+02  0.46856029270E+02  0.20002615260E+02 0.  0.
        -13    1    3    3    0    0  0.90628382114E+01  0.42282088867E+01  0.21076231852E+02  0.23328769972E+02  0.10570000000E+00 0. -1.
         13    1    3    3    0    0 -0.90628382114E+01 -0.42282088867E+01  0.21295726585E+02  0.23527259299E+02  0.10570000000E+00 0.  1.
<mgrwt>
<rscale>  0 0.20002615E+02</rscale>
<asrwt>0</asrwt>
<pdfrwt beam="2">  1        4 0.34492857E-03 0.20002615E+02</pdfrwt>
<pdfrwt beam="1">  1       -4 0.68636905E-02 0.20002615E+02</pdfrwt>
<totfact> 0.11651435E+06</totfact>
</mgrwt>
</event>
<event>
 5    1  0.4809239E-007  0.2000219E+02  0.7818608E-02  0.1745284E+00
          4   -1    0    0  501    0  0.00000000000E+00  0.00000000000E+00  0.11578195470E+01  0.18321970701E+01  0.14200000000E+01 0. -1.
         -4   -1    0    0    0  501 -0.00000000000E+00 -0.00000000000E+00 -0.66220215227E+02  0.66235438436E+02  0.14200000000E+01 0.  1.
       1023    2    1    2    0    0  0.00000000000E+00  0.00000000000E+00 -0.65062395680E+02  0.68067635506E+02  0.20002191672E+02 0.  0.
        -13    1    3    3    0    0 -0.97656473905E+01  0.21528667220E+01 -0.32226037893E+02  0.33742130858E+02  0.10570000000E+00 0. -1.
         13    1    3    3    0    0  0.97656473905E+01 -0.21528667220E+01 -0.32836357787E+02  0.34325504647E+02  0.10570000000E+00 0.  1.
<mgrwt>
<rscale>  0 0.20002192E+02</rscale>
<asrwt>0</asrwt>
<pdfrwt beam="1">  1        4 0.23117235E-03 0.20002192E+02</pdfrwt>
<pdfrwt beam="2">  1       -4 0.10240769E-01 0.20002192E+02</pdfrwt>
<totfact> 0.10817175E+06</totfact>
</mgrwt>
</event>
<event>
 5    1  0.4710515E-007  0.2000200E+02  0.7818608E-02  0.1745288E+00
          4   -1    0    0  501    0  0.00000000000E+00  0.00000000000E+00  0.17719974378E+01  0.22707652718E+01  0.14200000000E+01 0. -1.
         -4   -1    0    0    0  501 -0.00000000000E+00 -0.00000000000E+00 -0.48970700581E+02  0.48991284076E+02  0.14200000000E+01 0.  1.
       1023    2    1    2    0    0  0.00000000000E+00  0.00000000000E+00 -0.47198703144E+02  0.51262049348E+02  0.20002003023E+02 0.  0.
        -13    1    3    3    0    0 -0.29933848058E+01 -0.95418948731E+01 -0.23669461976E+02  0.25695577695E+02  0.10570000000E+00 0. -1.
         13    1    3    3    0    0  0.29933848058E+01  0.95418948731E+01 -0.23529241168E+02  0.25566471653E+02  0.10570000000E+00 0.  1.
<mgrwt>
<rscale>  0 0.20002003E+02</rscale>
<asrwt>0</asrwt>
<pdfrwt beam="1">  1        4 0.31256513E-03 0.20002003E+02</pdfrwt>
<pdfrwt beam="2">  1       -4 0.75739031E-02 0.20002003E+02</pdfrwt>
<totfact> 0.11465149E+06</totfact>
</mgrwt>
</event>
<event>
 5    1  0.5062918E-007  0.2000267E+02  0.7818608E-02  0.1745275E+00
          4   -1    0    0  501    0  0.00000000000E+00  0.00000000000E+00  0.86705999579E+01  0.87861085601E+01  0.14200000000E+01 0. -1.
         -4   -1    0    0    0  501 -0.00000000000E+00 -0.00000000000E+00 -0.11299734695E+02  0.11388608527E+02  0.14200000000E+01 0.  1.
       1023    2    1    2    0    0  0.00000000000E+00  0.00000000000E+00 -0.26291347373E+01  0.20174717087E+02  0.20002671324E+02 0.  0.
        -13    1    3    3    0    0 -0.54499293661E+01  0.83852255719E+01 -0.12717220984E+01  0.10081775021E+02  0.10570000000E+00 0.  1.
         13    1    3    3    0    0  0.54499293661E+01 -0.83852255719E+01 -0.13574126388E+01  0.10092942066E+02  0.10570000000E+00 0. -1.
<mgrwt>
<rscale>  0 0.20002671E+02</rscale>
<asrwt>0</asrwt>
<pdfrwt beam="1">  1        4 0.13496602E-02 0.20002671E+02</pdfrwt>
<pdfrwt beam="2">  1       -4 0.17541424E-02 0.20002671E+02</pdfrwt>
<totfact> 0.13000107E+06</totfact>
</mgrwt>
</event>
<event>
 5    1  0.4710515E-007  0.2000807E+02  0.7818608E-02  0.1745168E+00
          4   -1    0    0  501    0  0.00000000000E+00  0.00000000000E+00  0.11033549422E+02  0.11124550007E+02  0.14200000000E+01 0.  1.
         -4   -1    0    0    0  501 -0.00000000000E+00 -0.00000000000E+00 -0.88857257552E+01  0.89984733259E+01  0.14200000000E+01 0. -1.
       1023    2    1    2    0    0  0.00000000000E+00  0.00000000000E+00  0.21478236669E+01  0.20123023333E+02  0.20008071410E+02 0.  0.
        -13    1    3    3    0    0 -0.98248309203E+01  0.18688922455E+01  0.85015428507E+00  0.10037628985E+02  0.10570000000E+00 0.  1.
         13    1    3    3    0    0  0.98248309203E+01 -0.18688922455E+01  0.12976693819E+01  0.10085394348E+02  0.10570000000E+00 0. -1.
<mgrwt>
<rscale>  0 0.20008071E+02</rscale>
<asrwt>0</asrwt>
<pdfrwt beam="1">  1        4 0.17131421E-02 0.20008071E+02</pdfrwt>
<pdfrwt beam="2">  1       -4 0.13827077E-02 0.20008071E+02</pdfrwt>
<totfact> 0.12996033E+06</totfact>
</mgrwt>
</event>
<event>
 4    1  0.4710515E-007  0.2008021E+02  0.7818608E-02  0.1743738E+00
         -4   -1    0    0    0  501 -0.00000000000E+00  0.00000000000E+00  0.12785034902E+01  0.19107514685E+01  0.14200000000E+01 0.  1.
          4   -1    0    0  501    0  0.00000000000E+00 -0.00000000000E+00 -0.62572698240E+02  0.62588808625E+02  0.14200000000E+01 0. -1.
        -13    1    1    2    0    0 -0.87797732910E+01 -0.48682219998E+01 -0.30349938238E+02  0.31967388508E+02  0.10570000000E+00 0. -1.
         13    1    1    2    0    0  0.87797732910E+01  0.48682219998E+01 -0.30944256512E+02  0.32532171585E+02  0.10570000000E+00 0.  1.
<mgrwt>
<rscale>  0 0.20080213E+02</rscale>
<asrwt>0</asrwt>
<pdfrwt beam="2">  1        4 0.96764408E-02 0.20080213E+02</pdfrwt>
<pdfrwt beam="1">  1       -4 0.24656661E-03 0.20080213E+02</pdfrwt>
<totfact> 0.10861651E+06</totfact>
</mgrwt>
</event>
<event>
 5    1  0.4710515E-007  0.2000273E+02  0.7818608E-02  0.1745274E+00
         -4   -1    0    0    0  501 -0.00000000000E+00  0.00000000000E+00  0.33418805780E+01  0.36310557414E+01  0.14200000000E+01 0.  1.
          4   -1    0    0  501    0  0.00000000000E+00 -0.00000000000E+00 -0.28382483761E+02  0.28417983469E+02  0.14200000000E+01 0. -1.
       1023    2    1    2    0    0  0.00000000000E+00  0.00000000000E+00 -0.25040603183E+02  0.32049039210E+02  0.20002727477E+02 0.  0.
        -13    1    3    3    0    0  0.72872645722E+01  0.68489843363E+01 -0.12428361303E+02  0.15952684682E+02  0.10570000000E+00 0.  1.
         13    1    3    3    0    0 -0.72872645722E+01 -0.68489843363E+01 -0.12612241879E+02  0.16096354528E+02  0.10570000000E+00 0. -1.
<mgrwt>
<rscale>  0 0.20002727E+02</rscale>
<asrwt>0</asrwt>
<pdfrwt beam="2">  1        4 0.43915108E-02 0.20002727E+02</pdfrwt>
<pdfrwt beam="1">  1       -4 0.53911048E-03 0.20002727E+02</pdfrwt>
<totfact> 0.12346542E+06</totfact>
</mgrwt>
</event>
<event>
 4    1  0.4710515E-007  0.2002445E+02  0.7818608E-02  0.1744842E+00
          4   -1    0    0  501    0  0.00000000000E+00  0.00000000000E+00  0.18565260381E+02  0.18619486916E+02  0.14200000000E+01 0.  1.
         -4   -1    0    0    0  501 -0.00000000000E+00 -0.00000000000E+00 -0.52428971913E+01  0.54317926101E+01  0.14200000000E+01 0. -1.
        -13    1    1    2    0    0  0.12418694885E+01 -0.99317070253E+01  0.69362684342E+01  0.12178014475E+02  0.10570000000E+00 0. -1.
         13    1    1    2    0    0 -0.12418694885E+01  0.99317070253E+01  0.63860947554E+01  0.11873265051E+02  0.10570000000E+00 0.  1.
<mgrwt>
<rscale>  0 0.20024452E+02</rscale>
<asrwt>0</asrwt>
<pdfrwt beam="1">  1        4 0.28748956E-02 0.20024452E+02</pdfrwt>
<pdfrwt beam="2">  1       -4 0.82530126E-03 0.20024452E+02</pdfrwt>
<totfact> 0.12747090E+06</totfact>
</mgrwt>
</event>
<event>
 4    1  0.4710515E-007  0.2004174E+02  0.7818608E-02  0.1744499E+00
         -4   -1    0    0    0  501 -0.00000000000E+00  0.00000000000E+00  0.74216434452E+01  0.75562683534E+01  0.14200000000E+01 0. -1.
          4   -1    0    0  501    0  0.00000000000E+00 -0.00000000000E+00 -0.13235853030E+02  0.13311806993E+02  0.14200000000E+01 0.  1.
        -13    1    1    2    0    0 -0.36019582740E+01  0.93292455335E+01 -0.35638115608E+01  0.10617007627E+02  0.10570000000E+00 0. -1.
         13    1    1    2    0    0  0.36019582740E+01 -0.93292455335E+01 -0.22503980240E+01  0.10251067719E+02  0.10570000000E+00 0.  1.
<mgrwt>
<rscale>  0 0.20041745E+02</rscale>
<asrwt>0</asrwt>
<pdfrwt beam="2">  1        4 0.20524835E-02 0.20041745E+02</pdfrwt>
<pdfrwt beam="1">  1       -4 0.11579897E-02 0.20041745E+02</pdfrwt>
<totfact> 0.12907503E+06</totfact>
</mgrwt>
</event>
<event>
 5    1  0.4710515E-007  0.2000259E+02  0.7818608E-02  0.1745277E+00
          4   -1    0    0  501    0  0.00000000000E+00  0.00000000000E+00  0.31019768322E+01  0.34115480750E+01  0.14200000000E+01 0. -1.
         -4   -1    0    0    0  501 -0.00000000000E+00 -0.00000000000E+00 -0.30386339628E+02  0.30419500916E+02  0.14200000000E+01 0.  1.
       1023    2    1    2    0    0  0.00000000000E+00  0.00000000000E+00 -0.27284362795E+02  0.33831048991E+02  0.20002585399E+02 0.  0.
        -13    1    3    3    0    0 -0.81231690316E+01  0.58330790420E+01 -0.13535252867E+02  0.16829287831E+02  0.10570000000E+00 0. -1.
         13    1    3    3    0    0  0.81231690316E+01 -0.58330790420E+01 -0.13749109928E+02  0.17001761160E+02  0.10570000000E+00 0.  1.
<mgrwt>
<rscale>  0 0.20002585E+02</rscale>
<asrwt>0</asrwt>
<pdfrwt beam="1">  1        4 0.50359127E-03 0.20002585E+02</pdfrwt>
<pdfrwt beam="2">  1       -4 0.47011853E-02 0.20002585E+02</pdfrwt>
<totfact> 0.12256764E+06</totfact>
</mgrwt>
</event>
<event>
 5    1  0.4710515E-007  0.2000129E+02  0.7818608E-02  0.1745302E+00
         -4   -1    0    0    0  501 -0.00000000000E+00  0.00000000000E+00  0.75796504948E+00  0.16096307080E+01  0.14200000000E+01 0. -1.
          4   -1    0    0  501    0  0.00000000000E+00 -0.00000000000E+00 -0.83624944422E+02  0.83636999764E+02  0.14200000000E+01 0.  1.
       1023    2    1    2    0    0  0.00000000000E+00  0.00000000000E+00 -0.82866979373E+02  0.85246630472E+02  0.20001293372E+02 0.  0.
        -13    1    3    3    0    0  0.99326335777E+01  0.11587904545E+01 -0.41612117440E+02  0.42796956614E+02  0.10570000000E+00 0. -1.
         13    1    3    3    0    0 -0.99326335777E+01 -0.11587904545E+01 -0.41254861933E+02  0.42449673859E+02  0.10570000000E+00 0.  1.
<mgrwt>
<rscale>  0 0.20001293E+02</rscale>
<asrwt>0</asrwt>
<pdfrwt beam="2">  1        4 0.12931812E-01 0.20001293E+02</pdfrwt>
<pdfrwt beam="1">  1       -4 0.18305015E-03 0.20001293E+02</pdfrwt>
<totfact> 0.10241606E+06</totfact>
</mgrwt>
</event>
<event>
 5    1  0.4710515E-007  0.2000236E+02  0.7818608E-02  0.1745281E+00
          4   -1    0    0  501    0  0.00000000000E+00  0.00000000000E+00  0.38994260167E+02  0.39020106689E+02  0.14200000000E+01 0. -1.
         -4   -1    0    0    0  501 -0.00000000000E+00 -0.00000000000E+00 -0.23397270002E+01  0.27369184196E+01  0.14200000000E+01 0.  1.
       1023    2    1    2    0    0  0.00000000000E+00  0.00000000000E+00  0.36654533167E+02  0.41757025108E+02  0.20002358466E+02 0.  0.
        -13    1    3    3    0    0 -0.55267756314E+01 -0.83345834390E+01  0.18417869036E+02  0.20958043857E+02  0.10570000000E+00 0. -1.
         13    1    3    3    0    0  0.55267756314E+01  0.83345834390E+01  0.18236664131E+02  0.20798981252E+02  0.10570000000E+00 0.  1.
<mgrwt>
<rscale>  0 0.20002358E+02</rscale>
<asrwt>0</asrwt>
<pdfrwt beam="1">  1        4 0.60316582E-02 0.20002358E+02</pdfrwt>
<pdfrwt beam="2">  1       -4 0.39249939E-03 0.20002358E+02</pdfrwt>
<totfact> 0.11878772E+06</totfact>
</mgrwt>
</event>
<event>
 4    1  0.4710515E-007  0.2003972E+02  0.7818608E-02  0.1744539E+00
         -4   -1    0    0    0  501 -0.00000000000E+00  0.00000000000E+00  0.14083182075E+02  0.14154589975E+02  0.14200000000E+01 0. -1.
          4   -1    0    0  501    0  0.00000000000E+00 -0.00000000000E+00 -0.69676707792E+01  0.71108955897E+01  0.14200000000E+01 0.  1.
        -13    1    1    2    0    0  0.90572603109E+01  0.42837214959E+01  0.35081281574E+01  0.10616137238E+02  0.10570000000E+00 0.  1.
         13    1    1    2    0    0 -0.90572603109E+01 -0.42837214959E+01  0.36073831388E+01  0.10649348327E+02  0.10570000000E+00 0. -1.
<mgrwt>
<rscale>  0 0.20039720E+02</rscale>
<asrwt>0</asrwt>
<pdfrwt beam="2">  1        4 0.10884595E-02 0.20039720E+02</pdfrwt>
<pdfrwt beam="1">  1       -4 0.21831536E-02 0.20039720E+02</pdfrwt>
<totfact> 0.12886837E+06</totfact>
</mgrwt>
</event>
<event>
 5    1  0.4971875E-007  0.2000136E+02  0.7818608E-02  0.1745301E+00
         -4   -1    0    0    0  501 -0.00000000000E+00  0.00000000000E+00  0.30763636445E+01  0.33882758555E+01  0.14200000000E+01 0.  1.
          4   -1    0    0  501    0  0.00000000000E+00 -0.00000000000E+00 -0.30612580439E+02  0.30645496914E+02  0.14200000000E+01 0. -1.
       1023    2    1    2    0    0  0.00000000000E+00  0.00000000000E+00 -0.27536216794E+02  0.34033772770E+02  0.20001361294E+02 0.  0.
        -13    1    3    3    0    0  0.62212669798E+00  0.99807272914E+01 -0.13805466195E+02  0.17047112021E+02  0.10570000000E+00 0.  1.
         13    1    3    3    0    0 -0.62212669798E+00 -0.99807272914E+01 -0.13730750599E+02  0.16986660749E+02  0.10570000000E+00 0. -1.
<mgrwt>
<rscale>  0 0.20001361E+02</rscale>
<asrwt>0</asrwt>
<pdfrwt beam="2">  1        4 0.47361529E-02 0.20001361E+02</pdfrwt>
<pdfrwt beam="1">  1       -4 0.49981202E-03 0.20001361E+02</pdfrwt>
<totfact> 0.12248173E+06</totfact>
</mgrwt>
</event>
<event>
 4    1  0.4710515E-007  0.2001632E+02  0.7818608E-02  0.1745004E+00
         -4   -1    0    0    0  501 -0.00000000000E+00  0.00000000000E+00  0.92915816283E+01  0.93994621737E+01  0.14200000000E+01 0.  1.
          4   -1    0    0  501    0  0.00000000000E+00 -0.00000000000E+00 -0.10562112041E+02  0.10657138958E+02  0.14200000000E+01 0. -1.
        -13    1    1    2    0    0 -0.29458776145E+01 -0.95608896229E+01 -0.88731181158E+00  0.10044267024E+02  0.10570000000E+00 0.  1.
         13    1    1    2    0    0  0.29458776145E+01  0.95608896229E+01 -0.38321860103E+00  0.10012334108E+02  0.10570000000E+00 0. -1.
<mgrwt>
<rscale>  0 0.20016318E+02</rscale>
<asrwt>0</asrwt>
<pdfrwt beam="2">  1        4 0.16405486E-02 0.20016318E+02</pdfrwt>
<pdfrwt beam="1">  1       -4 0.14450824E-02 0.20016318E+02</pdfrwt>
<totfact> 0.12989034E+06</totfact>
</mgrwt>
</event>
<event>
 5    1  0.4762066E-007  0.2000125E+02  0.7818608E-02  0.1745303E+00
          4   -1    0    0  501    0  0.00000000000E+00  0.00000000000E+00  0.23649293732E+02  0.23691886670E+02  0.14200000000E+01 0.  1.
         -4   -1    0    0    0  501 -0.00000000000E+00 -0.00000000000E+00 -0.40619499823E+01  0.43030033301E+01  0.14200000000E+01 0. -1.
       1023    2    1    2    0    0  0.00000000000E+00  0.00000000000E+00  0.19587343749E+02  0.27994890000E+02  0.20001245736E+02 0.  0.
        -13    1    3    3    0    0  0.82189818917E+01 -0.56964561401E+01  0.97893889317E+01  0.13994448329E+02  0.10570000000E+00 0. -1.
         13    1    3    3    0    0 -0.82189818917E+01  0.56964561401E+01  0.97979548176E+01  0.14000441671E+02  0.10570000000E+00 0.  1.
<mgrwt>
<rscale>  0 0.20001246E+02</rscale>
<asrwt>0</asrwt>
<pdfrwt beam="1">  1        4 0.36601719E-02 0.20001246E+02</pdfrwt>
<pdfrwt beam="2">  1       -4 0.64673432E-03 0.20001246E+02</pdfrwt>
<totfact> 0.12560233E+06</totfact>
</mgrwt>
</event>
<event>
 5    1  0.4710515E-007  0.2000578E+02  0.7818608E-02  0.1745213E+00
         -4   -1    0    0    0  501 -0.00000000000E+00  0.00000000000E+00  0.72196159017E+02  0.72210122399E+02  0.14200000000E+01 0. -1.
          4   -1    0    0  501    0  0.00000000000E+00 -0.00000000000E+00 -0.10043042870E+01  0.17392605040E+01  0.14200000000E+01 0.  1.
       1023    2    1    2    0    0  0.00000000000E+00  0.00000000000E+00  0.71191854730E+02  0.73949382903E+02  0.20005775460E+02 0.  0.
        -13    1    3    3    0    0  0.90621424701E+01  0.42329497540E+01  0.35889336079E+02  0.37257159130E+02  0.10570000000E+00 0.  1.
         13    1    3    3    0    0 -0.90621424701E+01 -0.42329497540E+01  0.35302518651E+02  0.36692223773E+02  0.10570000000E+00 0. -1.
<mgrwt>
<rscale>  0 0.20005775E+02</rscale>
<asrwt>0</asrwt>
<pdfrwt beam="2">  1        4 0.21211755E-03 0.20005775E+02</pdfrwt>
<pdfrwt beam="1">  1       -4 0.11164710E-01 0.20005775E+02</pdfrwt>
<totfact> 0.10607386E+06</totfact>
</mgrwt>
</event>
<event>
 5    1  0.4710515E-007  0.2000521E+02  0.7818608E-02  0.1745224E+00
          4   -1    0    0  501    0  0.00000000000E+00  0.00000000000E+00  0.93821751525E+02  0.93832496818E+02  0.14200000000E+01 0.  1.
         -4   -1    0    0    0  501 -0.00000000000E+00 -0.00000000000E+00 -0.57801265537E+00  0.15331335981E+01  0.14200000000E+01 0. -1.
       1023    2    1    2    0    0  0.00000000000E+00  0.00000000000E+00  0.93243738869E+02  0.95365630417E+02  0.20005214980E+02 0.  0.
        -13    1    3    3    0    0  0.27266557196E+01 -0.96229502879E+01  0.46279423073E+02  0.47347988300E+02  0.10570000000E+00 0.  1.
         13    1    3    3    0    0 -0.27266557196E+01  0.96229502879E+01  0.46964315797E+02  0.48017642116E+02  0.10570000000E+00 0. -1.
<mgrwt>
<rscale>  0 0.20005215E+02</rscale>
<asrwt>0</asrwt>
<pdfrwt beam="1">  1        4 0.14508412E-01 0.20005215E+02</pdfrwt>
<pdfrwt beam="2">  1       -4 0.16322244E-03 0.20005215E+02</pdfrwt>
<totfact> 0.99300793E+05</totfact>
</mgrwt>
</event>
<event>
 5    1  0.4710515E-007  0.2000506E+02  0.7818608E-02  0.1745228E+00
          4   -1    0    0  501    0  0.00000000000E+00  0.00000000000E+00  0.16554267659E+01  0.21810176013E+01  0.14200000000E+01 0. -1.
         -4   -1    0    0    0  501 -0.00000000000E+00 -0.00000000000E+00 -0.51621282789E+02  0.51640809800E+02  0.14200000000E+01 0.  1.
       1023    2    1    2    0    0  0.00000000000E+00  0.00000000000E+00 -0.49965856023E+02  0.53821827401E+02  0.20005057777E+02 0.  0.
        -13    1    3    3    0    0 -0.97170686279E+01 -0.23639958477E+01 -0.24520736151E+02  0.26481834773E+02  0.10570000000E+00 0.  1.
         13    1    3    3    0    0  0.97170686279E+01  0.23639958477E+01 -0.25445119872E+02  0.27339992627E+02  0.10570000000E+00 0. -1.
<mgrwt>
<rscale>  0 0.20005058E+02</rscale>
<asrwt>0</asrwt>
<pdfrwt beam="1">  1        4 0.29661322E-03 0.20005058E+02</pdfrwt>
<pdfrwt beam="2">  1       -4 0.79836669E-02 0.20005058E+02</pdfrwt>
<totfact> 0.11356628E+06</totfact>
</mgrwt>
</event>
<event>
 5    1  0.4732566E-007  0.2000224E+02  0.7818608E-02  0.1745284E+00
          4   -1    0    0  501    0  0.00000000000E+00  0.00000000000E+00  0.21112743684E+02  0.21160442950E+02  0.14200000000E+01 0. -1.
         -4   -1    0    0    0  501 -0.00000000000E+00 -0.00000000000E+00 -0.45767576398E+01  0.47919839830E+01  0.14200000000E+01 0.  1.
       1023    2    1    2    0    0  0.00000000000E+00  0.00000000000E+00  0.16535986044E+02  0.25952426933E+02  0.20002240607E+02 0.  0.
        -13    1    3    3    0    0 -0.97808491239E+01 -0.20845989989E+01  0.83016339593E+01  0.12997648305E+02  0.10570000000E+00 0.  1.
         13    1    3    3    0    0  0.97808491239E+01  0.20845989989E+01  0.82343520847E+01  0.12954778629E+02  0.10570000000E+00 0. -1.
<mgrwt>
<rscale>  0 0.20002241E+02</rscale>
<asrwt>0</asrwt>
<pdfrwt beam="1">  1        4 0.32683395E-02 0.20002241E+02</pdfrwt>
<pdfrwt beam="2">  1       -4 0.72434160E-03 0.20002241E+02</pdfrwt>
<totfact> 0.12669898E+06</totfact>
</mgrwt>
</event>
<event>
 4    1  0.4710515E-007  0.2005163E+02  0.7818608E-02  0.1744303E+00
         -4   -1    0    0    0  501 -0.00000000000E+00  0.00000000000E+00  0.12905568058E+01  0.19188373743E+01  0.14200000000E+01 0. -1.
          4   -1    0    0  501    0  0.00000000000E+00 -0.00000000000E+00 -0.62001205694E+02  0.62017464536E+02  0.14200000000E+01 0.  1.
        -13    1    1    2    0    0  0.99534227264E+01 -0.10672394097E+01 -0.32090561623E+02  0.33615843611E+02  0.10570000000E+00 0. -1.
         13    1    1    2    0    0 -0.99534227264E+01  0.10672394097E+01 -0.28620087265E+02  0.30320458300E+02  0.10570000000E+00 0.  1.
<mgrwt>
<rscale>  0 0.20051629E+02</rscale>
<asrwt>0</asrwt>
<pdfrwt beam="2">  1        4 0.95882251E-02 0.20051629E+02</pdfrwt>
<pdfrwt beam="1">  1       -4 0.24812720E-03 0.20051629E+02</pdfrwt>
<totfact> 0.10913555E+06</totfact>
</mgrwt>
</event>
<event>
 4    1  0.4710515E-007  0.2001402E+02  0.7818608E-02  0.1745049E+00
          4   -1    0    0  501    0  0.00000000000E+00  0.00000000000E+00  0.15879934904E+01  0.21302871463E+01  0.14200000000E+01 0.  1.
         -4   -1    0    0    0  501 -0.00000000000E+00 -0.00000000000E+00 -0.53310600522E+02  0.53329508980E+02  0.14200000000E+01 0. -1.
        -13    1    1    2    0    0  0.34941308135E+01 -0.93743837060E+01 -0.25299972787E+02  0.27206392916E+02  0.10570000000E+00 0.  1.
         13    1    1    2    0    0 -0.34941308135E+01  0.93743837060E+01 -0.26422634245E+02  0.28253403210E+02  0.10570000000E+00 0. -1.
<mgrwt>
<rscale>  0 0.20014018E+02</rscale>
<asrwt>0</asrwt>
<pdfrwt beam="1">  1        4 0.28747613E-03 0.20014018E+02</pdfrwt>
<pdfrwt beam="2">  1       -4 0.82447991E-02 0.20014018E+02</pdfrwt>
<totfact> 0.11280577E+06</totfact>
</mgrwt>
</event>
<event>
 5    1  0.5173329E-007  0.2000143E+02  0.7818608E-02  0.1745300E+00
          4   -1    0    0  501    0  0.00000000000E+00  0.00000000000E+00  0.37496552691E+01  0.40095279819E+01  0.14200000000E+01 0. -1.
         -4   -1    0    0    0  501 -0.00000000000E+00 -0.00000000000E+00 -0.25499310786E+02  0.25538818504E+02  0.14200000000E+01 0.  1.
       1023    2    1    2    0    0  0.00000000000E+00  0.00000000000E+00 -0.21749655517E+02  0.29548346486E+02  0.20001431572E+02 0.  0.
        -13    1    3    3    0    0 -0.95493120372E+01  0.29685107306E+01 -0.10936227795E+02  0.14819367976E+02  0.10570000000E+00 0. -1.
         13    1    3    3    0    0  0.95493120372E+01 -0.29685107306E+01 -0.10813427722E+02  0.14728978509E+02  0.10570000000E+00 0.  1.
<mgrwt>
<rscale>  0 0.20001432E+02</rscale>
<asrwt>0</asrwt>
<pdfrwt beam="1">  1        4 0.59989932E-03 0.20001432E+02</pdfrwt>
<pdfrwt beam="2">  1       -4 0.39460000E-02 0.20001432E+02</pdfrwt>
<totfact> 0.12477583E+06</totfact>
</mgrwt>
</event>
<event>
 5    1  0.5131798E-007  0.2000341E+02  0.7818608E-02  0.1745260E+00
         -4   -1    0    0    0  501 -0.00000000000E+00  0.00000000000E+00  0.13225050469E+02  0.13301066119E+02  0.14200000000E+01 0. -1.
          4   -1    0    0  501    0  0.00000000000E+00 -0.00000000000E+00 -0.73985837120E+01  0.75336207061E+01  0.14200000000E+01 0.  1.
       1023    2    1    2    0    0  0.00000000000E+00  0.00000000000E+00  0.58264667566E+01  0.20834686825E+02  0.20003411215E+02 0.  0.
        -13    1    3    3    0    0  0.41883897753E+01 -0.90806270676E+01  0.27568412337E+01  0.10373608000E+02  0.10570000000E+00 0. -1.
         13    1    3    3    0    0 -0.41883897753E+01  0.90806270676E+01  0.30696255229E+01  0.10461078825E+02  0.10570000000E+00 0.  1.
<mgrwt>
<rscale>  0 0.20003411E+02</rscale>
<asrwt>0</asrwt>
<pdfrwt beam="2">  1        4 0.11544785E-02 0.20003411E+02</pdfrwt>
<pdfrwt beam="1">  1       -4 0.20508579E-02 0.20003411E+02</pdfrwt>
<totfact> 0.12960012E+06</totfact>
</mgrwt>
</event>
<event>
 5    1  0.4710515E-007  0.2000281E+02  0.7818608E-02  0.1745272E+00
         -4   -1    0    0    0  501 -0.00000000000E+00  0.00000000000E+00  0.26091927900E+01  0.29705701499E+01  0.14200000000E+01 0.  1.
          4   -1    0    0  501    0  0.00000000000E+00 -0.00000000000E+00 -0.35477401592E+02  0.35505808310E+02  0.14200000000E+01 0. -1.
       1023    2    1    2    0    0  0.00000000000E+00  0.00000000000E+00 -0.32868208802E+02  0.38476378460E+02  0.20002813540E+02 0.  0.
        -13    1    3    3    0    0  0.12764747738E+01  0.99187995894E+01 -0.16298201315E+02  0.19122094858E+02  0.10570000000E+00 0.  1.
         13    1    3    3    0    0 -0.12764747738E+01 -0.99187995894E+01 -0.16570007487E+02  0.19354283602E+02  0.10570000000E+00 0. -1.
<mgrwt>
<rscale>  0 0.20002814E+02</rscale>
<asrwt>0</asrwt>
<pdfrwt beam="2">  1        4 0.54880449E-02 0.20002814E+02</pdfrwt>
<pdfrwt beam="1">  1       -4 0.43139769E-03 0.20002814E+02</pdfrwt>
<totfact> 0.12030697E+06</totfact>
</mgrwt>
</event>
<event>
 4    1  0.4710515E-007  0.2002331E+02  0.7818608E-02  0.1744865E+00
          4   -1    0    0  501    0  0.00000000000E+00  0.00000000000E+00  0.64823060336E+01  0.66360147312E+01  0.14200000000E+01 0. -1.
         -4   -1    0    0    0  501 -0.00000000000E+00 -0.00000000000E+00 -0.15093995023E+02  0.15160642657E+02  0.14200000000E+01 0.  1.
        -13    1    1    2    0    0  0.43093695992E+01  0.90361103349E+01 -0.43188477683E+01  0.10903466186E+02  0.10570000000E+00 0. -1.
         13    1    1    2    0    0 -0.43093695992E+01 -0.90361103349E+01 -0.42928412216E+01  0.10893191202E+02  0.10570000000E+00 0.  1.
<mgrwt>
<rscale>  0 0.20023314E+02</rscale>
<asrwt>0</asrwt>
<pdfrwt beam="1">  1        4 0.10142283E-02 0.20023314E+02</pdfrwt>
<pdfrwt beam="2">  1       -4 0.23391036E-02 0.20023314E+02</pdfrwt>
<totfact> 0.12877407E+06</totfact>
</mgrwt>
</event>
<event>
 5    1  0.4710515E-007  0.2000811E+02  0.7818608E-02  0.1745167E+00
         -4   -1    0    0    0  501 -0.00000000000E+00  0.00000000000E+00  0.24794451254E+01  0.28572798480E+01  0.14200000000E+01 0.  1.
          4   -1    0    0  501    0  0.00000000000E+00 -0.00000000000E+00 -0.37114199127E+02  0.37141353998E+02  0.14200000000E+01 0. -1.
       1023    2    1    2    0    0  0.00000000000E+00  0.00000000000E+00 -0.34634754001E+02  0.39998633846E+02  0.20008111476E+02 0.  0.
        -13    1    3    3    0    0  0.82989812654E+01 -0.55837017593E+01 -0.17593974267E+02  0.20238822060E+02  0.10570000000E+00 0.  1.
         13    1    3    3    0    0 -0.82989812654E+01  0.55837017593E+01 -0.17040779734E+02  0.19759811786E+02  0.10570000000E+00 0. -1.
<mgrwt>
<rscale>  0 0.20008111E+02</rscale>
<asrwt>0</asrwt>
<pdfrwt beam="2">  1        4 0.57410295E-02 0.20008111E+02</pdfrwt>
<pdfrwt beam="1">  1       -4 0.41260617E-03 0.20008111E+02</pdfrwt>
<totfact> 0.11952858E+06</totfact>
</mgrwt>
</event>
<event>
 5    1  0.4710515E-007  0.2000325E+02  0.7818608E-02  0.1745263E+00
          4   -1    0    0  501    0  0.00000000000E+00  0.00000000000E+00  0.15753887361E+02  0.15817754803E+02  0.14200000000E+01 0.  1.
         -4   -1    0    0    0  501 -0.00000000000E+00 -0.00000000000E+00 -0.61924642655E+01  0.63531892526E+01  0.14200000000E+01 0. -1.
       1023    2    1    2    0    0  0.00000000000E+00  0.00000000000E+00  0.95614230959E+01  0.22170944055E+02  0.20003248453E+02 0.  0.
        -13    1    3    3    0    0 -0.75950032092E+00 -0.99721100481E+01  0.48235686967E+01  0.11103954566E+02  0.10570000000E+00 0.  1.
         13    1    3    3    0    0  0.75950032092E+00  0.99721100481E+01  0.47378543992E+01  0.11066989489E+02  0.10570000000E+00 0. -1.
<mgrwt>
<rscale>  0 0.20003248E+02</rscale>
<asrwt>0</asrwt>
<pdfrwt beam="1">  1        4 0.24409513E-02 0.20003248E+02</pdfrwt>
<pdfrwt beam="2">  1       -4 0.96996317E-03 0.20003248E+02</pdfrwt>
<totfact> 0.12882046E+06</totfact>
</mgrwt>
</event>
<event>
 5    1  0.4727822E-007  0.2000172E+02  0.7818608E-02  0.1745294E+00
          4   -1    0    0  501    0  0.00000000000E+00  0.00000000000E+00  0.36357585278E+02  0.36385304825E+02  0.14200000000E+01 0.  1.
         -4   -1    0    0    0  501 -0.00000000000E+00 -0.00000000000E+00 -0.25369044108E+01  0.29072812024E+01  0.14200000000E+01 0. -1.
       1023    2    1    2    0    0  0.00000000000E+00  0.00000000000E+00  0.33820680867E+02  0.39292586028E+02  0.20001721487E+02 0.  0.
        -13    1    3    3    0    0  0.99008246297E+01  0.14070224429E+01  0.16907162855E+02  0.19643557947E+02  0.10570000000E+00 0.  1.
         13    1    3    3    0    0 -0.99008246297E+01 -0.14070224429E+01  0.16913518012E+02  0.19649028081E+02  0.10570000000E+00 0. -1.
<mgrwt>
<rscale>  0 0.20001721E+02</rscale>
<asrwt>0</asrwt>
<pdfrwt beam="1">  1        4 0.56240974E-02 0.20001721E+02</pdfrwt>
<pdfrwt beam="2">  1       -4 0.42091579E-03 0.20001721E+02</pdfrwt>
<totfact> 0.11993573E+06</totfact>
</mgrwt>
</event>
<event>
 4    1  0.4710515E-007  0.2001505E+02  0.7818608E-02  0.1745029E+00
          4   -1    0    0  501    0  0.00000000000E+00  0.00000000000E+00  0.18975037727E+01  0.23700043391E+01  0.14200000000E+01 0. -1.
         -4   -1    0    0    0  501 -0.00000000000E+00 -0.00000000000E+00 -0.46451786888E+02  0.46473486044E+02  0.14200000000E+01 0.  1.
        -13    1    1    2    0    0  0.99521646402E+01  0.10249480253E+01 -0.21769162826E+02  0.23958374780E+02  0.10570000000E+00 0. -1.
         13    1    1    2    0    0 -0.99521646402E+01 -0.10249480253E+01 -0.22785120289E+02  0.24885115603E+02  0.10570000000E+00 0.  1.
<mgrwt>
<rscale>  0 0.20015055E+02</rscale>
<asrwt>0</asrwt>
<pdfrwt beam="1">  1        4 0.32993905E-03 0.20015055E+02</pdfrwt>
<pdfrwt beam="2">  1       -4 0.71844434E-02 0.20015055E+02</pdfrwt>
<totfact> 0.11551574E+06</totfact>
</mgrwt>
</event>
<event>
 4    1  0.4710515E-007  0.2003955E+02  0.7818608E-02  0.1744543E+00
          4   -1    0    0  501    0  0.00000000000E+00  0.00000000000E+00  0.26803285827E+02  0.26840874262E+02  0.14200000000E+01 0. -1.
         -4   -1    0    0    0  501 -0.00000000000E+00 -0.00000000000E+00 -0.35692994537E+01  0.38413927930E+01  0.14200000000E+01 0.  1.
        -13    1    1    2    0    0 -0.99951781126E+01 -0.67087336449E+00  0.11347338821E+02  0.15136939168E+02  0.10570000000E+00 0.  1.
         13    1    1    2    0    0  0.99951781126E+01  0.67087336449E+00  0.11886647553E+02  0.15545327887E+02  0.10570000000E+00 0. -1.
<mgrwt>
<rscale>  0 0.20039546E+02</rscale>
<asrwt>0</asrwt>
<pdfrwt beam="1">  1        4 0.41474041E-02 0.20039546E+02</pdfrwt>
<pdfrwt beam="2">  1       -4 0.57294467E-03 0.20039546E+02</pdfrwt>
<totfact> 0.12370506E+06</totfact>
</mgrwt>
</event>
<event>
 5    1  0.4872218E-007  0.2000229E+02  0.7818608E-02  0.1745283E+00
         -4   -1    0    0    0  501 -0.00000000000E+00  0.00000000000E+00  0.10762110090E+02  0.10855386386E+02  0.14200000000E+01 0. -1.
          4   -1    0    0  501    0  0.00000000000E+00 -0.00000000000E+00 -0.91053376300E+01  0.92153987085E+01  0.14200000000E+01 0.  1.
       1023    2    1    2    0    0  0.00000000000E+00  0.00000000000E+00  0.16567724600E+01  0.20070785094E+02  0.20002287852E+02 0.  0.
        -13    1    3    3    0    0 -0.16514754818E+01  0.98627954864E+01  0.73006462567E+00  0.10027276446E+02  0.10570000000E+00 0. -1.
         13    1    3    3    0    0  0.16514754818E+01 -0.98627954864E+01  0.92670783434E+00  0.10043508649E+02  0.10570000000E+00 0.  1.
<mgrwt>
<rscale>  0 0.20002288E+02</rscale>
<asrwt>0</asrwt>
<pdfrwt beam="2">  1        4 0.14164625E-02 0.20002288E+02</pdfrwt>
<pdfrwt beam="1">  1       -4 0.16713506E-02 0.20002288E+02</pdfrwt>
<totfact> 0.13006806E+06</totfact>
</mgrwt>
</event>
<event>
 5    1  0.4710515E-007  0.2000280E+02  0.7818608E-02  0.1745272E+00
         -4   -1    0    0    0  501 -0.00000000000E+00  0.00000000000E+00  0.10970537112E+01  0.17944154606E+01  0.14200000000E+01 0. -1.
          4   -1    0    0  501    0  0.00000000000E+00 -0.00000000000E+00 -0.68481868501E+02  0.68496589064E+02  0.14200000000E+01 0.  1.
       1023    2    1    2    0    0  0.00000000000E+00  0.00000000000E+00 -0.67384814790E+02  0.70291004525E+02  0.20002801124E+02 0.  0.
        -13    1    3    3    0    0 -0.35115281436E+00  0.99946717339E+01 -0.33663145054E+02  0.35117449777E+02  0.10570000000E+00 0. -1.
         13    1    3    3    0    0  0.35115281436E+00 -0.99946717339E+01 -0.33721669736E+02  0.35173554748E+02  0.10570000000E+00 0.  1.
<mgrwt>
<rscale>  0 0.20002801E+02</rscale>
<asrwt>0</asrwt>
<pdfrwt beam="2">  1        4 0.10590445E-01 0.20002801E+02</pdfrwt>
<pdfrwt beam="1">  1       -4 0.22355311E-03 0.20002801E+02</pdfrwt>
<totfact> 0.10737521E+06</totfact>
</mgrwt>
</event>
<event>
 5    1  0.4710515E-007  0.2000361E+02  0.7818608E-02  0.1745256E+00
          4   -1    0    0  501    0  0.00000000000E+00  0.00000000000E+00  0.63745595774E+02  0.63761409807E+02  0.14200000000E+01 0. -1.
         -4   -1    0    0    0  501 -0.00000000000E+00 -0.00000000000E+00 -0.12287085401E+01  0.18777978263E+01  0.14200000000E+01 0.  1.
       1023    2    1    2    0    0  0.00000000000E+00  0.00000000000E+00  0.62516887234E+02  0.65639207634E+02  0.20003609407E+02 0.  0.
        -13    1    3    3    0    0 -0.43744594783E+01  0.89932992062E+01  0.31579925616E+02  0.33125793587E+02  0.10570000000E+00 0.  1.
         13    1    3    3    0    0  0.43744594783E+01 -0.89932992062E+01  0.30936961618E+02  0.32513414047E+02  0.10570000000E+00 0. -1.
<mgrwt>
<rscale>  0 0.20003609E+02</rscale>
<asrwt>0</asrwt>
<pdfrwt beam="1">  1        4 0.98581623E-02 0.20003609E+02</pdfrwt>
<pdfrwt beam="2">  1       -4 0.24017846E-03 0.20003609E+02</pdfrwt>
<totfact> 0.10903563E+06</totfact>
</mgrwt>
</event>
<event>
 5    1  0.5402153E-007  0.2000214E+02  0.7818608E-02  0.1745285E+00
          4   -1    0    0  501    0  0.00000000000E+00  0.00000000000E+00  0.63827139729E+01  0.65387642303E+01  0.14200000000E+01 0. -1.
         -4   -1    0    0    0  501 -0.00000000000E+00 -0.00000000000E+00 -0.15292080514E+02  0.15357868551E+02  0.14200000000E+01 0.  1.
       1023    2    1    2    0    0  0.00000000000E+00  0.00000000000E+00 -0.89093665409E+01  0.21896632782E+02  0.20002142761E+02 0.  0.
        -13    1    3    3    0    0 -0.95242224772E+01  0.30481514454E+01 -0.43554606183E+01  0.10907944385E+02  0.10570000000E+00 0.  1.
         13    1    3    3    0    0  0.95242224772E+01 -0.30481514454E+01 -0.45539059227E+01  0.10988688396E+02  0.10570000000E+00 0. -1.
<mgrwt>
<rscale>  0 0.20002143E+02</rscale>
<asrwt>0</asrwt>
<pdfrwt beam="1">  1        4 0.99902049E-03 0.20002143E+02</pdfrwt>
<pdfrwt beam="2">  1       -4 0.23696922E-02 0.20002143E+02</pdfrwt>
<totfact> 0.12899410E+06</totfact>
</mgrwt>
</event>
<event>
 5    1  0.4710515E-007  0.2000644E+02  0.7818608E-02  0.1745200E+00
          4   -1    0    0  501    0  0.00000000000E+00  0.00000000000E+00  0.14709478087E+02  0.14777859980E+02  0.14200000000E+01 0.  1.
         -4   -1    0    0    0  501 -0.00000000000E+00 -0.00000000000E+00 -0.66433531715E+01  0.67934189744E+01  0.14200000000E+01 0. -1.
       1023    2    1    2    0    0  0.00000000000E+00  0.00000000000E+00  0.80661249155E+01  0.21571278955E+02  0.20006441577E+02 0.  0.
        -13    1    3    3    0    0  0.19229347669E+01  0.98151292656E+01  0.38851735817E+01  0.10730339550E+02  0.10570000000E+00 0.  1.
         13    1    3    3    0    0 -0.19229347669E+01 -0.98151292656E+01  0.41809513338E+01  0.10840939404E+02  0.10570000000E+00 0. -1.
<mgrwt>
<rscale>  0 0.20006442E+02</rscale>
<asrwt>0</asrwt>
<pdfrwt beam="1">  1        4 0.22798003E-02 0.20006442E+02</pdfrwt>
<pdfrwt beam="2">  1       -4 0.10388580E-02 0.20006442E+02</pdfrwt>
<totfact> 0.12912711E+06</totfact>
</mgrwt>
</event>
<event>
 5    1  0.4743215E-007  0.2000264E+02  0.7818608E-02  0.1745276E+00
         -4   -1    0    0    0  501 -0.00000000000E+00  0.00000000000E+00  0.29239411070E+01  0.32505125130E+01  0.14200000000E+01 0.  1.
          4   -1    0    0  501    0  0.00000000000E+00 -0.00000000000E+00 -0.32056961850E+02  0.32088396704E+02  0.14200000000E+01 0. -1.
       1023    2    1    2    0    0  0.00000000000E+00  0.00000000000E+00 -0.29133020743E+02  0.35338909217E+02  0.20002640002E+02 0.  0.
        -13    1    3    3    0    0  0.99998296096E+01  0.11599869944E+00 -0.14439339546E+02  0.17564616333E+02  0.10570000000E+00 0. -1.
         13    1    3    3    0    0 -0.99998296096E+01 -0.11599869944E+00 -0.14693681197E+02  0.17774292884E+02  0.10570000000E+00 0.  1.
<mgrwt>
<rscale>  0 0.20002640E+02</rscale>
<asrwt>0</asrwt>
<pdfrwt beam="2">  1        4 0.49593790E-02 0.20002640E+02</pdfrwt>
<pdfrwt beam="1">  1       -4 0.47737606E-03 0.20002640E+02</pdfrwt>
<totfact> 0.12182064E+06</totfact>
</mgrwt>
</event>
<event>
 4    1  0.4710515E-007  0.2002462E+02  0.7818608E-02  0.1744839E+00
         -4   -1    0    0    0  501 -0.00000000000E+00  0.00000000000E+00  0.64938695869E+01  0.66473109007E+01  0.14200000000E+01 0. -1.
          4   -1    0    0  501    0  0.00000000000E+00 -0.00000000000E+00 -0.15069619814E+02  0.15136374776E+02  0.14200000000E+01 0.  1.
        -13    1    1    2    0    0 -0.99433715180E+01 -0.11347427159E+01 -0.39861735760E+01  0.10773069685E+02  0.10570000000E+00 0.  1.
         13    1    1    2    0    0  0.99433715180E+01  0.11347427159E+01 -0.45895766516E+01  0.11010615991E+02  0.10570000000E+00 0. -1.
<mgrwt>
<rscale>  0 0.20024622E+02</rscale>
<asrwt>0</asrwt>
<pdfrwt beam="2">  1        4 0.23353412E-02 0.20024622E+02</pdfrwt>
<pdfrwt beam="1">  1       -4 0.10159950E-02 0.20024622E+02</pdfrwt>
<totfact> 0.12876445E+06</totfact>
</mgrwt>
</event>
<event>
 5    1  0.4710515E-007  0.2000351E+02  0.7818608E-02  0.1745258E+00
          4   -1    0    0  501    0  0.00000000000E+00  0.00000000000E+00  0.18487386040E+02  0.18541840324E+02  0.14200000000E+01 0.  1.
         -4   -1    0    0    0  501 -0.00000000000E+00 -0.00000000000E+00 -0.52541915808E+01  0.54426950280E+01  0.14200000000E+01 0. -1.
       1023    2    1    2    0    0  0.00000000000E+00  0.00000000000E+00  0.13233194459E+02  0.23984535352E+02  0.20003512203E+02 0.  0.
        -13    1    3    3    0    0  0.99900226365E+01  0.44902994135E+00  0.67935179741E+01  0.12089881683E+02  0.10570000000E+00 0. -1.
         13    1    3    3    0    0 -0.99900226365E+01 -0.44902994135E+00  0.64396764853E+01  0.11894653668E+02  0.10570000000E+00 0.  1.
<mgrwt>
<rscale>  0 0.20003512E+02</rscale>
<asrwt>0</asrwt>
<pdfrwt beam="1">  1        4 0.28629023E-02 0.20003512E+02</pdfrwt>
<pdfrwt beam="2">  1       -4 0.82702621E-03 0.20003512E+02</pdfrwt>
<totfact> 0.12778060E+06</totfact>
</mgrwt>
</event>
<event>
 5    1  0.4710515E-007  0.2000435E+02  0.7818608E-02  0.1745242E+00
         -4   -1    0    0    0  501 -0.00000000000E+00  0.00000000000E+00  0.76295432635E+02  0.76308645912E+02  0.14200000000E+01 0. -1.
          4   -1    0    0  501    0  0.00000000000E+00 -0.00000000000E+00 -0.90950940094E+00  0.16862998993E+01  0.14200000000E+01 0.  1.
       1023    2    1    2    0    0  0.00000000000E+00  0.00000000000E+00  0.75385923234E+02  0.77994945812E+02  0.20004353284E+02 0.  0.
        -13    1    3    3    0    0 -0.30297372624E+01  0.95315790597E+01  0.37516094457E+02  0.38826522160E+02  0.10570000000E+00 0. -1.
         13    1    3    3    0    0  0.30297372624E+01 -0.95315790597E+01  0.37869828777E+02  0.39168423651E+02  0.10570000000E+00 0.  1.
<mgrwt>
<rscale>  0 0.20004353E+02</rscale>
<asrwt>0</asrwt>
<pdfrwt beam="2">  1        4 0.20069399E-03 0.20004353E+02</pdfrwt>
<pdfrwt beam="1">  1       -4 0.11798531E-01 0.20004353E+02</pdfrwt>
<totfact> 0.10472625E+06</totfact>
</mgrwt>
</event>
<event>
 5    1  0.4871824E-007  0.2000224E+02  0.7818608E-02  0.1745284E+00
          4   -1    0    0  501    0  0.00000000000E+00  0.00000000000E+00  0.74299237271E+01  0.75644012711E+01  0.14200000000E+01 0. -1.
         -4   -1    0    0    0  501 -0.00000000000E+00 -0.00000000000E+00 -0.13168373022E+02  0.13244713967E+02  0.14200000000E+01 0.  1.
       1023    2    1    2    0    0  0.00000000000E+00  0.00000000000E+00 -0.57384492953E+01  0.20809115238E+02  0.20002236791E+02 0.  0.
        -13    1    3    3    0    0 -0.14689766098E+01 -0.98916346937E+01 -0.27712586902E+01  0.10377541925E+02  0.10570000000E+00 0. -1.
         13    1    3    3    0    0  0.14689766098E+01  0.98916346937E+01 -0.29671906051E+01  0.10431573312E+02  0.10570000000E+00 0.  1.
<mgrwt>
<rscale>  0 0.20002237E+02</rscale>
<asrwt>0</asrwt>
<pdfrwt beam="1">  1        4 0.11592820E-02 0.20002237E+02</pdfrwt>
<pdfrwt beam="2">  1       -4 0.20421203E-02 0.20002237E+02</pdfrwt>
<totfact> 0.12963078E+06</totfact>
</mgrwt>
</event>
<event>
 5    1  0.4710515E-007  0.2000135E+02  0.7818608E-02  0.1745301E+00
          4   -1    0    0  501    0  0.00000000000E+00  0.00000000000E+00  0.16274079198E+02  0.16335913006E+02  0.14200000000E+01 0.  1.
         -4   -1    0    0    0  501 -0.00000000000E+00 -0.00000000000E+00 -0.59889075150E+01  0.61549503023E+01  0.14200000000E+01 0. -1.
       1023    2    1    2    0    0  0.00000000000E+00  0.00000000000E+00  0.10285171683E+02  0.22490863309E+02  0.20001354349E+02 0.  0.
        -13    1    3    3    0    0  0.88794051286E+00  0.99605608338E+01  0.51042716046E+01  0.11227910384E+02  0.10570000000E+00 0. -1.
         13    1    3    3    0    0 -0.88794051286E+00 -0.99605608338E+01  0.51809000786E+01  0.11262952925E+02  0.10570000000E+00 0.  1.
<mgrwt>
<rscale>  0 0.20001354E+02</rscale>
<asrwt>0</asrwt>
<pdfrwt beam="1">  1        4 0.25212335E-02 0.20001354E+02</pdfrwt>
<pdfrwt beam="2">  1       -4 0.93889935E-03 0.20001354E+02</pdfrwt>
<totfact> 0.12866050E+06</totfact>
</mgrwt>
</event>
<event>
 5    1  0.4710515E-007  0.2000591E+02  0.7818608E-02  0.1745211E+00
          4   -1    0    0  501    0  0.00000000000E+00  0.00000000000E+00  0.11243253925E+03  0.11244150605E+03  0.14200000000E+01 0. -1.
         -4   -1    0    0    0  501 -0.00000000000E+00 -0.00000000000E+00 -0.30868233050E+00  0.14531637145E+01  0.14200000000E+01 0.  1.
       1023    2    1    2    0    0  0.00000000000E+00  0.00000000000E+00  0.11212385692E+03  0.11389466976E+03  0.20005911868E+02 0.  0.
        -13    1    3    3    0    0  0.17293197954E+01  0.98517359354E+01  0.56213307013E+02  0.57096359829E+02  0.10570000000E+00 0. -1.
         13    1    3    3    0    0 -0.17293197954E+01 -0.98517359354E+01  0.55910549909E+02  0.56798309935E+02  0.10570000000E+00 0.  1.
<mgrwt>
<rscale>  0 0.20005912E+02</rscale>
<asrwt>0</asrwt>
<pdfrwt beam="1">  1        4 0.17386045E-01 0.20005912E+02</pdfrwt>
<pdfrwt beam="2">  1       -4 0.13621634E-03 0.20005912E+02</pdfrwt>
<totfact> 0.94168271E+05</totfact>
</mgrwt>
</event>
<event>
 5    1  0.4710515E-007  0.2001170E+02  0.7818608E-02  0.1745095E+00
          4   -1    0    0  501    0  0.00000000000E+00  0.00000000000E+00  0.37222369812E+01  0.39838986112E+01  0.14200000000E+01 0. -1.
         -4   -1    0    0    0  501 -0.00000000000E+00 -0.00000000000E+00 -0.25701799933E+02  0.25740996868E+02  0.14200000000E+01 0.  1.
       1023    2    1    2    0    0  0.00000000000E+00  0.00000000000E+00 -0.21979562951E+02  0.29724895480E+02  0.20011702170E+02 0.  0.
        -13    1    3    3    0    0  0.43439530007E+01 -0.90127020012E+01 -0.11115455220E+02  0.14955375030E+02  0.10570000000E+00 0.  1.
         13    1    3    3    0    0 -0.43439530007E+01  0.90127020012E+01 -0.10864107731E+02  0.14769520450E+02  0.10570000000E+00 0. -1.
<mgrwt>
<rscale>  0 0.20011702E+02</rscale>
<asrwt>0</asrwt>
<pdfrwt beam="1">  1        4 0.59579483E-03 0.20011702E+02</pdfrwt>
<pdfrwt beam="2">  1       -4 0.39772659E-02 0.20011702E+02</pdfrwt>
<totfact> 0.12455319E+06</totfact>
</mgrwt>
</event>
<event>
 5    1  0.4710515E-007  0.2000246E+02  0.7818608E-02  0.1745279E+00
         -4   -1    0    0    0  501 -0.00000000000E+00  0.00000000000E+00  0.28692645063E+01  0.32014182493E+01  0.14200000000E+01 0.  1.
          4   -1    0    0  501    0  0.00000000000E+00 -0.00000000000E+00 -0.32604867852E+02  0.32635774966E+02  0.14200000000E+01 0. -1.
       1023    2    1    2    0    0  0.00000000000E+00  0.00000000000E+00 -0.29735603345E+02  0.35837193215E+02  0.20002457630E+02 0.  0.
        -13    1    3    3    0    0 -0.55200825330E+01  0.83389335647E+01 -0.14750573825E+02  0.17821327807E+02  0.10570000000E+00 0.  1.
         13    1    3    3    0    0  0.55200825330E+01 -0.83389335647E+01 -0.14985029521E+02  0.18015865408E+02  0.10570000000E+00 0. -1.
<mgrwt>
<rscale>  0 0.20002458E+02</rscale>
<asrwt>0</asrwt>
<pdfrwt beam="2">  1        4 0.50440610E-02 0.20002458E+02</pdfrwt>
<pdfrwt beam="1">  1       -4 0.46935309E-03 0.20002458E+02</pdfrwt>
<totfact> 0.12157916E+06</totfact>
</mgrwt>
</event>
<event>
 5    1  0.4710515E-007  0.2000283E+02  0.7818608E-02  0.1745272E+00
          4   -1    0    0  501    0  0.00000000000E+00  0.00000000000E+00  0.27773991604E+01  0.31193502683E+01  0.14200000000E+01 0. -1.
         -4   -1    0    0    0  501 -0.00000000000E+00 -0.00000000000E+00 -0.33568754459E+02  0.33598774917E+02  0.14200000000E+01 0.  1.
       1023    2    1    2    0    0  0.00000000000E+00  0.00000000000E+00 -0.30791355299E+02  0.36718125186E+02  0.20002828700E+02 0.  0.
        -13    1    3    3    0    0  0.96612492451E-01 -0.10000081123E+02 -0.15251604765E+02  0.18238244894E+02  0.10570000000E+00 0. -1.
         13    1    3    3    0    0 -0.96612492451E-01  0.10000081123E+02 -0.15539750534E+02  0.18479880291E+02  0.10570000000E+00 0.  1.
<mgrwt>
<rscale>  0 0.20002829E+02</rscale>
<asrwt>0</asrwt>
<pdfrwt beam="1">  1        4 0.45590540E-03 0.20002829E+02</pdfrwt>
<pdfrwt beam="2">  1       -4 0.51930367E-02 0.20002829E+02</pdfrwt>
<totfact> 0.12114714E+06</totfact>
</mgrwt>
</event>
<event>
 4    1  0.4710515E-007  0.2003554E+02  0.7818608E-02  0.1744622E+00
          4   -1    0    0  501    0  0.00000000000E+00  0.00000000000E+00  0.12307094756E+02  0.12388744139E+02  0.14200000000E+01 0.  1.
         -4   -1    0    0    0  501 -0.00000000000E+00 -0.00000000000E+00 -0.79828262262E+01  0.81081387851E+01  0.14200000000E+01 0. -1.
        -13    1    1    2    0    0  0.80567154502E+01 -0.59505597536E+01  0.23230133832E+01  0.10282382452E+02  0.10570000000E+00 0. -1.
         13    1    1    2    0    0 -0.80567154502E+01  0.59505597536E+01  0.20012551464E+01  0.10214500471E+02  0.10570000000E+00 0.  1.
<mgrwt>
<rscale>  0 0.20035541E+02</rscale>
<asrwt>0</asrwt>
<pdfrwt beam="1">  1        4 0.19093193E-02 0.20035541E+02</pdfrwt>
<pdfrwt beam="2">  1       -4 0.12440473E-02 0.20035541E+02</pdfrwt>
<totfact> 0.12937528E+06</totfact>
</mgrwt>
</event>
<event>
 5    1  0.4710515E-007  0.2000188E+02  0.7818608E-02  0.1745291E+00
          4   -1    0    0  501    0  0.00000000000E+00  0.00000000000E+00  0.88835965398E+00  0.16749874253E+01  0.14200000000E+01 0. -1.
         -4   -1    0    0    0  501 -0.00000000000E+00 -0.00000000000E+00 -0.77242482258E+02  0.77255533558E+02  0.14200000000E+01 0.  1.
       1023    2    1    2    0    0  0.00000000000E+00  0.00000000000E+00 -0.76354122604E+02  0.78930520983E+02  0.20001877515E+02 0.  0.
        -13    1    3    3    0    0  0.41614847561E+01 -0.90931276891E+01 -0.38446933093E+02  0.39726323305E+02  0.10570000000E+00 0.  1.
         13    1    3    3    0    0 -0.41614847561E+01  0.90931276891E+01 -0.37907189510E+02  0.39204197679E+02  0.10570000000E+00 0. -1.
<mgrwt>
<rscale>  0 0.20001878E+02</rscale>
<asrwt>0</asrwt>
<pdfrwt beam="1">  1        4 0.19818455E-03 0.20001878E+02</pdfrwt>
<pdfrwt beam="2">  1       -4 0.11944969E-01 0.20001878E+02</pdfrwt>
<totfact> 0.10444294E+06</totfact>
</mgrwt>
</event>
<event>
 4    1  0.4710515E-007  0.2013094E+02  0.7818608E-02  0.1742737E+00
          4   -1    0    0  501    0  0.00000000000E+00  0.00000000000E+00  0.23730800461E+01  0.27654852929E+01  0.14200000000E+01 0.  1.
         -4   -1    0    0    0  501 -0.00000000000E+00 -0.00000000000E+00 -0.39026357561E+02  0.39052182839E+02  0.14200000000E+01 0. -1.
        -13    1    1    2    0    0  0.30280381704E+01 -0.95974726392E+01 -0.18018631877E+02  0.20638865362E+02  0.10570000000E+00 0.  1.
         13    1    1    2    0    0 -0.30280381704E+01  0.95974726392E+01 -0.18634645639E+02  0.21178802770E+02  0.10570000000E+00 0. -1.
<mgrwt>
<rscale>  0 0.20130937E+02</rscale>
<asrwt>0</asrwt>
<pdfrwt beam="1">  1        4 0.39726084E-03 0.20130937E+02</pdfrwt>
<pdfrwt beam="2">  1       -4 0.60362262E-02 0.20130937E+02</pdfrwt>
<totfact> 0.11722930E+06</totfact>
</mgrwt>
</event>
<event>
 5    1  0.4710515E-007  0.2000427E+02  0.7818608E-02  0.1745243E+00
          4   -1    0    0  501    0  0.00000000000E+00  0.00000000000E+00  0.43091285753E+01  0.45370683353E+01  0.14200000000E+01 0. -1.
         -4   -1    0    0    0  501 -0.00000000000E+00 -0.00000000000E+00 -0.22367215910E+02  0.22412245482E+02  0.14200000000E+01 0.  1.
       1023    2    1    2    0    0  0.00000000000E+00  0.00000000000E+00 -0.18058087335E+02  0.26949313818E+02  0.20004274470E+02 0.  0.
        -13    1    3    3    0    0  0.92468560682E+01 -0.38109990704E+01 -0.91089224772E+01  0.13528181779E+02  0.10570000000E+00 0.  1.
         13    1    3    3    0    0 -0.92468560682E+01  0.38109990704E+01 -0.89491648573E+01  0.13421132039E+02  0.10570000000E+00 0. -1.
<mgrwt>
<rscale>  0 0.20004274E+02</rscale>
<asrwt>0</asrwt>
<pdfrwt beam="1">  1        4 0.68394051E-03 0.20004274E+02</pdfrwt>
<pdfrwt beam="2">  1       -4 0.34621077E-02 0.20004274E+02</pdfrwt>
<totfact> 0.12612764E+06</totfact>
</mgrwt>
</event>
<event>
 5    1  0.4710515E-007  0.2000255E+02  0.7818608E-02  0.1745277E+00
         -4   -1    0    0    0  501 -0.00000000000E+00  0.00000000000E+00  0.29332662793E+02  0.29367013919E+02  0.14200000000E+01 0. -1.
          4   -1    0    0  501    0  0.00000000000E+00 -0.00000000000E+00 -0.32241805840E+01  0.35230300081E+01  0.14200000000E+01 0.  1.
       1023    2    1    2    0    0  0.00000000000E+00  0.00000000000E+00  0.26108482209E+02  0.32890043928E+02  0.20002553494E+02 0.  0.
        -13    1    3    3    0    0 -0.61014747259E+01 -0.79235833836E+01  0.13147207077E+02  0.16518819385E+02  0.10570000000E+00 0. -1.
         13    1    3    3    0    0  0.61014747259E+01  0.79235833836E+01  0.12961275132E+02  0.16371224542E+02  0.10570000000E+00 0.  1.
<mgrwt>
<rscale>  0 0.20002553E+02</rscale>
<asrwt>0</asrwt>
<pdfrwt beam="2">  1        4 0.52165860E-03 0.20002553E+02</pdfrwt>
<pdfrwt beam="1">  1       -4 0.45383481E-02 0.20002553E+02</pdfrwt>
<totfact> 0.12304064E+06</totfact>
</mgrwt>
</event>
<event>
 4    1  0.4710515E-007  0.2017083E+02  0.7818608E-02  0.1741952E+00
          4   -1    0    0  501    0  0.00000000000E+00  0.00000000000E+00  0.28447616472E+01  0.31794761879E+01  0.14200000000E+01 0.  1.
         -4   -1    0    0    0  501 -0.00000000000E+00 -0.00000000000E+00 -0.33418148143E+02  0.33448303773E+02  0.14200000000E+01 0. -1.
        -13    1    1    2    0    0  0.60740709261E+01 -0.79644435448E+01 -0.17418093128E+02  0.20092979851E+02  0.10570000000E+00 0. -1.
         13    1    1    2    0    0 -0.60740709261E+01  0.79644435448E+01 -0.13155293368E+02  0.16534800110E+02  0.10570000000E+00 0.  1.
<mgrwt>
<rscale>  0 0.20170828E+02</rscale>
<asrwt>0</asrwt>
<pdfrwt beam="1">  1        4 0.46572260E-03 0.20170828E+02</pdfrwt>
<pdfrwt beam="2">  1       -4 0.51693202E-02 0.20170828E+02</pdfrwt>
<totfact> 0.11915157E+06</totfact>
</mgrwt>
</event>
<event>
 4    1  0.4710515E-007  0.2003270E+02  0.7818608E-02  0.1744679E+00
         -4   -1    0    0    0  501 -0.00000000000E+00  0.00000000000E+00  0.11301762983E+02  0.11390620990E+02  0.14200000000E+01 0. -1.
          4   -1    0    0  501    0  0.00000000000E+00 -0.00000000000E+00 -0.86957014415E+01  0.88108809753E+01  0.14200000000E+01 0.  1.
        -13    1    1    2    0    0 -0.69482706608E+00  0.99912703905E+01  0.12137405568E+01  0.10089232245E+02  0.10570000000E+00 0. -1.
         13    1    1    2    0    0  0.69482706608E+00 -0.99912703905E+01  0.13923209848E+01  0.10112269720E+02  0.10570000000E+00 0.  1.
<mgrwt>
<rscale>  0 0.20032701E+02</rscale>
<asrwt>0</asrwt>
<pdfrwt beam="2">  1        4 0.13534954E-02 0.20032701E+02</pdfrwt>
<pdfrwt beam="1">  1       -4 0.17544279E-02 0.20032701E+02</pdfrwt>
<totfact> 0.12958761E+06</totfact>
</mgrwt>
</event>
<event>
 5    1  0.4872123E-007  0.2000327E+02  0.7818608E-02  0.1745263E+00
         -4   -1    0    0    0  501 -0.00000000000E+00  0.00000000000E+00  0.17634096608E+02  0.17691177552E+02  0.14200000000E+01 0. -1.
          4   -1    0    0  501    0  0.00000000000E+00 -0.00000000000E+00 -0.55163781700E+01  0.56962117336E+01  0.14200000000E+01 0.  1.
       1023    2    1    2    0    0  0.00000000000E+00  0.00000000000E+00  0.12117718438E+02  0.23387389286E+02  0.20003271669E+02 0.  0.
        -13    1    3    3    0    0 -0.96734789351E+01 -0.25350847116E+01  0.62187319816E+01  0.11776529589E+02  0.10570000000E+00 0.  1.
         13    1    3    3    0    0  0.96734789351E+01  0.25350847116E+01  0.58989864564E+01  0.11610859697E+02  0.10570000000E+00 0. -1.
<mgrwt>
<rscale>  0 0.20003272E+02</rscale>
<asrwt>0</asrwt>
<pdfrwt beam="2">  1        4 0.86689778E-03 0.20003272E+02</pdfrwt>
<pdfrwt beam="1">  1       -4 0.27311621E-02 0.20003272E+02</pdfrwt>
<totfact> 0.12812197E+06</totfact>
</mgrwt>
</event>
<event>
 5    1  0.4985584E-007  0.2000129E+02  0.7818608E-02  0.1745302E+00
         -4   -1    0    0    0  501 -0.00000000000E+00  0.00000000000E+00  0.14062978823E+02  0.14134488791E+02  0.14200000000E+01 0. -1.
          4   -1    0    0  501    0  0.00000000000E+00 -0.00000000000E+00 -0.69502712731E+01  0.70938473884E+01  0.14200000000E+01 0.  1.
       1023    2    1    2    0    0  0.00000000000E+00  0.00000000000E+00  0.71127075498E+01  0.21228336179E+02  0.20001291164E+02 0.  0.
        -13    1    3    3    0    0  0.11783824218E+01  0.99303443778E+01  0.35164299044E+01  0.10600791308E+02  0.10570000000E+00 0.  1.
         13    1    3    3    0    0 -0.11783824218E+01 -0.99303443778E+01  0.35962776454E+01  0.10627544871E+02  0.10570000000E+00 0. -1.
<mgrwt>
<rscale>  0 0.20001291E+02</rscale>
<asrwt>0</asrwt>
<pdfrwt beam="2">  1        4 0.10858176E-02 0.20001291E+02</pdfrwt>
<pdfrwt beam="1">  1       -4 0.21800803E-02 0.20001291E+02</pdfrwt>
<totfact> 0.12939595E+06</totfact>
</mgrwt>
</event>
<event>
 4    1  0.4710515E-007  0.2008937E+02  0.7818608E-02  0.1743557E+00
          4   -1    0    0  501    0  0.00000000000E+00  0.00000000000E+00  0.27830555289E+02  0.27866758113E+02  0.14200000000E+01 0. -1.
         -4   -1    0    0    0  501 -0.00000000000E+00 -0.00000000000E+00 -0.34461608737E+01  0.37272543202E+01  0.14200000000E+01 0.  1.
        -13    1    1    2    0    0 -0.99873762596E+01 -0.77617230585E+00  0.13341897605E+02  0.16684349918E+02  0.10570000000E+00 0. -1.
         13    1    1    2    0    0  0.99873762596E+01  0.77617230585E+00  0.11042496811E+02  0.14909662515E+02  0.10570000000E+00 0.  1.
<mgrwt>
<rscale>  0 0.20089374E+02</rscale>
<asrwt>0</asrwt>
<pdfrwt beam="1">  1        4 0.43060311E-02 0.20089374E+02</pdfrwt>
<pdfrwt beam="2">  1       -4 0.55458603E-03 0.20089374E+02</pdfrwt>
<totfact> 0.12261667E+06</totfact>
</mgrwt>
</event>
<event>
 5    1  0.4710515E-007  0.2001019E+02  0.7818608E-02  0.1745126E+00
         -4   -1    0    0    0  501 -0.00000000000E+00  0.00000000000E+00  0.10717642599E+03  0.10718583250E+03  0.14200000000E+01 0. -1.
          4   -1    0    0  501    0  0.00000000000E+00 -0.00000000000E+00 -0.37926485242E+00  0.14697761150E+01  0.14200000000E+01 0.  1.
       1023    2    1    2    0    0  0.00000000000E+00  0.00000000000E+00  0.10679716114E+03  0.10865560861E+03  0.20010188798E+02 0.  0.
        -13    1    3    3    0    0 -0.70210058351E+01  0.71268390465E+01  0.53039061640E+02  0.53974434595E+02  0.10570000000E+00 0.  1.
         13    1    3    3    0    0  0.70210058351E+01 -0.71268390465E+01  0.53758099498E+02  0.54681174017E+02  0.10570000000E+00 0. -1.
<mgrwt>
<rscale>  0 0.20010189E+02</rscale>
<asrwt>0</asrwt>
<pdfrwt beam="2">  1        4 0.14295746E-03 0.20010189E+02</pdfrwt>
<pdfrwt beam="1">  1       -4 0.16573294E-01 0.20010189E+02</pdfrwt>
<totfact> 0.95517109E+05</totfact>
</mgrwt>
</event>
<event>
 5    1  0.4710515E-007  0.2000452E+02  0.7818608E-02  0.1745238E+00
          4   -1    0    0  501    0  0.00000000000E+00  0.00000000000E+00  0.88007564757E+00  0.16706086153E+01  0.14200000000E+01 0.  1.
         -4   -1    0    0    0  501 -0.00000000000E+00 -0.00000000000E+00 -0.77646709331E+02  0.77659692698E+02  0.14200000000E+01 0. -1.
       1023    2    1    2    0    0  0.00000000000E+00  0.00000000000E+00 -0.76766633684E+02  0.79330301313E+02  0.20004515974E+02 0.  0.
        -13    1    3    3    0    0  0.68617333842E+01 -0.72764908140E+01 -0.38610735617E+02  0.39885220082E+02  0.10570000000E+00 0. -1.
         13    1    3    3    0    0 -0.68617333842E+01  0.72764908140E+01 -0.38155898067E+02  0.39445081232E+02  0.10570000000E+00 0.  1.
<mgrwt>
<rscale>  0 0.20004516E+02</rscale>
<asrwt>0</asrwt>
<pdfrwt beam="1">  1        4 0.19720526E-03 0.20004516E+02</pdfrwt>
<pdfrwt beam="2">  1       -4 0.12007453E-01 0.20004516E+02</pdfrwt>
<totfact> 0.10428390E+06</totfact>
</mgrwt>
</event>
<event>
 5    1  0.4710515E-007  0.2000251E+02  0.7818608E-02  0.1745278E+00
          4   -1    0    0  501    0  0.00000000000E+00  0.00000000000E+00  0.16949522883E+01  0.22111678497E+01  0.14200000000E+01 0. -1.
         -4   -1    0    0    0  501 -0.00000000000E+00 -0.00000000000E+00 -0.50687066182E+02  0.50706952956E+02  0.14200000000E+01 0.  1.
       1023    2    1    2    0    0  0.00000000000E+00  0.00000000000E+00 -0.48992113893E+02  0.52918120806E+02  0.20002506990E+02 0.  0.
        -13    1    3    3    0    0 -0.92373209718E+01  0.38309872343E+01 -0.24751694722E+02  0.26695732356E+02  0.10570000000E+00 0. -1.
         13    1    3    3    0    0  0.92373209718E+01 -0.38309872343E+01 -0.24240419172E+02  0.26222388450E+02  0.10570000000E+00 0.  1.
<mgrwt>
<rscale>  0 0.20002507E+02</rscale>
<asrwt>0</asrwt>
<pdfrwt beam="1">  1        4 0.30200057E-03 0.20002507E+02</pdfrwt>
<pdfrwt beam="2">  1       -4 0.78392478E-02 0.20002507E+02</pdfrwt>
<totfact> 0.11396332E+06</totfact>
</mgrwt>
</event>
<event>
 4    1  0.4710515E-007  0.2007654E+02  0.7818608E-02  0.1743810E+00
         -4   -1    0    0    0  501 -0.00000000000E+00  0.00000000000E+00  0.33733379118E+02  0.33763253201E+02  0.14200000000E+01 0. -1.
          4   -1    0    0  501    0  0.00000000000E+00 -0.00000000000E+00 -0.27853438268E+01  0.31264261119E+01  0.14200000000E+01 0.  1.
        -13    1    1    2    0    0 -0.38104381903E+01  0.92846118726E+01  0.15804036172E+02  0.18721703679E+02  0.10570000000E+00 0. -1.
         13    1    1    2    0    0  0.38104381903E+01 -0.92846118726E+01  0.15143999119E+02  0.18167975634E+02  0.10570000000E+00 0.  1.
<mgrwt>
<rscale>  0 0.20076542E+02</rscale>
<asrwt>0</asrwt>
<pdfrwt beam="2">  1        4 0.45704955E-03 0.20076542E+02</pdfrwt>
<pdfrwt beam="1">  1       -4 0.52182857E-02 0.20076542E+02</pdfrwt>
<totfact> 0.12016489E+06</totfact>
</mgrwt>
</event>
<event>
 5    1  0.4770947E-007  0.2000139E+02  0.7818608E-02  0.1745300E+00
         -4   -1    0    0    0  501 -0.00000000000E+00  0.00000000000E+00  0.39623564472E+02  0.39649000763E+02  0.14200000000E+01 0. -1.
          4   -1    0    0  501    0  0.00000000000E+00 -0.00000000000E+00 -0.22959731506E+01  0.26996097326E+01  0.14200000000E+01 0.  1.
       1023    2    1    2    0    0  0.00000000000E+00  0.00000000000E+00  0.37327591322E+02  0.42348610495E+02  0.20001393377E+02 0.  0.
        -13    1    3    3    0    0  0.10000097670E+02  0.26420583567E-01  0.18641558855E+02  0.21154704925E+02  0.10570000000E+00 0.  1.
         13    1    3    3    0    0 -0.10000097670E+02 -0.26420583567E-01  0.18686032467E+02  0.21193905570E+02  0.10570000000E+00 0. -1.
<mgrwt>
<rscale>  0 0.20001393E+02</rscale>
<asrwt>0</asrwt>
<pdfrwt beam="2">  1        4 0.38623226E-03 0.20001393E+02</pdfrwt>
<pdfrwt beam="1">  1       -4 0.61289384E-02 0.20001393E+02</pdfrwt>
<totfact> 0.11853004E+06</totfact>
</mgrwt>
</event>
<event>
 5    1  0.4776909E-007  0.2000134E+02  0.7818608E-02  0.1745301E+00
          4   -1    0    0  501    0  0.00000000000E+00  0.00000000000E+00  0.18039742918E+01  0.22958055766E+01  0.14200000000E+01 0.  1.
         -4   -1    0    0    0  501 -0.00000000000E+00 -0.00000000000E+00 -0.48286127378E+02  0.48307002569E+02  0.14200000000E+01 0. -1.
       1023    2    1    2    0    0  0.00000000000E+00  0.00000000000E+00 -0.46482153087E+02  0.50602808146E+02  0.20001340871E+02 0.  0.
        -13    1    3    3    0    0  0.10000023769E+02  0.40430554318E-01 -0.23269551137E+02  0.25327559942E+02  0.10570000000E+00 0.  1.
         13    1    3    3    0    0 -0.10000023769E+02 -0.40430554318E-01 -0.23212601949E+02  0.25275248204E+02  0.10570000000E+00 0. -1.
<mgrwt>
<rscale>  0 0.20001341E+02</rscale>
<asrwt>0</asrwt>
<pdfrwt beam="1">  1        4 0.31697350E-03 0.20001341E+02</pdfrwt>
<pdfrwt beam="2">  1       -4 0.74680731E-02 0.20001341E+02</pdfrwt>
<totfact> 0.11493385E+06</totfact>
</mgrwt>
</event>
<event>
 5    1  0.4710515E-007  0.2000481E+02  0.7818608E-02  0.1745232E+00
          4   -1    0    0  501    0  0.00000000000E+00  0.00000000000E+00  0.12155947868E+01  0.18692433458E+01  0.14200000000E+01 0. -1.
         -4   -1    0    0    0  501 -0.00000000000E+00 -0.00000000000E+00 -0.64201234652E+02  0.64216936480E+02  0.14200000000E+01 0.  1.
       1023    2    1    2    0    0  0.00000000000E+00  0.00000000000E+00 -0.62985639866E+02  0.66086179826E+02  0.20004807790E+02 0.  0.
        -13    1    3    3    0    0 -0.51529591917E+01  0.85719702298E+01 -0.31732162625E+02  0.33271203456E+02  0.10570000000E+00 0. -1.
         13    1    3    3    0    0  0.51529591917E+01 -0.85719702298E+01 -0.31253477241E+02  0.32814976370E+02  0.10570000000E+00 0.  1.
<mgrwt>
<rscale>  0 0.20004808E+02</rscale>
<asrwt>0</asrwt>
<pdfrwt beam="1">  1        4 0.23850312E-03 0.20004808E+02</pdfrwt>
<pdfrwt beam="2">  1       -4 0.99285994E-02 0.20004808E+02</pdfrwt>
<totfact> 0.10885937E+06</totfact>
</mgrwt>
</event>
<event>
 4    1  0.4710515E-007  0.2002656E+02  0.7818608E-02  0.1744801E+00
         -4   -1    0    0    0  501 -0.00000000000E+00  0.00000000000E+00  0.45218149551E+02  0.45240440413E+02  0.14200000000E+01 0.  1.
          4   -1    0    0  501    0  0.00000000000E+00 -0.00000000000E+00 -0.19647719059E+01  0.24241964941E+01  0.14200000000E+01 0. -1.
        -13    1    1    2    0    0  0.94740747216E+01  0.32367071521E+01  0.21288451017E+02  0.23525383827E+02  0.10570000000E+00 0. -1.
         13    1    1    2    0    0 -0.94740747216E+01 -0.32367071521E+01  0.21964926628E+02  0.24139253081E+02  0.10570000000E+00 0.  1.
<mgrwt>
<rscale>  0 0.20026556E+02</rscale>
<asrwt>0</asrwt>
<pdfrwt beam="2">  1        4 0.33932764E-03 0.20026556E+02</pdfrwt>
<pdfrwt beam="1">  1       -4 0.69936933E-02 0.20026556E+02</pdfrwt>
<totfact> 0.11588478E+06</totfact>
</mgrwt>
</event>
<event>
 4    1  0.4710515E-007  0.2010851E+02  0.7818608E-02  0.1743179E+00
         -4   -1    0    0    0  501 -0.00000000000E+00  0.00000000000E+00  0.41143602206E+02  0.41168099330E+02  0.14200000000E+01 0. -1.
          4   -1    0    0  501    0  0.00000000000E+00 -0.00000000000E+00 -0.22243589255E+01  0.26389718887E+01  0.14200000000E+01 0.  1.
        -13    1    1    2    0    0 -0.78728528372E+01  0.62261778930E+01  0.18208675429E+02  0.20792165263E+02  0.10570000000E+00 0. -1.
         13    1    1    2    0    0  0.78728528372E+01 -0.62261778930E+01  0.20710567851E+02  0.23014905956E+02  0.10570000000E+00 0.  1.
<mgrwt>
<rscale>  0 0.20108505E+02</rscale>
<asrwt>0</asrwt>
<pdfrwt beam="2">  1        4 0.37598677E-03 0.20108505E+02</pdfrwt>
<pdfrwt beam="1">  1       -4 0.63635626E-02 0.20108505E+02</pdfrwt>
<totfact> 0.11660554E+06</totfact>
</mgrwt>
</event>
<event>
 5    1  0.4710515E-007  0.2000243E+02  0.7818608E-02  0.1745280E+00
          4   -1    0    0  501    0  0.00000000000E+00  0.00000000000E+00  0.38596699185E+02  0.38622811756E+02  0.14200000000E+01 0.  1.
         -4   -1    0    0    0  501 -0.00000000000E+00 -0.00000000000E+00 -0.23678996528E+01  0.27610412466E+01  0.14200000000E+01 0. -1.
       1023    2    1    2    0    0  0.00000000000E+00  0.00000000000E+00  0.36228799532E+02  0.41383853003E+02  0.20002434198E+02 0.  0.
        -13    1    3    3    0    0  0.56407256450E+01 -0.82579927167E+01  0.18050918118E+02  0.20636352558E+02  0.10570000000E+00 0. -1.
         13    1    3    3    0    0 -0.56407256450E+01  0.82579927167E+01  0.18177881414E+02  0.20747500445E+02  0.10570000000E+00 0.  1.
<mgrwt>
<rscale>  0 0.20002434E+02</rscale>
<asrwt>0</asrwt>
<pdfrwt beam="1">  1        4 0.59702040E-02 0.20002434E+02</pdfrwt>
<pdfrwt beam="2">  1       -4 0.39654258E-03 0.20002434E+02</pdfrwt>
<totfact> 0.11895752E+06</totfact>
</mgrwt>
</event>
<event>
 5    1  0.4710515E-007  0.2000204E+02  0.7818608E-02  0.1745288E+00
         -4   -1    0    0    0  501 -0.00000000000E+00  0.00000000000E+00  0.31657942765E+00  0.14548616890E+01  0.14200000000E+01 0. -1.
          4   -1    0    0  501    0  0.00000000000E+00 -0.00000000000E+00 -0.11177976513E+03  0.11178878428E+03  0.14200000000E+01 0.  1.
       1023    2    1    2    0    0  0.00000000000E+00  0.00000000000E+00 -0.11146318570E+03  0.11324364597E+03  0.20002039575E+02 0.  0.
        -13    1    3    3    0    0 -0.24627097122E+01 -0.96924417057E+01 -0.55897522483E+02  0.56785143810E+02  0.10570000000E+00 0.  1.
         13    1    3    3    0    0  0.24627097122E+01  0.96924417057E+01 -0.55565663215E+02  0.56458502162E+02  0.10570000000E+00 0. -1.
<mgrwt>
<rscale>  0 0.20002040E+02</rscale>
<asrwt>0</asrwt>
<pdfrwt beam="2">  1        4 0.17285130E-01 0.20002040E+02</pdfrwt>
<pdfrwt beam="1">  1       -4 0.13695857E-03 0.20002040E+02</pdfrwt>
<totfact> 0.94374908E+05</totfact>
</mgrwt>
</event>
<event>
 5    1  0.4710515E-007  0.2001175E+02  0.7818608E-02  0.1745095E+00
          4   -1    0    0  501    0  0.00000000000E+00  0.00000000000E+00  0.21621472789E+02  0.21668052187E+02  0.14200000000E+01 0. -1.
         -4   -1    0    0    0  501 -0.00000000000E+00 -0.00000000000E+00 -0.44686930928E+01  0.46888823783E+01  0.14200000000E+01 0.  1.
       1023    2    1    2    0    0  0.00000000000E+00  0.00000000000E+00  0.17152779696E+02  0.26356934565E+02  0.20011750257E+02 0.  0.
        -13    1    3    3    0    0 -0.53572684674E+00  0.99893645509E+01  0.88118374649E+01  0.13331693793E+02  0.10570000000E+00 0. -1.
         13    1    3    3    0    0  0.53572684674E+00 -0.99893645509E+01  0.83409422314E+01  0.13025240773E+02  0.10570000000E+00 0.  1.
<mgrwt>
<rscale>  0 0.20011750E+02</rscale>
<asrwt>0</asrwt>
<pdfrwt beam="1">  1        4 0.33469011E-02 0.20011750E+02</pdfrwt>
<pdfrwt beam="2">  1       -4 0.70801191E-03 0.20011750E+02</pdfrwt>
<totfact> 0.12635455E+06</totfact>
</mgrwt>
</event>
<event>
 5    1  0.4710515E-007  0.2000115E+02  0.7818608E-02  0.1745305E+00
          4   -1    0    0  501    0  0.00000000000E+00  0.00000000000E+00  0.19325572138E+01  0.23981612507E+01  0.14200000000E+01 0.  1.
         -4   -1    0    0    0  501 -0.00000000000E+00 -0.00000000000E+00 -0.45709220477E+02  0.45731271976E+02  0.14200000000E+01 0. -1.
       1023    2    1    2    0    0  0.00000000000E+00  0.00000000000E+00 -0.43776663263E+02  0.48129433227E+02  0.20001152375E+02 0.  0.
        -13    1    3    3    0    0  0.28359220463E+01 -0.95894543094E+01 -0.21927414255E+02  0.24100264650E+02  0.10570000000E+00 0. -1.
         13    1    3    3    0    0 -0.28359220463E+01  0.95894543094E+01 -0.21849249008E+02  0.24029168577E+02  0.10570000000E+00 0.  1.
<mgrwt>
<rscale>  0 0.20001152E+02</rscale>
<asrwt>0</asrwt>
<pdfrwt beam="1">  1        4 0.33482849E-03 0.20001152E+02</pdfrwt>
<pdfrwt beam="2">  1       -4 0.70696990E-02 0.20001152E+02</pdfrwt>
<totfact> 0.11598263E+06</totfact>
</mgrwt>
</event>
<event>
 5    1  0.4710515E-007  0.2000961E+02  0.7818608E-02  0.1745137E+00
          4   -1    0    0  501    0  0.00000000000E+00  0.00000000000E+00  0.11300343455E+02  0.11389212537E+02  0.14200000000E+01 0. -1.
         -4   -1    0    0    0  501 -0.00000000000E+00 -0.00000000000E+00 -0.86762892048E+01  0.87917230601E+01  0.14200000000E+01 0.  1.
       1023    2    1    2    0    0  0.00000000000E+00  0.00000000000E+00  0.26240542506E+01  0.20180935597E+02  0.20009610213E+02 0.  0.
        -13    1    3    3    0    0  0.98936154535E+01  0.14682787602E+01  0.15271216893E+01  0.10118435769E+02  0.10570000000E+00 0.  1.
         13    1    3    3    0    0 -0.98936154535E+01 -0.14682787602E+01  0.10969325614E+01  0.10062499828E+02  0.10570000000E+00 0. -1.
<mgrwt>
<rscale>  0 0.20009610E+02</rscale>
<asrwt>0</asrwt>
<pdfrwt beam="1">  1        4 0.17542300E-02 0.20009610E+02</pdfrwt>
<pdfrwt beam="2">  1       -4 0.13505293E-02 0.20009610E+02</pdfrwt>
<totfact> 0.12990536E+06</totfact>
</mgrwt>
</event>
<event>
 5    1  0.4710515E-007  0.2001114E+02  0.7818608E-02  0.1745107E+00
         -4   -1    0    0    0  501 -0.00000000000E+00  0.00000000000E+00  0.14748612807E+02  0.14816814088E+02  0.14200000000E+01 0.  1.
          4   -1    0    0  501    0  0.00000000000E+00 -0.00000000000E+00 -0.66286279387E+01  0.67790197189E+01  0.14200000000E+01 0. -1.
       1023    2    1    2    0    0  0.00000000000E+00  0.00000000000E+00  0.81199848683E+01  0.21595833807E+02  0.20011143985E+02 0.  0.
        -13    1    3    3    0    0  0.77408286592E+01  0.63384966405E+01  0.41222721855E+01  0.10821333950E+02  0.10570000000E+00 0. -1.
         13    1    3    3    0    0 -0.77408286592E+01 -0.63384966405E+01  0.39977126828E+01  0.10774499857E+02  0.10570000000E+00 0.  1.
<mgrwt>
<rscale>  0 0.20011144E+02</rscale>
<asrwt>0</asrwt>
<pdfrwt beam="2">  1        4 0.10366038E-02 0.20011144E+02</pdfrwt>
<pdfrwt beam="1">  1       -4 0.22858322E-02 0.20011144E+02</pdfrwt>
<totfact> 0.12905089E+06</totfact>
</mgrwt>
</event>
<event>
 5    1  0.4710515E-007  0.2000925E+02  0.7818608E-02  0.1745144E+00
         -4   -1    0    0    0  501 -0.00000000000E+00  0.00000000000E+00  0.52490939779E+02  0.52510143390E+02  0.14200000000E+01 0.  1.
          4   -1    0    0  501    0  0.00000000000E+00 -0.00000000000E+00 -0.16201449309E+01  0.21543606006E+01  0.14200000000E+01 0. -1.
       1023    2    1    2    0    0  0.00000000000E+00  0.00000000000E+00  0.50870794848E+02  0.54664503991E+02  0.20009253562E+02 0.  0.
        -13    1    3    3    0    0 -0.42089546680E+01 -0.90754959287E+01  0.25331052698E+02  0.27235148779E+02  0.10570000000E+00 0. -1.
         13    1    3    3    0    0  0.42089546680E+01  0.90754959287E+01  0.25539742150E+02  0.27429355212E+02  0.10570000000E+00 0.  1.
<mgrwt>
<rscale>  0 0.20009254E+02</rscale>
<asrwt>0</asrwt>
<pdfrwt beam="2">  1        4 0.29182381E-03 0.20009254E+02</pdfrwt>
<pdfrwt beam="1">  1       -4 0.81180991E-02 0.20009254E+02</pdfrwt>
<totfact> 0.11317832E+06</totfact>
</mgrwt>
</event>
<event>
 5    1  0.4710515E-007  0.2000126E+02  0.7818608E-02  0.1745303E+00
         -4   -1    0    0    0  501 -0.00000000000E+00  0.00000000000E+00  0.10420948934E+02  0.10517251385E+02  0.14200000000E+01 0.  1.
          4   -1    0    0  501    0  0.00000000000E+00 -0.00000000000E+00 -0.94032659754E+01  0.95098796525E+01  0.14200000000E+01 0. -1.
       1023    2    1    2    0    0  0.00000000000E+00  0.00000000000E+00  0.10176829587E+01  0.20027131037E+02  0.20001257435E+02 0.  0.
        -13    1    3    3    0    0  0.92808530630E+01 -0.37238500002E+01  0.49834685669E+00  0.10013032232E+02  0.10570000000E+00 0. -1.
         13    1    3    3    0    0 -0.92808530630E+01  0.37238500002E+01  0.51933610201E+00  0.10014098805E+02  0.10570000000E+00 0.  1.
<mgrwt>
<rscale>  0 0.20001257E+02</rscale>
<asrwt>0</asrwt>
<pdfrwt beam="2">  1        4 0.14622652E-02 0.20001257E+02</pdfrwt>
<pdfrwt beam="1">  1       -4 0.16188318E-02 0.20001257E+02</pdfrwt>
<totfact> 0.13010764E+06</totfact>
</mgrwt>
</event>
<event>
 5    1  0.4710515E-007  0.2000279E+02  0.7818608E-02  0.1745273E+00
          4   -1    0    0  501    0  0.00000000000E+00  0.00000000000E+00  0.62752241142E+02  0.62768305444E+02  0.14200000000E+01 0.  1.
         -4   -1    0    0    0  501 -0.00000000000E+00 -0.00000000000E+00 -0.12581891396E+01  0.18972189940E+01  0.14200000000E+01 0. -1.
       1023    2    1    2    0    0  0.00000000000E+00  0.00000000000E+00  0.61494052002E+02  0.64665524438E+02  0.20002790285E+02 0.  0.
        -13    1    3    3    0    0 -0.60172806628E+01 -0.79874480997E+01  0.30427996938E+02  0.32029379698E+02  0.10570000000E+00 0.  1.
         13    1    3    3    0    0  0.60172806628E+01  0.79874480997E+01  0.31066055064E+02  0.32636144740E+02  0.10570000000E+00 0. -1.
<mgrwt>
<rscale>  0 0.20002790E+02</rscale>
<asrwt>0</asrwt>
<pdfrwt beam="1">  1        4 0.97045828E-02 0.20002790E+02</pdfrwt>
<pdfrwt beam="2">  1       -4 0.24395942E-03 0.20002790E+02</pdfrwt>
<totfact> 0.10940220E+06</totfact>
</mgrwt>
</event>
<event>
 5    1  0.4740010E-007  0.2000271E+02  0.7818608E-02  0.1745274E+00
         -4   -1    0    0    0  501 -0.00000000000E+00  0.00000000000E+00  0.61120664329E+01  0.62748510803E+01  0.14200000000E+01 0.  1.
          4   -1    0    0  501    0  0.00000000000E+00 -0.00000000000E+00 -0.15955711690E+02  0.16018774470E+02  0.14200000000E+01 0. -1.
       1023    2    1    2    0    0  0.00000000000E+00  0.00000000000E+00 -0.98436452571E+01  0.22293625551E+02  0.20002709523E+02 0.  0.
        -13    1    3    3    0    0  0.19408333514E+01 -0.98104964247E+01 -0.48582809504E+01  0.11118756247E+02  0.10570000000E+00 0.  1.
         13    1    3    3    0    0 -0.19408333514E+01  0.98104964247E+01 -0.49853643067E+01  0.11174869304E+02  0.10570000000E+00 0. -1.
<mgrwt>
<rscale>  0 0.20002710E+02</rscale>
<asrwt>0</asrwt>
<pdfrwt beam="2">  1        4 0.24720977E-02 0.20002710E+02</pdfrwt>
<pdfrwt beam="1">  1       -4 0.95769080E-03 0.20002710E+02</pdfrwt>
<totfact> 0.12875660E+06</totfact>
</mgrwt>
</event>
<event>
 5    1  0.4710515E-007  0.2000988E+02  0.7818608E-02  0.1745132E+00
          4   -1    0    0  501    0  0.00000000000E+00  0.00000000000E+00  0.20335985312E+02  0.20385502167E+02  0.14200000000E+01 0.  1.
         -4   -1    0    0    0  501 -0.00000000000E+00 -0.00000000000E+00 -0.47630382253E+01  0.49702045366E+01  0.14200000000E+01 0. -1.
       1023    2    1    2    0    0  0.00000000000E+00  0.00000000000E+00  0.15572947087E+02  0.25355706704E+02  0.20009877098E+02 0.  0.
        -13    1    3    3    0    0 -0.88748142127E+01  0.46089244125E+01  0.81517834291E+01  0.12902219077E+02  0.10570000000E+00 0.  1.
         13    1    3    3    0    0  0.88748142127E+01 -0.46089244125E+01  0.74211636579E+01  0.12453487627E+02  0.10570000000E+00 0. -1.
<mgrwt>
<rscale>  0 0.20009877E+02</rscale>
<asrwt>0</asrwt>
<pdfrwt beam="1">  1        4 0.31483580E-02 0.20009877E+02</pdfrwt>
<pdfrwt beam="2">  1       -4 0.75251998E-03 0.20009877E+02</pdfrwt>
<totfact> 0.12693025E+06</totfact>
</mgrwt>
</event>
<event>
 4    1  0.4710515E-007  0.2001797E+02  0.7818608E-02  0.1744971E+00
          4   -1    0    0  501    0  0.00000000000E+00  0.00000000000E+00  0.18581112547E+01  0.23385844939E+01  0.14200000000E+01 0.  1.
         -4   -1    0    0    0  501 -0.00000000000E+00 -0.00000000000E+00 -0.47249879157E+02  0.47271211962E+02  0.14200000000E+01 0. -1.
        -13    1    1    2    0    0  0.10007675916E+02 -0.79812741867E-01 -0.22464621216E+02  0.24593298400E+02  0.10570000000E+00 0.  1.
         13    1    1    2    0    0 -0.10007675916E+02  0.79812741867E-01 -0.22927146686E+02  0.25016498056E+02  0.10570000000E+00 0. -1.
<mgrwt>
<rscale>  0 0.20017975E+02</rscale>
<asrwt>0</asrwt>
<pdfrwt beam="1">  1        4 0.32446377E-03 0.20017975E+02</pdfrwt>
<pdfrwt beam="2">  1       -4 0.73078118E-02 0.20017975E+02</pdfrwt>
<totfact> 0.11515764E+06</totfact>
</mgrwt>
</event>
<event>
 5    1  0.4710515E-007  0.2000329E+02  0.7818608E-02  0.1745263E+00
         -4   -1    0    0    0  501 -0.00000000000E+00  0.00000000000E+00  0.73447764401E+01  0.74807847821E+01  0.14200000000E+01 0. -1.
          4   -1    0    0  501    0  0.00000000000E+00 -0.00000000000E+00 -0.13320564218E+02  0.13396037888E+02  0.14200000000E+01 0.  1.
       1023    2    1    2    0    0  0.00000000000E+00  0.00000000000E+00 -0.59757877782E+01  0.20876822670E+02  0.20003291860E+02 0.  0.
        -13    1    3    3    0    0  0.40679817489E+00 -0.99926595940E+01 -0.30452320940E+01  0.10454823839E+02  0.10570000000E+00 0. -1.
         13    1    3    3    0    0 -0.40679817489E+00  0.99926595940E+01 -0.29305556841E+01  0.10421998831E+02  0.10570000000E+00 0.  1.
<mgrwt>
<rscale>  0 0.20003292E+02</rscale>
<asrwt>0</asrwt>
<pdfrwt beam="2">  1        4 0.20655854E-02 0.20003292E+02</pdfrwt>
<pdfrwt beam="1">  1       -4 0.11462335E-02 0.20003292E+02</pdfrwt>
<totfact> 0.12957677E+06</totfact>
</mgrwt>
</event>
<event>
 4    1  0.4710515E-007  0.2001794E+02  0.7818608E-02  0.1744972E+00
         -4   -1    0    0    0  501 -0.00000000000E+00  0.00000000000E+00  0.33058442194E+02  0.33088925644E+02  0.14200000000E+01 0. -1.
          4   -1    0    0  501    0  0.00000000000E+00 -0.00000000000E+00 -0.28302946721E+01  0.31665387935E+01  0.14200000000E+01 0.  1.
        -13    1    1    2    0    0  0.99010151749E+01  0.14576621305E+01  0.15323704976E+02  0.18302513135E+02  0.10570000000E+00 0. -1.
         13    1    1    2    0    0 -0.99010151749E+01 -0.14576621305E+01  0.14904442546E+02  0.17952951302E+02  0.10570000000E+00 0.  1.
<mgrwt>
<rscale>  0 0.20017937E+02</rscale>
<asrwt>0</asrwt>
<pdfrwt beam="2">  1        4 0.46363976E-03 0.20017937E+02</pdfrwt>
<pdfrwt beam="1">  1       -4 0.51141240E-02 0.20017937E+02</pdfrwt>
<totfact> 0.12118547E+06</totfact>
</mgrwt>
</event>
<event>
 4    1  0.4710515E-007  0.2001413E+02  0.7818608E-02  0.1745047E+00
         -4   -1    0    0    0  501 -0.00000000000E+00  0.00000000000E+00  0.25270531757E+01  0.28986889714E+01  0.14200000000E+01 0.  1.
          4   -1    0    0  501    0  0.00000000000E+00 -0.00000000000E+00 -0.36527048091E+02  0.36554639134E+02  0.14200000000E+01 0. -1.
        -13    1    1    2    0    0  0.99525841773E+01  0.10066178306E+01 -0.16505300703E+02  0.19300345465E+02  0.10570000000E+00 0.  1.
         13    1    1    2    0    0 -0.99525841773E+01 -0.10066178306E+01 -0.17494694212E+02  0.20152982641E+02  0.10570000000E+00 0. -1.
<mgrwt>
<rscale>  0 0.20014131E+02</rscale>
<asrwt>0</asrwt>
<pdfrwt beam="2">  1        4 0.56502553E-02 0.20014131E+02</pdfrwt>
<pdfrwt beam="1">  1       -4 0.41948719E-03 0.20014131E+02</pdfrwt>
<totfact> 0.11970999E+06</totfact>
</mgrwt>
</event>
<event>
 5    1  0.4845115E-007  0.2000216E+02  0.7818608E-02  0.1745285E+00
         -4   -1    0    0    0  501 -0.00000000000E+00  0.00000000000E+00  0.35277426906E+02  0.35305994521E+02  0.14200000000E+01 0.  1.
          4   -1    0    0  501    0  0.00000000000E+00 -0.00000000000E+00 -0.26258143499E+01  0.29851802290E+01  0.14200000000E+01 0. -1.
       1023    2    1    2    0    0  0.00000000000E+00  0.00000000000E+00  0.32651612556E+02  0.38291174750E+02  0.20002156414E+02 0.  0.
        -13    1    3    3    0    0 -0.95121071304E+01 -0.30857388093E+01  0.16501538753E+02  0.19295437796E+02  0.10570000000E+00 0. -1.
         13    1    3    3    0    0  0.95121071304E+01  0.30857388093E+01  0.16150073804E+02  0.18995736954E+02  0.10570000000E+00 0.  1.
<mgrwt>
<rscale>  0 0.20002156E+02</rscale>
<asrwt>0</asrwt>
<pdfrwt beam="2">  1        4 0.43381248E-03 0.20002156E+02</pdfrwt>
<pdfrwt beam="1">  1       -4 0.54571374E-02 0.20002156E+02</pdfrwt>
<totfact> 0.12040271E+06</totfact>
</mgrwt>
</event>
<event>
 5    1  0.4974385E-007  0.2000218E+02  0.7818608E-02  0.1745285E+00
          4   -1    0    0  501    0  0.00000000000E+00  0.00000000000E+00  0.34478550610E+02  0.34507779589E+02  0.14200000000E+01 0.  1.
         -4   -1    0    0    0  501 -0.00000000000E+00 -0.00000000000E+00 -0.26948364184E+01  0.30460701439E+01  0.14200000000E+01 0. -1.
       1023    2    1    2    0    0  0.00000000000E+00  0.00000000000E+00  0.31783714192E+02  0.37553849733E+02  0.20002178430E+02 0.  0.
        -13    1    3    3    0    0  0.99804904035E+01 -0.63260034316E+00  0.15862704047E+02  0.18752251173E+02  0.10570000000E+00 0. -1.
         13    1    3    3    0    0 -0.99804904035E+01  0.63260034316E+00  0.15921010145E+02  0.18801598560E+02  0.10570000000E+00 0.  1.
<mgrwt>
<rscale>  0 0.20002178E+02</rscale>
<asrwt>0</asrwt>
<pdfrwt beam="1">  1        4 0.53336584E-02 0.20002178E+02</pdfrwt>
<pdfrwt beam="2">  1       -4 0.44385661E-03 0.20002178E+02</pdfrwt>
<totfact> 0.12075357E+06</totfact>
</mgrwt>
</event>
<event>
 5    1  0.4710515E-007  0.2000163E+02  0.7818608E-02  0.1745296E+00
         -4   -1    0    0    0  501 -0.00000000000E+00  0.00000000000E+00  0.60307406440E+00  0.15427567297E+01  0.14200000000E+01 0. -1.
          4   -1    0    0  501    0  0.00000000000E+00 -0.00000000000E+00 -0.92271666510E+02  0.92282592294E+02  0.14200000000E+01 0.  1.
       1023    2    1    2    0    0  0.00000000000E+00  0.00000000000E+00 -0.91668592446E+02  0.93825349024E+02  0.20001631896E+02 0.  0.
        -13    1    3    3    0    0  0.62682414120E-01 -0.99998769891E+01 -0.45549800649E+02  0.46634718618E+02  0.10570000000E+00 0.  1.
         13    1    3    3    0    0 -0.62682414120E-01  0.99998769891E+01 -0.46118791797E+02  0.47190630406E+02  0.10570000000E+00 0. -1.
<mgrwt>
<rscale>  0 0.20001632E+02</rscale>
<asrwt>0</asrwt>
<pdfrwt beam="2">  1        4 0.14268758E-01 0.20001632E+02</pdfrwt>
<pdfrwt beam="1">  1       -4 0.16590442E-03 0.20001632E+02</pdfrwt>
<totfact> 0.99790869E+05</totfact>
</mgrwt>
</event>
<event>
 5    1  0.4710515E-007  0.2000287E+02  0.7818608E-02  0.1745271E+00
         -4   -1    0    0    0  501 -0.00000000000E+00  0.00000000000E+00  0.20291922173E+02  0.20341546290E+02  0.14200000000E+01 0.  1.
          4   -1    0    0  501    0  0.00000000000E+00 -0.00000000000E+00 -0.47702790869E+01  0.49771440171E+01  0.14200000000E+01 0. -1.
       1023    2    1    2    0    0  0.00000000000E+00  0.00000000000E+00  0.15521643086E+02  0.25318690307E+02  0.20002866664E+02 0.  0.
        -13    1    3    3    0    0 -0.97974519919E+01 -0.20063957470E+01  0.77070191960E+01  0.12626361582E+02  0.10570000000E+00 0.  1.
         13    1    3    3    0    0  0.97974519919E+01  0.20063957470E+01  0.78146238898E+01  0.12692328725E+02  0.10570000000E+00 0. -1.
<mgrwt>
<rscale>  0 0.20002867E+02</rscale>
<asrwt>0</asrwt>
<pdfrwt beam="2">  1        4 0.75361902E-03 0.20002867E+02</pdfrwt>
<pdfrwt beam="1">  1       -4 0.31415641E-02 0.20002867E+02</pdfrwt>
<totfact> 0.12704140E+06</totfact>
</mgrwt>
</event>
<event>
 5    1  0.4710515E-007  0.2000366E+02  0.7818608E-02  0.1745255E+00
         -4   -1    0    0    0  501 -0.00000000000E+00  0.00000000000E+00  0.90290562832E+01  0.91400359609E+01  0.14200000000E+01 0. -1.
          4   -1    0    0  501    0  0.00000000000E+00 -0.00000000000E+00 -0.10854228156E+02  0.10946719548E+02  0.14200000000E+01 0.  1.
       1023    2    1    2    0    0  0.00000000000E+00  0.00000000000E+00 -0.18251718730E+01  0.20086755509E+02  0.20003662028E+02 0.  0.
        -13    1    3    3    0    0  0.69198875697E+01 -0.72199881252E+01 -0.10243074098E+01  0.10053529264E+02  0.10570000000E+00 0.  1.
         13    1    3    3    0    0 -0.69198875697E+01  0.72199881252E+01 -0.80086446324E+00  0.10033226245E+02  0.10570000000E+00 0. -1.
<mgrwt>
<rscale>  0 0.20003662E+02</rscale>
<asrwt>0</asrwt>
<pdfrwt beam="2">  1        4 0.16855329E-02 0.20003662E+02</pdfrwt>
<pdfrwt beam="1">  1       -4 0.14047372E-02 0.20003662E+02</pdfrwt>
<totfact> 0.13004035E+06</totfact>
</mgrwt>
</event>
<event>
 5    1  0.4714592E-007  0.2000415E+02  0.7818608E-02  0.1745246E+00
         -4   -1    0    0    0  501 -0.00000000000E+00  0.00000000000E+00  0.82519569491E+01  0.83732427105E+01  0.14200000000E+01 0.  1.
          4   -1    0    0  501    0  0.00000000000E+00 -0.00000000000E+00 -0.11871010742E+02  0.11955638672E+02  0.14200000000E+01 0. -1.
       1023    2    1    2    0    0  0.00000000000E+00  0.00000000000E+00 -0.36190537932E+01  0.20328881382E+02  0.20004146267E+02 0.  0.
        -13    1    3    3    0    0  0.99865548160E+01  0.54593123792E+00 -0.18412827339E+01  0.10170094031E+02  0.10570000000E+00 0. -1.
         13    1    3    3    0    0 -0.99865548160E+01 -0.54593123792E+00 -0.17777710593E+01  0.10158787351E+02  0.10570000000E+00 0.  1.
<mgrwt>
<rscale>  0 0.20004146E+02</rscale>
<asrwt>0</asrwt>
<pdfrwt beam="2">  1        4 0.18421489E-02 0.20004146E+02</pdfrwt>
<pdfrwt beam="1">  1       -4 0.12853713E-02 0.20004146E+02</pdfrwt>
<totfact> 0.12988974E+06</totfact>
</mgrwt>
</event>
<event>
 5    1  0.4710515E-007  0.2000500E+02  0.7818608E-02  0.1745229E+00
          4   -1    0    0  501    0  0.00000000000E+00  0.00000000000E+00  0.97533192742E+01  0.98561471613E+01  0.14200000000E+01 0.  1.
         -4   -1    0    0    0  501 -0.00000000000E+00 -0.00000000000E+00 -0.10051260121E+02  0.10151070388E+02  0.14200000000E+01 0. -1.
       1023    2    1    2    0    0  0.00000000000E+00  0.00000000000E+00 -0.29794084667E+00  0.20007217549E+02  0.20004999008E+02 0.  0.
        -13    1    3    3    0    0 -0.92483487080E+01 -0.38038825533E+01 -0.34224695672E+00  0.10006486985E+02  0.10570000000E+00 0.  1.
         13    1    3    3    0    0  0.92483487080E+01  0.38038825533E+01  0.44306110053E-01  0.10000730565E+02  0.10570000000E+00 0. -1.
<mgrwt>
<rscale>  0 0.20004999E+02</rscale>
<asrwt>0</asrwt>
<pdfrwt beam="1">  1        4 0.15160982E-02 0.20004999E+02</pdfrwt>
<pdfrwt beam="2">  1       -4 0.15619353E-02 0.20004999E+02</pdfrwt>
<totfact> 0.13006977E+06</totfact>
</mgrwt>
</event>
<event>
 5    1  0.4710515E-007  0.2000998E+02  0.7818608E-02  0.1745130E+00
         -4   -1    0    0    0  501 -0.00000000000E+00  0.00000000000E+00  0.58388112650E+01  0.60090029946E+01  0.14200000000E+01 0.  1.
          4   -1    0    0  501    0  0.00000000000E+00 -0.00000000000E+00 -0.16696847597E+02  0.16757121462E+02  0.14200000000E+01 0. -1.
       1023    2    1    2    0    0  0.00000000000E+00  0.00000000000E+00 -0.10858036332E+02  0.22766124456E+02  0.20009984252E+02 0.  0.
        -13    1    3    3    0    0  0.98978411040E+01  0.14564653626E+01 -0.54153142518E+01  0.11376526307E+02  0.10570000000E+00 0.  1.
         13    1    3    3    0    0 -0.98978411040E+01 -0.14564653626E+01 -0.54427220802E+01  0.11389598149E+02  0.10570000000E+00 0. -1.
<mgrwt>
<rscale>  0 0.20009984E+02</rscale>
<asrwt>0</asrwt>
<pdfrwt beam="2">  1        4 0.25864739E-02 0.20009984E+02</pdfrwt>
<pdfrwt beam="1">  1       -4 0.91600679E-03 0.20009984E+02</pdfrwt>
<totfact> 0.12838915E+06</totfact>
</mgrwt>
</event>
<event>
 5    1  0.4710515E-007  0.2000890E+02  0.7818608E-02  0.1745151E+00
          4   -1    0    0  501    0  0.00000000000E+00  0.00000000000E+00  0.89150336203E+00  0.16766568655E+01  0.14200000000E+01 0. -1.
         -4   -1    0    0    0  501 -0.00000000000E+00 -0.00000000000E+00 -0.77152425175E+02  0.77165491707E+02  0.14200000000E+01 0.  1.
       1023    2    1    2    0    0  0.00000000000E+00  0.00000000000E+00 -0.76260921813E+02  0.78842148572E+02  0.20008902912E+02 0.  0.
        -13    1    3    3    0    0 -0.54318441531E+01  0.83968570791E+01 -0.37120186735E+02  0.38443875656E+02  0.10570000000E+00 0.  1.
         13    1    3    3    0    0  0.54318441531E+01 -0.83968570791E+01 -0.39140735077E+02  0.40398272916E+02  0.10570000000E+00 0. -1.
<mgrwt>
<rscale>  0 0.20008903E+02</rscale>
<asrwt>0</asrwt>
<pdfrwt beam="1">  1        4 0.19855597E-03 0.20008903E+02</pdfrwt>
<pdfrwt beam="2">  1       -4 0.11931002E-01 0.20008903E+02</pdfrwt>
<totfact> 0.10439861E+06</totfact>
</mgrwt>
</event>
<event>
 4    1  0.4710515E-007  0.2030444E+02  0.7818608E-02  0.1739341E+00
         -4   -1    0    0    0  501 -0.00000000000E+00  0.00000000000E+00  0.70636750192E+02  0.70651021774E+02  0.14200000000E+01 0.  1.
          4   -1    0    0  501    0  0.00000000000E+00 -0.00000000000E+00 -0.10957279196E+01  0.17936052168E+01  0.14200000000E+01 0. -1.
        -13    1    1    2    0    0 -0.10142048360E+02  0.23798444868E-01  0.33196307872E+02  0.34711204821E+02  0.10570000000E+00 0.  1.
         13    1    1    2    0    0  0.10142048360E+02 -0.23798444868E-01  0.36344714401E+02  0.37733422170E+02  0.10570000000E+00 0. -1.
<mgrwt>
<rscale>  0 0.20304438E+02</rscale>
<asrwt>0</asrwt>
<pdfrwt beam="2">  1        4 0.22335416E-03 0.20304438E+02</pdfrwt>
<pdfrwt beam="1">  1       -4 0.10921975E-01 0.20304438E+02</pdfrwt>
<totfact> 0.10346050E+06</totfact>
</mgrwt>
</event>
<event>
 4    1  0.4710515E-007  0.2001660E+02  0.7818608E-02  0.1744998E+00
         -4   -1    0    0    0  501 -0.00000000000E+00  0.00000000000E+00  0.71073676336E+01  0.72478324125E+01  0.14200000000E+01 0. -1.
          4   -1    0    0  501    0  0.00000000000E+00 -0.00000000000E+00 -0.13778055593E+02  0.13851036637E+02  0.14200000000E+01 0.  1.
        -13    1    1    2    0    0  0.95236829702E+01 -0.30709601012E+01 -0.34970794156E+01  0.10600569333E+02  0.10570000000E+00 0.  1.
         13    1    1    2    0    0 -0.95236829702E+01  0.30709601012E+01 -0.31736085439E+01  0.10498299717E+02  0.10570000000E+00 0. -1.
<mgrwt>
<rscale>  0 0.20016598E+02</rscale>
<asrwt>0</asrwt>
<pdfrwt beam="2">  1        4 0.21361198E-02 0.20016598E+02</pdfrwt>
<pdfrwt beam="1">  1       -4 0.11098601E-02 0.20016598E+02</pdfrwt>
<totfact> 0.12927020E+06</totfact>
</mgrwt>
</event>
<event>
 4    1  0.4710515E-007  0.2001327E+02  0.7818608E-02  0.1745064E+00
         -4   -1    0    0    0  501 -0.00000000000E+00  0.00000000000E+00  0.43612170839E+01  0.45865689195E+01  0.14200000000E+01 0. -1.
          4   -1    0    0  501    0  0.00000000000E+00 -0.00000000000E+00 -0.22132896382E+02  0.22178401706E+02  0.14200000000E+01 0.  1.
        -13    1    1    2    0    0 -0.43930031119E+01 -0.89884042354E+01 -0.91239776235E+01  0.13540606604E+02  0.10570000000E+00 0. -1.
         13    1    1    2    0    0  0.43930031119E+01  0.89884042354E+01 -0.86477016741E+01  0.13224364022E+02  0.10570000000E+00 0.  1.
<mgrwt>
<rscale>  0 0.20013272E+02</rscale>
<asrwt>0</asrwt>
<pdfrwt beam="2">  1        4 0.34258961E-02 0.20013272E+02</pdfrwt>
<pdfrwt beam="1">  1       -4 0.69179165E-03 0.20013272E+02</pdfrwt>
<totfact> 0.12611242E+06</totfact>
</mgrwt>
</event>
<event>
 5    1  0.4710515E-007  0.2000293E+02  0.7818608E-02  0.1745270E+00
          4   -1    0    0  501    0  0.00000000000E+00  0.00000000000E+00  0.52597378657E+01  0.54480494138E+01  0.14200000000E+01 0.  1.
         -4   -1    0    0    0  501 -0.00000000000E+00 -0.00000000000E+00 -0.18467419593E+02  0.18521932578E+02  0.14200000000E+01 0. -1.
       1023    2    1    2    0    0  0.00000000000E+00  0.00000000000E+00 -0.13207681727E+02  0.23969981992E+02  0.20002929288E+02 0.  0.
        -13    1    3    3    0    0  0.46855482621E+01 -0.88346695819E+01 -0.67371372861E+01  0.12058438557E+02  0.10570000000E+00 0.  1.
         13    1    3    3    0    0 -0.46855482621E+01  0.88346695819E+01 -0.64705444414E+01  0.11911543435E+02  0.10570000000E+00 0. -1.
<mgrwt>
<rscale>  0 0.20002929E+02</rscale>
<asrwt>0</asrwt>
<pdfrwt beam="1">  1        4 0.82786926E-03 0.20002929E+02</pdfrwt>
<pdfrwt beam="2">  1       -4 0.28598203E-02 0.20002929E+02</pdfrwt>
<totfact> 0.12779639E+06</totfact>
</mgrwt>
</event>
<event>
 4    1  0.4710515E-007  0.2002687E+02  0.7818608E-02  0.1744794E+00
         -4   -1    0    0    0  501 -0.00000000000E+00  0.00000000000E+00  0.16279754226E+02  0.16341566560E+02  0.14200000000E+01 0.  1.
          4   -1    0    0  501    0  0.00000000000E+00 -0.00000000000E+00 -0.60026371344E+01  0.61683103495E+01  0.14200000000E+01 0. -1.
        -13    1    1    2    0    0  0.72578643542E+01  0.68972184241E+01  0.52479160720E+01  0.11304866765E+02  0.10570000000E+00 0. -1.
         13    1    1    2    0    0 -0.72578643542E+01 -0.68972184241E+01  0.50292010192E+01  0.11205010145E+02  0.10570000000E+00 0.  1.
<mgrwt>
<rscale>  0 0.20026868E+02</rscale>
<asrwt>0</asrwt>
<pdfrwt beam="2">  1        4 0.94098153E-03 0.20026868E+02</pdfrwt>
<pdfrwt beam="1">  1       -4 0.25220764E-02 0.20026868E+02</pdfrwt>
<totfact> 0.12831555E+06</totfact>
</mgrwt>
</event>
<event>
 5    1  0.4710515E-007  0.2000338E+02  0.7818608E-02  0.1745261E+00
          4   -1    0    0  501    0  0.00000000000E+00  0.00000000000E+00  0.30577504152E+01  0.33713851162E+01  0.14200000000E+01 0. -1.
         -4   -1    0    0    0  501 -0.00000000000E+00 -0.00000000000E+00 -0.30788096071E+02  0.30820825098E+02  0.14200000000E+01 0.  1.
       1023    2    1    2    0    0  0.00000000000E+00  0.00000000000E+00 -0.27730345656E+02  0.34192210214E+02  0.20003378942E+02 0.  0.
        -13    1    3    3    0    0 -0.25889099883E+01  0.96600613528E+01 -0.13964541881E+02  0.17176694755E+02  0.10570000000E+00 0.  1.
         13    1    3    3    0    0  0.25889099883E+01 -0.96600613528E+01 -0.13765803775E+02  0.17015515459E+02  0.10570000000E+00 0. -1.
<mgrwt>
<rscale>  0 0.20003379E+02</rscale>
<asrwt>0</asrwt>
<pdfrwt beam="1">  1        4 0.49706653E-03 0.20003379E+02</pdfrwt>
<pdfrwt beam="2">  1       -4 0.47632733E-02 0.20003379E+02</pdfrwt>
<totfact> 0.12237781E+06</totfact>
</mgrwt>
</event>
<event>
 5    1  0.5103901E-007  0.2000186E+02  0.7818608E-02  0.1745291E+00
         -4   -1    0    0    0  501 -0.00000000000E+00  0.00000000000E+00  0.28876012145E+02  0.28910905855E+02  0.14200000000E+01 0.  1.
          4   -1    0    0  501    0  0.00000000000E+00 -0.00000000000E+00 -0.32795402087E+01  0.35737632799E+01  0.14200000000E+01 0. -1.
       1023    2    1    2    0    0  0.00000000000E+00  0.00000000000E+00  0.25596471936E+02  0.32484669135E+02  0.20001858745E+02 0.  0.
        -13    1    3    3    0    0 -0.99846035987E+01 -0.56048736090E+00  0.12747896756E+02  0.16202669512E+02  0.10570000000E+00 0. -1.
         13    1    3    3    0    0  0.99846035987E+01  0.56048736090E+00  0.12848575180E+02  0.16281999624E+02  0.10570000000E+00 0.  1.
<mgrwt>
<rscale>  0 0.20001859E+02</rscale>
<asrwt>0</asrwt>
<pdfrwt beam="2">  1        4 0.52986134E-03 0.20001859E+02</pdfrwt>
<pdfrwt beam="1">  1       -4 0.44677799E-02 0.20001859E+02</pdfrwt>
<totfact> 0.12325458E+06</totfact>
</mgrwt>
</event>
<event>
 4    1  0.4710515E-007  0.2008121E+02  0.7818608E-02  0.1743718E+00
         -4   -1    0    0    0  501 -0.00000000000E+00  0.00000000000E+00  0.70950828893E+02  0.70965037311E+02  0.14200000000E+01 0. -1.
          4   -1    0    0  501    0  0.00000000000E+00 -0.00000000000E+00 -0.10481044281E+01  0.17649144150E+01  0.14200000000E+01 0.  1.
        -13    1    1    2    0    0  0.33505283075E+00  0.10013637308E+02  0.32611498334E+02  0.34116069361E+02  0.10570000000E+00 0. -1.
         13    1    1    2    0    0 -0.33505283075E+00 -0.10013637308E+02  0.37291226131E+02  0.38613882366E+02  0.10570000000E+00 0.  1.
<mgrwt>
<rscale>  0 0.20081210E+02</rscale>
<asrwt>0</asrwt>
<pdfrwt beam="2">  1        4 0.21747907E-03 0.20081210E+02</pdfrwt>
<pdfrwt beam="1">  1       -4 0.10971742E-01 0.20081210E+02</pdfrwt>
<totfact> 0.10569174E+06</totfact>
</mgrwt>
</event>
<event>
 5    1  0.4710515E-007  0.2000394E+02  0.7818608E-02  0.1745250E+00
         -4   -1    0    0    0  501 -0.00000000000E+00  0.00000000000E+00  0.71277245833E+02  0.71291389196E+02  0.14200000000E+01 0. -1.
          4   -1    0    0  501    0  0.00000000000E+00 -0.00000000000E+00 -0.10263375172E+01  0.17520755404E+01  0.14200000000E+01 0.  1.
       1023    2    1    2    0    0  0.00000000000E+00  0.00000000000E+00  0.70250908315E+02  0.73043464736E+02  0.20003940151E+02 0.  0.
        -13    1    3    3    0    0 -0.80616458411E+01  0.59190588631E+01  0.34930814044E+02  0.36334533625E+02  0.10570000000E+00 0.  1.
         13    1    3    3    0    0  0.80616458411E+01 -0.59190588631E+01  0.35320094271E+02  0.36708931111E+02  0.10570000000E+00 0. -1.
<mgrwt>
<rscale>  0 0.20003940E+02</rscale>
<asrwt>0</asrwt>
<pdfrwt beam="2">  1        4 0.21481201E-03 0.20003940E+02</pdfrwt>
<pdfrwt beam="1">  1       -4 0.11022645E-01 0.20003940E+02</pdfrwt>
<totfact> 0.10640443E+06</totfact>
</mgrwt>
</event>
<event>
 4    1  0.4710515E-007  0.2001493E+02  0.7818608E-02  0.1745031E+00
         -4   -1    0    0    0  501 -0.00000000000E+00  0.00000000000E+00  0.26025597989E+02  0.26064307984E+02  0.14200000000E+01 0. -1.
          4   -1    0    0  501    0  0.00000000000E+00 -0.00000000000E+00 -0.36740087225E+01  0.39388754859E+01  0.14200000000E+01 0.  1.
        -13    1    1    2    0    0  0.78309848207E+01 -0.62287656859E+01  0.11367479448E+02  0.15144391923E+02  0.10570000000E+00 0. -1.
         13    1    1    2    0    0 -0.78309848207E+01  0.62287656859E+01  0.10984109819E+02  0.14858791547E+02  0.10570000000E+00 0.  1.
<mgrwt>
<rscale>  0 0.20014931E+02</rscale>
<asrwt>0</asrwt>
<pdfrwt beam="2">  1        4 0.58858419E-03 0.20014931E+02</pdfrwt>
<pdfrwt beam="1">  1       -4 0.40272901E-02 0.20014931E+02</pdfrwt>
<totfact> 0.12436699E+06</totfact>
</mgrwt>
</event>
<event>
 5    1  0.4822886E-007  0.2000451E+02  0.7818608E-02  0.1745238E+00
          4   -1    0    0  501    0  0.00000000000E+00  0.00000000000E+00  0.29711025571E+02  0.29744939746E+02  0.14200000000E+01 0. -1.
         -4   -1    0    0    0  501 -0.00000000000E+00 -0.00000000000E+00 -0.31800307780E+01  0.34826707781E+01  0.14200000000E+01 0.  1.
       1023    2    1    2    0    0  0.00000000000E+00  0.00000000000E+00  0.26530994793E+02  0.33227610524E+02  0.20004509902E+02 0.  0.
        -13    1    3    3    0    0  0.31206924464E+01  0.95015618790E+01  0.13058489596E+02  0.16448517335E+02  0.10570000000E+00 0.  1.
         13    1    3    3    0    0 -0.31206924464E+01 -0.95015618790E+01  0.13472505197E+02  0.16779093189E+02  0.10570000000E+00 0. -1.
<mgrwt>
<rscale>  0 0.20004510E+02</rscale>
<asrwt>0</asrwt>
<pdfrwt beam="1">  1        4 0.45968158E-02 0.20004510E+02</pdfrwt>
<pdfrwt beam="2">  1       -4 0.51512428E-03 0.20004510E+02</pdfrwt>
<totfact> 0.12284610E+06</totfact>
</mgrwt>
</event>
<event>
 4    1  0.4710515E-007  0.2007067E+02  0.7818608E-02  0.1743926E+00
          4   -1    0    0  501    0  0.00000000000E+00  0.00000000000E+00  0.20535019691E+02  0.20584057756E+02  0.14200000000E+01 0.  1.
         -4   -1    0    0    0  501 -0.00000000000E+00 -0.00000000000E+00 -0.47452401475E+01  0.49531509221E+01  0.14200000000E+01 0. -1.
        -13    1    1    2    0    0 -0.97108150978E+01  0.24144740833E+01  0.69366508684E+01  0.12176120594E+02  0.10570000000E+00 0.  1.
         13    1    1    2    0    0  0.97108150978E+01 -0.24144740833E+01  0.88531286752E+01  0.13361088084E+02  0.10570000000E+00 0. -1.
<mgrwt>
<rscale>  0 0.20070672E+02</rscale>
<asrwt>0</asrwt>
<pdfrwt beam="1">  1        4 0.31789991E-02 0.20070672E+02</pdfrwt>
<pdfrwt beam="2">  1       -4 0.74980225E-03 0.20070672E+02</pdfrwt>
<totfact> 0.12604836E+06</totfact>
</mgrwt>
</event>
<event>
 5    1  0.4941373E-007  0.2000162E+02  0.7818608E-02  0.1745296E+00
          4   -1    0    0  501    0  0.00000000000E+00  0.00000000000E+00  0.87306573729E+01  0.88453817421E+01  0.14200000000E+01 0.  1.
         -4   -1    0    0    0  501 -0.00000000000E+00 -0.00000000000E+00 -0.11221207675E+02  0.11310698550E+02  0.14200000000E+01 0. -1.
       1023    2    1    2    0    0  0.00000000000E+00  0.00000000000E+00 -0.24905503024E+01  0.20156080292E+02  0.20001618233E+02 0.  0.
        -13    1    3    3    0    0  0.21769903495E+01 -0.97603740534E+01 -0.12163858163E+01  0.10074470487E+02  0.10570000000E+00 0.  1.
         13    1    3    3    0    0 -0.21769903495E+01  0.97603740534E+01 -0.12741644861E+01  0.10081609806E+02  0.10570000000E+00 0. -1.
<mgrwt>
<rscale>  0 0.20001618E+02</rscale>
<asrwt>0</asrwt>
<pdfrwt beam="1">  1        4 0.13588869E-02 0.20001618E+02</pdfrwt>
<pdfrwt beam="2">  1       -4 0.17420485E-02 0.20001618E+02</pdfrwt>
<totfact> 0.13002617E+06</totfact>
</mgrwt>
</event>
<event>
 5    1  0.4710515E-007  0.2000257E+02  0.7818608E-02  0.1745277E+00
         -4   -1    0    0    0  501 -0.00000000000E+00  0.00000000000E+00  0.37754808590E+01  0.40336900868E+01  0.14200000000E+01 0.  1.
          4   -1    0    0  501    0  0.00000000000E+00 -0.00000000000E+00 -0.25338761034E+02  0.25378518687E+02  0.14200000000E+01 0. -1.
       1023    2    1    2    0    0  0.00000000000E+00  0.00000000000E+00 -0.21563280175E+02  0.29412208774E+02  0.20002574160E+02 0.  0.
        -13    1    3    3    0    0  0.91243874988E+01  0.40937236928E+01 -0.10723751978E+02  0.14663664272E+02  0.10570000000E+00 0.  1.
         13    1    3    3    0    0 -0.91243874988E+01 -0.40937236928E+01 -0.10839528197E+02  0.14748544502E+02  0.10570000000E+00 0. -1.
<mgrwt>
<rscale>  0 0.20002574E+02</rscale>
<asrwt>0</asrwt>
<pdfrwt beam="2">  1        4 0.39211914E-02 0.20002574E+02</pdfrwt>
<pdfrwt beam="1">  1       -4 0.60376375E-03 0.20002574E+02</pdfrwt>
<totfact> 0.12483290E+06</totfact>
</mgrwt>
</event>
<event>
 5    1  0.4710515E-007  0.2000385E+02  0.7818608E-02  0.1745252E+00
          4   -1    0    0  501    0  0.00000000000E+00  0.00000000000E+00  0.73174853833E+00  0.15974529487E+01  0.14200000000E+01 0.  1.
         -4   -1    0    0    0  501 -0.00000000000E+00 -0.00000000000E+00 -0.85025545742E+02  0.85037402529E+02  0.14200000000E+01 0. -1.
       1023    2    1    2    0    0  0.00000000000E+00  0.00000000000E+00 -0.84293797204E+02  0.86634855477E+02  0.20003848042E+02 0.  0.
        -13    1    3    3    0    0  0.21954408706E+00  0.99984526926E+01 -0.42581195685E+02  0.43739989189E+02  0.10570000000E+00 0. -1.
         13    1    3    3    0    0 -0.21954408706E+00 -0.99984526926E+01 -0.41712601519E+02  0.42894866288E+02  0.10570000000E+00 0.  1.
<mgrwt>
<rscale>  0 0.20003848E+02</rscale>
<asrwt>0</asrwt>
<pdfrwt beam="1">  1        4 0.18008147E-03 0.20003848E+02</pdfrwt>
<pdfrwt beam="2">  1       -4 0.13148353E-01 0.20003848E+02</pdfrwt>
<totfact> 0.10195499E+06</totfact>
</mgrwt>
</event>
<event>
 5    1  0.4710515E-007  0.2000343E+02  0.7818608E-02  0.1745260E+00
         -4   -1    0    0    0  501 -0.00000000000E+00  0.00000000000E+00  0.19190474008E+01  0.23872877763E+01  0.14200000000E+01 0. -1.
          4   -1    0    0  501    0  0.00000000000E+00 -0.00000000000E+00 -0.45978751000E+02  0.46000673294E+02  0.14200000000E+01 0.  1.
       1023    2    1    2    0    0  0.00000000000E+00  0.00000000000E+00 -0.44059703599E+02  0.48387961070E+02  0.20003432088E+02 0.  0.
        -13    1    3    3    0    0 -0.92389140148E+01 -0.38294519196E+01 -0.21956593732E+02  0.24127275333E+02  0.10570000000E+00 0. -1.
         13    1    3    3    0    0  0.92389140148E+01  0.38294519196E+01 -0.22103109867E+02  0.24260685737E+02  0.10570000000E+00 0.  1.
<mgrwt>
<rscale>  0 0.20003432E+02</rscale>
<asrwt>0</asrwt>
<pdfrwt beam="2">  1        4 0.71113581E-02 0.20003432E+02</pdfrwt>
<pdfrwt beam="1">  1       -4 0.33294292E-03 0.20003432E+02</pdfrwt>
<totfact> 0.11584538E+06</totfact>
</mgrwt>
</event>
<event>
 4    1  0.4710515E-007  0.2004044E+02  0.7818608E-02  0.1744525E+00
         -4   -1    0    0    0  501 -0.00000000000E+00  0.00000000000E+00  0.73875679055E+02  0.73889325047E+02  0.14200000000E+01 0.  1.
          4   -1    0    0  501    0  0.00000000000E+00 -0.00000000000E+00 -0.97058726777E+00  0.17200115245E+01  0.14200000000E+01 0. -1.
        -13    1    1    2    0    0 -0.88147527084E+01 -0.47634106942E+01  0.36682744998E+02  0.38026634085E+02  0.10570000000E+00 0. -1.
         13    1    1    2    0    0  0.88147527084E+01  0.47634106942E+01  0.36222346789E+02  0.37582702486E+02  0.10570000000E+00 0.  1.
<mgrwt>
<rscale>  0 0.20040443E+02</rscale>
<asrwt>0</asrwt>
<pdfrwt beam="2">  1        4 0.20801883E-03 0.20040443E+02</pdfrwt>
<pdfrwt beam="1">  1       -4 0.11424187E-01 0.20040443E+02</pdfrwt>
<totfact> 0.10514409E+06</totfact>
</mgrwt>
</event>
<event>
 5    1  0.4710515E-007  0.2000405E+02  0.7818608E-02  0.1745248E+00
         -4   -1    0    0    0  501 -0.00000000000E+00  0.00000000000E+00  0.15273683953E+02  0.15339550890E+02  0.14200000000E+01 0. -1.
          4   -1    0    0  501    0  0.00000000000E+00 -0.00000000000E+00 -0.63918142210E+01  0.65476475956E+01  0.14200000000E+01 0.  1.
       1023    2    1    2    0    0  0.00000000000E+00  0.00000000000E+00  0.88818697319E+01  0.21887198485E+02  0.20004045781E+02 0.  0.
        -13    1    3    3    0    0  0.62441222458E+01 -0.78112532234E+01  0.46123688503E+01  0.11013167503E+02  0.10570000000E+00 0. -1.
         13    1    3    3    0    0 -0.62441222458E+01  0.78112532234E+01  0.42695008816E+01  0.10874030983E+02  0.10570000000E+00 0.  1.
<mgrwt>
<rscale>  0 0.20004046E+02</rscale>
<asrwt>0</asrwt>
<pdfrwt beam="2">  1        4 0.10004099E-02 0.20004046E+02</pdfrwt>
<pdfrwt beam="1">  1       -4 0.23668514E-02 0.20004046E+02</pdfrwt>
<totfact> 0.12897456E+06</totfact>
</mgrwt>
</event>
<event>
 5    1  0.4710515E-007  0.2001011E+02  0.7818608E-02  0.1745127E+00
          4   -1    0    0  501    0  0.00000000000E+00  0.00000000000E+00  0.43019989870E+02  0.43043419107E+02  0.14200000000E+01 0. -1.
         -4   -1    0    0    0  501 -0.00000000000E+00 -0.00000000000E+00 -0.20838143469E+01  0.25216427647E+01  0.14200000000E+01 0.  1.
       1023    2    1    2    0    0  0.00000000000E+00  0.00000000000E+00  0.40936175524E+02  0.45565061872E+02  0.20010107369E+02 0.  0.
        -13    1    3    3    0    0 -0.69780262632E+01  0.71690658607E+01  0.20377835998E+02  0.22701447714E+02  0.10570000000E+00 0. -1.
         13    1    3    3    0    0  0.69780262632E+01 -0.71690658607E+01  0.20558339525E+02  0.22863614158E+02  0.10570000000E+00 0.  1.
<mgrwt>
<rscale>  0 0.20010107E+02</rscale>
<asrwt>0</asrwt>
<pdfrwt beam="1">  1        4 0.66539415E-02 0.20010107E+02</pdfrwt>
<pdfrwt beam="2">  1       -4 0.35606817E-03 0.20010107E+02</pdfrwt>
<totfact> 0.11698946E+06</totfact>
</mgrwt>
</event>
<event>
 5    1  0.4710515E-007  0.2001103E+02  0.7818608E-02  0.1745109E+00
          4   -1    0    0  501    0  0.00000000000E+00  0.00000000000E+00  0.14869344565E+02  0.14936994604E+02  0.14200000000E+01 0.  1.
         -4   -1    0    0    0  501 -0.00000000000E+00 -0.00000000000E+00 -0.65737510005E+01  0.67253700431E+01  0.14200000000E+01 0. -1.
       1023    2    1    2    0    0  0.00000000000E+00  0.00000000000E+00  0.82955935646E+01  0.21662364647E+02  0.20011026198E+02 0.  0.
        -13    1    3    3    0    0 -0.63281484978E+01  0.77460636286E+01  0.43950166593E+01  0.10925855073E+02  0.10570000000E+00 0. -1.
         13    1    3    3    0    0  0.63281484978E+01 -0.77460636286E+01  0.39005769053E+01  0.10736509574E+02  0.10570000000E+00 0.  1.
<mgrwt>
<rscale>  0 0.20011026E+02</rscale>
<asrwt>0</asrwt>
<pdfrwt beam="1">  1        4 0.23044583E-02 0.20011026E+02</pdfrwt>
<pdfrwt beam="2">  1       -4 0.10282132E-02 0.20011026E+02</pdfrwt>
<totfact> 0.12901363E+06</totfact>
</mgrwt>
</event>
<event>
 5    1  0.4710515E-007  0.2000328E+02  0.7818608E-02  0.1745263E+00
          4   -1    0    0  501    0  0.00000000000E+00  0.00000000000E+00  0.25010415066E+02  0.25050693838E+02  0.14200000000E+01 0. -1.
         -4   -1    0    0    0  501 -0.00000000000E+00 -0.00000000000E+00 -0.38286198898E+01  0.40834703697E+01  0.14200000000E+01 0.  1.
       1023    2    1    2    0    0  0.00000000000E+00  0.00000000000E+00  0.21181795176E+02  0.29134164208E+02  0.20003276662E+02 0.  0.
        -13    1    3    3    0    0  0.67638173242E+01 -0.73667287434E+01  0.10502548126E+02  0.14502848231E+02  0.10570000000E+00 0.  1.
         13    1    3    3    0    0 -0.67638173242E+01  0.73667287434E+01  0.10679247051E+02  0.14631315978E+02  0.10570000000E+00 0. -1.
<mgrwt>
<rscale>  0 0.20003277E+02</rscale>
<asrwt>0</asrwt>
<pdfrwt beam="1">  1        4 0.38704583E-02 0.20003277E+02</pdfrwt>
<pdfrwt beam="2">  1       -4 0.61172071E-03 0.20003277E+02</pdfrwt>
<totfact> 0.12497050E+06</totfact>
</mgrwt>
</event>
<event>
 5    1  0.4710515E-007  0.2000183E+02  0.7818608E-02  0.1745292E+00
         -4   -1    0    0    0  501 -0.00000000000E+00  0.00000000000E+00  0.11069050849E+03  0.11069961639E+03  0.14200000000E+01 0.  1.
          4   -1    0    0  501    0  0.00000000000E+00 -0.00000000000E+00 -0.33080950793E+00  0.14580243244E+01  0.14200000000E+01 0. -1.
       1023    2    1    2    0    0  0.00000000000E+00  0.00000000000E+00  0.11035969898E+03  0.11215764072E+03  0.20001830219E+02 0.  0.
        -13    1    3    3    0    0  0.24565605859E+01 -0.96936502810E+01  0.54760800390E+02  0.55666488820E+02  0.10570000000E+00 0.  1.
         13    1    3    3    0    0 -0.24565605859E+01  0.96936502810E+01  0.55598898590E+02  0.56491151897E+02  0.10570000000E+00 0. -1.
<mgrwt>
<rscale>  0 0.20001830E+02</rscale>
<asrwt>0</asrwt>
<pdfrwt beam="2">  1        4 0.13830325E-03 0.20001830E+02</pdfrwt>
<pdfrwt beam="1">  1       -4 0.17116713E-01 0.20001830E+02</pdfrwt>
<totfact> 0.94662493E+05</totfact>
</mgrwt>
</event>
<event>
 5    1  0.5219411E-007  0.2000123E+02  0.7818608E-02  0.1745304E+00
          4   -1    0    0  501    0  0.00000000000E+00  0.00000000000E+00  0.11083841889E+02  0.11174432917E+02  0.14200000000E+01 0.  1.
         -4   -1    0    0    0  501 -0.00000000000E+00 -0.00000000000E+00 -0.88390337597E+01  0.89523693961E+01  0.14200000000E+01 0. -1.
       1023    2    1    2    0    0  0.00000000000E+00  0.00000000000E+00  0.22448081291E+01  0.20126802313E+02  0.20001225158E+02 0.  0.
        -13    1    3    3    0    0  0.38912364219E+01 -0.92118586005E+01  0.10902708763E+01  0.10059817237E+02  0.10570000000E+00 0.  1.
         13    1    3    3    0    0 -0.38912364219E+01  0.92118586005E+01  0.11545372528E+01  0.10066985076E+02  0.10570000000E+00 0. -1.
<mgrwt>
<rscale>  0 0.20001225E+02</rscale>
<asrwt>0</asrwt>
<pdfrwt beam="1">  1        4 0.17208931E-02 0.20001225E+02</pdfrwt>
<pdfrwt beam="2">  1       -4 0.13755380E-02 0.20001225E+02</pdfrwt>
<totfact> 0.13004888E+06</totfact>
</mgrwt>
</event>
<event>
 5    1  0.4710515E-007  0.2001213E+02  0.7818608E-02  0.1745087E+00
         -4   -1    0    0    0  501 -0.00000000000E+00  0.00000000000E+00  0.42235550813E+02  0.42259414956E+02  0.14200000000E+01 0.  1.
          4   -1    0    0  501    0  0.00000000000E+00 -0.00000000000E+00 -0.21310715730E+01  0.25608330772E+01  0.14200000000E+01 0. -1.
       1023    2    1    2    0    0  0.00000000000E+00  0.00000000000E+00  0.40104479240E+02  0.44820248034E+02  0.20012130788E+02 0.  0.
        -13    1    3    3    0    0  0.84449442925E+01 -0.53633946096E+01  0.19683638962E+02  0.22080305730E+02  0.10570000000E+00 0. -1.
         13    1    3    3    0    0 -0.84449442925E+01  0.53633946096E+01  0.20420840278E+02  0.22739942304E+02  0.10570000000E+00 0.  1.
<mgrwt>
<rscale>  0 0.20012131E+02</rscale>
<asrwt>0</asrwt>
<pdfrwt beam="2">  1        4 0.36275148E-03 0.20012131E+02</pdfrwt>
<pdfrwt beam="1">  1       -4 0.65326707E-02 0.20012131E+02</pdfrwt>
<totfact> 0.11729381E+06</totfact>
</mgrwt>
</event>
<event>
 5    1  0.4710515E-007  0.2000776E+02  0.7818608E-02  0.1745174E+00
          4   -1    0    0  501    0  0.00000000000E+00  0.00000000000E+00  0.14843866126E+02  0.14911631754E+02  0.14200000000E+01 0. -1.
         -4   -1    0    0    0  501 -0.00000000000E+00 -0.00000000000E+00 -0.65830206805E+01  0.67344310287E+01  0.14200000000E+01 0.  1.
       1023    2    1    2    0    0  0.00000000000E+00  0.00000000000E+00  0.82608454455E+01  0.21646062783E+02  0.20007760157E+02 0.  0.
        -13    1    3    3    0    0 -0.21331640995E+00 -0.99993114265E+01  0.43319879152E+01  0.10899955261E+02  0.10570000000E+00 0. -1.
         13    1    3    3    0    0  0.21331640995E+00  0.99993114265E+01  0.39288575303E+01  0.10746107522E+02  0.10570000000E+00 0.  1.
<mgrwt>
<rscale>  0 0.20007760E+02</rscale>
<asrwt>0</asrwt>
<pdfrwt beam="1">  1        4 0.23005314E-02 0.20007760E+02</pdfrwt>
<pdfrwt beam="2">  1       -4 0.10296321E-02 0.20007760E+02</pdfrwt>
<totfact> 0.12906611E+06</totfact>
</mgrwt>
</event>
<event>
 5    1  0.4710515E-007  0.2000400E+02  0.7818608E-02  0.1745249E+00
         -4   -1    0    0    0  501 -0.00000000000E+00  0.00000000000E+00  0.64001752368E+01  0.65558098708E+01  0.14200000000E+01 0. -1.
          4   -1    0    0  501    0  0.00000000000E+00 -0.00000000000E+00 -0.15254045876E+02  0.15319997245E+02  0.14200000000E+01 0.  1.
       1023    2    1    2    0    0  0.00000000000E+00  0.00000000000E+00 -0.88538706394E+01  0.21875807116E+02  0.20003997392E+02 0.  0.
        -13    1    3    3    0    0 -0.91729182255E+01  0.39852965516E+01 -0.44942415603E+01  0.10965144644E+02  0.10570000000E+00 0.  1.
         13    1    3    3    0    0  0.91729182255E+01 -0.39852965516E+01 -0.43596290790E+01  0.10910662472E+02  0.10570000000E+00 0. -1.
<mgrwt>
<rscale>  0 0.20003997E+02</rscale>
<asrwt>0</asrwt>
<pdfrwt beam="2">  1        4 0.23638214E-02 0.20003997E+02</pdfrwt>
<pdfrwt beam="1">  1       -4 0.10016874E-02 0.20003997E+02</pdfrwt>
<totfact> 0.12898182E+06</totfact>
</mgrwt>
</event>
<event>
 5    1  0.4710515E-007  0.2000974E+02  0.7818608E-02  0.1745134E+00
         -4   -1    0    0    0  501 -0.00000000000E+00  0.00000000000E+00  0.12994921324E+02  0.13072275250E+02  0.14200000000E+01 0. -1.
          4   -1    0    0  501    0  0.00000000000E+00 -0.00000000000E+00 -0.75360976412E+01  0.76687135595E+01  0.14200000000E+01 0. -1.
       1023    2    1    2    0    0  0.00000000000E+00  0.00000000000E+00  0.54588236825E+01  0.20740988809E+02  0.20009744146E+02 0.  0.
        -13    1    3    3    0    0  0.17429354985E+01 -0.98493896065E+01  0.29314527661E+01  0.10423669583E+02  0.10570000000E+00 0.  1.
         13    1    3    3    0    0 -0.17429354985E+01  0.98493896065E+01  0.25273709165E+01  0.10317319226E+02  0.10570000000E+00 0. -1.
<mgrwt>
<rscale>  0 0.20009744E+02</rscale>
<asrwt>0</asrwt>
<pdfrwt beam="2">  1        4 0.11755512E-02 0.20009744E+02</pdfrwt>
<pdfrwt beam="1">  1       -4 0.20153702E-02 0.20009744E+02</pdfrwt>
<totfact> 0.12957190E+06</totfact>
</mgrwt>
</event>
<event>
 5    1  0.4710515E-007  0.2001020E+02  0.7818608E-02  0.1745125E+00
          4   -1    0    0  501    0  0.00000000000E+00  0.00000000000E+00  0.72974109584E+02  0.72987924136E+02  0.14200000000E+01 0.  1.
         -4   -1    0    0    0  501 -0.00000000000E+00 -0.00000000000E+00 -0.98649722390E+00  0.17290392629E+01  0.14200000000E+01 0. -1.
       1023    2    1    2    0    0  0.00000000000E+00  0.00000000000E+00  0.71987612361E+02  0.74716963399E+02  0.20010204550E+02 0.  0.
        -13    1    3    3    0    0 -0.73536233241E+01 -0.67825057172E+01  0.35572362464E+02  0.36952432986E+02  0.10570000000E+00 0.  1.
         13    1    3    3    0    0  0.73536233241E+01  0.67825057172E+01  0.36415249897E+02  0.37764530413E+02  0.10570000000E+00 0. -1.
<mgrwt>
<rscale>  0 0.20010205E+02</rscale>
<asrwt>0</asrwt>
<pdfrwt beam="1">  1        4 0.11284969E-01 0.20010205E+02</pdfrwt>
<pdfrwt beam="2">  1       -4 0.20995005E-03 0.20010205E+02</pdfrwt>
<totfact> 0.10576512E+06</totfact>
</mgrwt>
</event>
<event>
 5    1  0.4710515E-007  0.2000124E+02  0.7818608E-02  0.1745303E+00
          4   -1    0    0  501    0  0.00000000000E+00  0.00000000000E+00  0.57310371271E+02  0.57327960501E+02  0.14200000000E+01 0. -1.
         -4   -1    0    0    0  501 -0.00000000000E+00 -0.00000000000E+00 -0.14353390935E+01  0.20190587692E+01  0.14200000000E+01 0.  1.
       1023    2    1    2    0    0  0.00000000000E+00  0.00000000000E+00  0.55875032177E+02  0.59347019270E+02  0.20001236848E+02 0.  0.
        -13    1    3    3    0    0  0.21821819010E+01  0.97590515511E+01  0.27978559816E+02  0.29712152176E+02  0.10570000000E+00 0. -1.
         13    1    3    3    0    0 -0.21821819010E+01 -0.97590515511E+01  0.27896472361E+02  0.29634867094E+02  0.10570000000E+00 0.  1.
<mgrwt>
<rscale>  0 0.20001237E+02</rscale>
<asrwt>0</asrwt>
<pdfrwt beam="1">  1        4 0.88632367E-02 0.20001237E+02</pdfrwt>
<pdfrwt beam="2">  1       -4 0.26707587E-03 0.20001237E+02</pdfrwt>
<totfact> 0.11142597E+06</totfact>
</mgrwt>
</event>
<event>
 5    1  0.4710515E-007  0.2000337E+02  0.7818608E-02  0.1745261E+00
          4   -1    0    0  501    0  0.00000000000E+00  0.00000000000E+00  0.10468065610E+03  0.10469028686E+03  0.14200000000E+01 0. -1.
         -4   -1    0    0    0  501 -0.00000000000E+00 -0.00000000000E+00 -0.41298257216E+00  0.14788355571E+01  0.14200000000E+01 0.  1.
       1023    2    1    2    0    0  0.00000000000E+00  0.00000000000E+00  0.10426767353E+03  0.10616912241E+03  0.20003369981E+02 0.  0.
        -13    1    3    3    0    0 -0.65856237711E+01 -0.75265159587E+01  0.52454372602E+02  0.53399356367E+02  0.10570000000E+00 0.  1.
         13    1    3    3    0    0  0.65856237711E+01  0.75265159587E+01  0.51813300930E+02  0.52769766048E+02  0.10570000000E+00 0. -1.
<mgrwt>
<rscale>  0 0.20003370E+02</rscale>
<asrwt>0</asrwt>
<pdfrwt beam="1">  1        4 0.16187439E-01 0.20003370E+02</pdfrwt>
<pdfrwt beam="2">  1       -4 0.14626536E-03 0.20003370E+02</pdfrwt>
<totfact> 0.96257625E+05</totfact>
</mgrwt>
</event>
<event>
 5    1  0.4755703E-007  0.2000247E+02  0.7818608E-02  0.1745279E+00
          4   -1    0    0  501    0  0.00000000000E+00  0.00000000000E+00  0.81250094947E+02  0.81262502601E+02  0.14200000000E+01 0. -1.
         -4   -1    0    0    0  501 -0.00000000000E+00 -0.00000000000E+00 -0.80484637910E+00  0.16322308948E+01  0.14200000000E+01 0.  1.
       1023    2    1    2    0    0  0.00000000000E+00  0.00000000000E+00  0.80445248568E+02  0.82894733496E+02  0.20002470450E+02 0.  0.
        -13    1    3    3    0    0  0.22169255247E+01  0.97515155033E+01  0.40562353243E+02  0.41777056939E+02  0.10570000000E+00 0. -1.
         13    1    3    3    0    0 -0.22169255247E+01 -0.97515155033E+01  0.39882895325E+02  0.41117676556E+02  0.10570000000E+00 0.  1.
<mgrwt>
<rscale>  0 0.20002470E+02</rscale>
<asrwt>0</asrwt>
<pdfrwt beam="1">  1        4 0.12564615E-01 0.20002470E+02</pdfrwt>
<pdfrwt beam="2">  1       -4 0.18842190E-03 0.20002470E+02</pdfrwt>
<totfact> 0.10314999E+06</totfact>
</mgrwt>
</event>
<event>
 4    1  0.4710515E-007  0.2440710E+02  0.7818608E-02  0.1669667E+00
          4   -1    0    0  501    0  0.00000000000E+00  0.00000000000E+00  0.73517670224E+02  0.73531382656E+02  0.14200000000E+01 0.  1.
         -4   -1    0    0    0  501 -0.00000000000E+00 -0.00000000000E+00 -0.17612291188E+01  0.22623722083E+01  0.14200000000E+01 0. -1.
        -13    1    1    2    0    0  0.11772767208E+02  0.30620487372E+01  0.38891011054E+02  0.40749185310E+02  0.10570000000E+00 0.  1.
         13    1    1    2    0    0 -0.11772767208E+02 -0.30620487372E+01  0.32865430052E+02  0.35044569553E+02  0.10570000000E+00 0. -1.
<mgrwt>
<rscale>  0 0.24407098E+02</rscale>
<asrwt>0</asrwt>
<pdfrwt beam="1">  1        4 0.11350017E-01 0.24407098E+02</pdfrwt>
<pdfrwt beam="2">  1       -4 0.31056255E-03 0.24407098E+02</pdfrwt>
<totfact> 0.69901847E+05</totfact>
</mgrwt>
</event>
<event>
 4    1  0.4710515E-007  0.2007797E+02  0.7818608E-02  0.1743782E+00
          4   -1    0    0  501    0  0.00000000000E+00  0.00000000000E+00  0.20027137862E+02  0.20077416441E+02  0.14200000000E+01 0.  1.
         -4   -1    0    0    0  501 -0.00000000000E+00 -0.00000000000E+00 -0.48742045771E+01  0.50768366390E+01  0.14200000000E+01 0. -1.
        -13    1    1    2    0    0 -0.22017066666E+01 -0.97940064885E+01  0.75816902739E+01  0.12580273258E+02  0.10570000000E+00 0.  1.
         13    1    1    2    0    0  0.22017066666E+01  0.97940064885E+01  0.75712430106E+01  0.12573979822E+02  0.10570000000E+00 0. -1.
<mgrwt>
<rscale>  0 0.20077975E+02</rscale>
<asrwt>0</asrwt>
<pdfrwt beam="1">  1        4 0.31005528E-02 0.20077975E+02</pdfrwt>
<pdfrwt beam="2">  1       -4 0.76933230E-03 0.20077975E+02</pdfrwt>
<totfact> 0.12616582E+06</totfact>
</mgrwt>
</event>
<event>
 5    1  0.4852186E-007  0.2000274E+02  0.7818608E-02  0.1745274E+00
         -4   -1    0    0    0  501 -0.00000000000E+00  0.00000000000E+00  0.88188420923E+02  0.88199852522E+02  0.14200000000E+01 0. -1.
          4   -1    0    0  501    0  0.00000000000E+00 -0.00000000000E+00 -0.67371035161E+00  0.15717142354E+01  0.14200000000E+01 0.  1.
       1023    2    1    2    0    0  0.00000000000E+00  0.00000000000E+00  0.87514710571E+02  0.89771566757E+02  0.20002740604E+02 0.  0.
        -13    1    3    3    0    0 -0.10000643186E+02  0.25715683318E-01  0.43523722622E+02  0.44658024238E+02  0.10570000000E+00 0.  1.
         13    1    3    3    0    0  0.10000643186E+02 -0.25715683318E-01  0.43990987949E+02  0.45113542520E+02  0.10570000000E+00 0. -1.
<mgrwt>
<rscale>  0 0.20002741E+02</rscale>
<asrwt>0</asrwt>
<pdfrwt beam="2">  1        4 0.17360433E-03 0.20002741E+02</pdfrwt>
<pdfrwt beam="1">  1       -4 0.13637405E-01 0.20002741E+02</pdfrwt>
<totfact> 0.10099903E+06</totfact>
</mgrwt>
</event>
<event>
 5    1  0.4739029E-007  0.2000191E+02  0.7818608E-02  0.1745290E+00
          4   -1    0    0  501    0  0.00000000000E+00  0.00000000000E+00  0.12087800232E+02  0.12170920855E+02  0.14200000000E+01 0. -1.
         -4   -1    0    0    0  501 -0.00000000000E+00 -0.00000000000E+00 -0.81009410723E+01  0.82244541616E+01  0.14200000000E+01 0.  1.
       1023    2    1    2    0    0  0.00000000000E+00  0.00000000000E+00  0.39868591597E+01  0.20395375016E+02  0.20001906811E+02 0.  0.
        -13    1    3    3    0    0 -0.20865449907E+01 -0.97802904064E+01  0.19811046464E+01  0.10195278247E+02  0.10570000000E+00 0.  1.
         13    1    3    3    0    0  0.20865449907E+01  0.97802904064E+01  0.20057545133E+01  0.10200096769E+02  0.10570000000E+00 0. -1.
<mgrwt>
<rscale>  0 0.20001907E+02</rscale>
<asrwt>0</asrwt>
<pdfrwt beam="1">  1        4 0.18755565E-02 0.20001907E+02</pdfrwt>
<pdfrwt beam="2">  1       -4 0.12621935E-02 0.20001907E+02</pdfrwt>
<totfact> 0.12987996E+06</totfact>
</mgrwt>
</event>
<event>
 5    1  0.4710515E-007  0.2000435E+02  0.7818608E-02  0.1745242E+00
          4   -1    0    0  501    0  0.00000000000E+00  0.00000000000E+00  0.25150887913E+02  0.25190942079E+02  0.14200000000E+01 0. -1.
         -4   -1    0    0    0  501 -0.00000000000E+00 -0.00000000000E+00 -0.38062841009E+01  0.40625359883E+01  0.14200000000E+01 0.  1.
       1023    2    1    2    0    0  0.00000000000E+00  0.00000000000E+00  0.21344603812E+02  0.29253478067E+02  0.20004346206E+02 0.  0.
        -13    1    3    3    0    0  0.95540289907E+01  0.29583260611E+01  0.10721486910E+02  0.14662626541E+02  0.10570000000E+00 0. -1.
         13    1    3    3    0    0 -0.95540289907E+01 -0.29583260611E+01  0.10623116902E+02  0.14590851526E+02  0.10570000000E+00 0.  1.
<mgrwt>
<rscale>  0 0.20004346E+02</rscale>
<asrwt>0</asrwt>
<pdfrwt beam="1">  1        4 0.38921601E-02 0.20004346E+02</pdfrwt>
<pdfrwt beam="2">  1       -4 0.60837495E-03 0.20004346E+02</pdfrwt>
<totfact> 0.12489399E+06</totfact>
</mgrwt>
</event>
<event>
 5    1  0.4710515E-007  0.2000160E+02  0.7818608E-02  0.1745296E+00
         -4   -1    0    0    0  501 -0.00000000000E+00  0.00000000000E+00  0.49850361689E+02  0.49870582115E+02  0.14200000000E+01 0. -1.
          4   -1    0    0  501    0  0.00000000000E+00 -0.00000000000E+00 -0.17317731620E+01  0.22395174223E+01  0.14200000000E+01 0.  1.
       1023    2    1    2    0    0  0.00000000000E+00  0.00000000000E+00  0.48118588527E+02  0.52110099538E+02  0.20001597736E+02 0.  0.
        -13    1    3    3    0    0 -0.26313915788E+01 -0.96477393483E+01  0.24167007921E+02  0.26154512814E+02  0.10570000000E+00 0.  1.
         13    1    3    3    0    0  0.26313915788E+01  0.96477393483E+01  0.23951580606E+02  0.25955586724E+02  0.10570000000E+00 0. -1.
<mgrwt>
<rscale>  0 0.20001598E+02</rscale>
<asrwt>0</asrwt>
<pdfrwt beam="2">  1        4 0.30703934E-03 0.20001598E+02</pdfrwt>
<pdfrwt beam="1">  1       -4 0.77098982E-02 0.20001598E+02</pdfrwt>
<totfact> 0.11430538E+06</totfact>
</mgrwt>
</event>
<event>
 5    1  0.4710515E-007  0.2000512E+02  0.7818608E-02  0.1745226E+00
          4   -1    0    0  501    0  0.00000000000E+00  0.00000000000E+00  0.31256271936E+01  0.34330664650E+01  0.14200000000E+01 0.  1.
         -4   -1    0    0    0  501 -0.00000000000E+00 -0.00000000000E+00 -0.30184582849E+02  0.30217965547E+02  0.14200000000E+01 0. -1.
       1023    2    1    2    0    0  0.00000000000E+00  0.00000000000E+00 -0.27058955656E+02  0.33651032012E+02  0.20005121201E+02 0.  0.
        -13    1    3    3    0    0 -0.67111727292E+01 -0.74161996397E+01 -0.13552638871E+02  0.16844139911E+02  0.10570000000E+00 0.  1.
         13    1    3    3    0    0  0.67111727292E+01  0.74161996397E+01 -0.13506316785E+02  0.16806892100E+02  0.10570000000E+00 0. -1.
<mgrwt>
<rscale>  0 0.20005121E+02</rscale>
<asrwt>0</asrwt>
<pdfrwt beam="1">  1        4 0.50708282E-03 0.20005121E+02</pdfrwt>
<pdfrwt beam="2">  1       -4 0.46699989E-02 0.20005121E+02</pdfrwt>
<totfact> 0.12262609E+06</totfact>
</mgrwt>
</event>
<event>
 4    1  0.4710515E-007  0.2066148E+02  0.7818608E-02  0.1732485E+00
         -4   -1    0    0    0  501 -0.00000000000E+00  0.00000000000E+00  0.56220034346E+01  0.57985621165E+01  0.14200000000E+01 0. -1.
          4   -1    0    0  501    0  0.00000000000E+00 -0.00000000000E+00 -0.18485607157E+02  0.18540066665E+02  0.14200000000E+01 0. -1.
        -13    1    1    2    0    0 -0.42215871487E+01  0.93354816019E+01 -0.48779729294E+01  0.11348075043E+02  0.10570000000E+00 0. -1.
         13    1    1    2    0    0  0.42215871487E+01 -0.93354816019E+01 -0.79856307929E+01  0.12990553739E+02  0.10570000000E+00 0.  1.
<mgrwt>
<rscale>  0 0.20661475E+02</rscale>
<asrwt>0</asrwt>
<pdfrwt beam="2">  1        4 0.28617102E-02 0.20661475E+02</pdfrwt>
<pdfrwt beam="1">  1       -4 0.88269425E-03 0.20661475E+02</pdfrwt>
<totfact> 0.11937988E+06</totfact>
</mgrwt>
</event>
<event>
 4    1  0.4710515E-007  0.2001685E+02  0.7818608E-02  0.1744993E+00
         -4   -1    0    0    0  501 -0.00000000000E+00  0.00000000000E+00  0.32046077331E+01  0.35051263491E+01  0.14200000000E+01 0. -1.
          4   -1    0    0  501    0  0.00000000000E+00 -0.00000000000E+00 -0.29539357231E+02  0.29573468272E+02  0.14200000000E+01 0.  1.
        -13    1    1    2    0    0  0.14568030678E+01  0.98940199088E+01 -0.13793422774E+02  0.17037710804E+02  0.10570000000E+00 0.  1.
         13    1    1    2    0    0 -0.14568030678E+01 -0.98940199088E+01 -0.12541326724E+02  0.16040883817E+02  0.10570000000E+00 0. -1.
<mgrwt>
<rscale>  0 0.20016853E+02</rscale>
<asrwt>0</asrwt>
<pdfrwt beam="2">  1        4 0.45702571E-02 0.20016853E+02</pdfrwt>
<pdfrwt beam="1">  1       -4 0.51875734E-03 0.20016853E+02</pdfrwt>
<totfact> 0.12276733E+06</totfact>
</mgrwt>
</event>
<event>
 5    1  0.5094225E-007  0.2000133E+02  0.7818608E-02  0.1745302E+00
         -4   -1    0    0    0  501 -0.00000000000E+00  0.00000000000E+00  0.48659866042E+02  0.48680580967E+02  0.14200000000E+01 0. -1.
          4   -1    0    0  501    0  0.00000000000E+00 -0.00000000000E+00 -0.17863310871E+01  0.22819681752E+01  0.14200000000E+01 0.  1.
       1023    2    1    2    0    0  0.00000000000E+00  0.00000000000E+00  0.46873534955E+02  0.50962549142E+02  0.20001328352E+02 0.  0.
        -13    1    3    3    0    0  0.24097643628E+01 -0.97053185078E+01  0.23324545898E+02  0.25378057164E+02  0.10570000000E+00 0.  1.
         13    1    3    3    0    0 -0.24097643628E+01  0.97053185078E+01  0.23548989058E+02  0.25584491978E+02  0.10570000000E+00 0. -1.
<mgrwt>
<rscale>  0 0.20001328E+02</rscale>
<asrwt>0</asrwt>
<pdfrwt beam="2">  1        4 0.31453956E-03 0.20001328E+02</pdfrwt>
<pdfrwt beam="1">  1       -4 0.75258525E-02 0.20001328E+02</pdfrwt>
<totfact> 0.11478387E+06</totfact>
</mgrwt>
</event>
<event>
 5    1  0.4710515E-007  0.2001234E+02  0.7818608E-02  0.1745083E+00
          4   -1    0    0  501    0  0.00000000000E+00  0.00000000000E+00  0.65361615671E+01  0.66886327475E+01  0.14200000000E+01 0.  1.
         -4   -1    0    0    0  501 -0.00000000000E+00 -0.00000000000E+00 -0.14955278810E+02  0.15022541872E+02  0.14200000000E+01 0. -1.
       1023    2    1    2    0    0  0.00000000000E+00  0.00000000000E+00 -0.84191172432E+01  0.21711174619E+02  0.20012335401E+02 0.  0.
        -13    1    3    3    0    0  0.62476110416E+01 -0.78140568945E+01 -0.43633326172E+01  0.10915217492E+02  0.10570000000E+00 0.  1.
         13    1    3    3    0    0 -0.62476110416E+01  0.78140568945E+01 -0.40557846260E+01  0.10795957128E+02  0.10570000000E+00 0. -1.
<mgrwt>
<rscale>  0 0.20012335E+02</rscale>
<asrwt>0</asrwt>
<pdfrwt beam="1">  1        4 0.10224660E-02 0.20012335E+02</pdfrwt>
<pdfrwt beam="2">  1       -4 0.23177147E-02 0.20012335E+02</pdfrwt>
<totfact> 0.12896798E+06</totfact>
</mgrwt>
</event>
<event>
 4    1  0.5577736E-007  0.2016131E+02  0.7818608E-02  0.1742139E+00
         -4   -1    0    0    0  501 -0.00000000000E+00  0.00000000000E+00  0.14386063863E+02  0.14455975701E+02  0.14200000000E+01 0. -1.
          4   -1    0    0  501    0  0.00000000000E+00 -0.00000000000E+00 -0.69042841343E+01  0.70487970184E+01  0.14200000000E+01 0.  1.
        -13    1    1    2    0    0 -0.10008211200E+02 -0.46625270126E+00  0.25595213504E+01  0.10341373460E+02  0.10570000000E+00 0.  1.
         13    1    1    2    0    0  0.10008211200E+02  0.46625270126E+00  0.49222583784E+01  0.11163399260E+02  0.10570000000E+00 0. -1.
<mgrwt>
<rscale>  0 0.20161305E+02</rscale>
<asrwt>0</asrwt>
<pdfrwt beam="2">  1        4 0.10786918E-02 0.20161305E+02</pdfrwt>
<pdfrwt beam="1">  1       -4 0.22297348E-02 0.20161305E+02</pdfrwt>
<totfact> 0.12714800E+06</totfact>
</mgrwt>
</event>
<event>
 5    1  0.4710515E-007  0.2001091E+02  0.7818608E-02  0.1745111E+00
         -4   -1    0    0    0  501 -0.00000000000E+00  0.00000000000E+00  0.16344800933E+02  0.16406368201E+02  0.14200000000E+01 0. -1.
          4   -1    0    0  501    0  0.00000000000E+00 -0.00000000000E+00 -0.59682903128E+01  0.61348911366E+01  0.14200000000E+01 0.  1.
       1023    2    1    2    0    0  0.00000000000E+00  0.00000000000E+00  0.10376510620E+02  0.22541259338E+02  0.20010907023E+02 0.  0.
        -13    1    3    3    0    0  0.44457846517E+01  0.89628537016E+01  0.51731494670E+01  0.11263675934E+02  0.10570000000E+00 0. -1.
         13    1    3    3    0    0 -0.44457846517E+01 -0.89628537016E+01  0.52033611532E+01  0.11277583404E+02  0.10570000000E+00 0.  1.
<mgrwt>
<rscale>  0 0.20010907E+02</rscale>
<asrwt>0</asrwt>
<pdfrwt beam="2">  1        4 0.93574992E-03 0.20010907E+02</pdfrwt>
<pdfrwt beam="1">  1       -4 0.25321361E-02 0.20010907E+02</pdfrwt>
<totfact> 0.12850628E+06</totfact>
</mgrwt>
</event>
<event>
 5    1  0.4710515E-007  0.2000455E+02  0.7818608E-02  0.1745238E+00
         -4   -1    0    0    0  501 -0.00000000000E+00  0.00000000000E+00  0.30030205294E+02  0.30063759412E+02  0.14200000000E+01 0.  1.
          4   -1    0    0  501    0  0.00000000000E+00 -0.00000000000E+00 -0.31430537321E+01  0.34489399477E+01  0.14200000000E+01 0. -1.
       1023    2    1    2    0    0  0.00000000000E+00  0.00000000000E+00  0.26887151562E+02  0.33512699360E+02  0.20004551964E+02 0.  0.
        -13    1    3    3    0    0  0.43045155678E+01  0.90277009282E+01  0.13574567434E+02  0.16861443942E+02  0.10570000000E+00 0.  1.
         13    1    3    3    0    0 -0.43045155678E+01 -0.90277009282E+01  0.13312584128E+02  0.16651255418E+02  0.10570000000E+00 0. -1.
<mgrwt>
<rscale>  0 0.20004552E+02</rscale>
<asrwt>0</asrwt>
<pdfrwt beam="2">  1        4 0.50965754E-03 0.20004552E+02</pdfrwt>
<pdfrwt beam="1">  1       -4 0.46461423E-02 0.20004552E+02</pdfrwt>
<totfact> 0.12270245E+06</totfact>
</mgrwt>
</event>
<event>
 4    1  0.4710515E-007  0.2002296E+02  0.7818608E-02  0.1744872E+00
         -4   -1    0    0    0  501 -0.00000000000E+00  0.00000000000E+00  0.81088332903E+02  0.81100765304E+02  0.14200000000E+01 0. -1.
          4   -1    0    0  501    0  0.00000000000E+00 -0.00000000000E+00 -0.81148212181E+00  0.16355131409E+01  0.14200000000E+01 0.  1.
        -13    1    1    2    0    0  0.20376434810E+01  0.97939493043E+01  0.38564201676E+02  0.39840711055E+02  0.10570000000E+00 0. -1.
         13    1    1    2    0    0 -0.20376434810E+01 -0.97939493043E+01  0.41712649105E+02  0.42895567391E+02  0.10570000000E+00 0.  1.
<mgrwt>
<rscale>  0 0.20022962E+02</rscale>
<asrwt>0</asrwt>
<pdfrwt beam="2">  1        4 0.18918673E-03 0.20022962E+02</pdfrwt>
<pdfrwt beam="1">  1       -4 0.12539472E-01 0.20022962E+02</pdfrwt>
<totfact> 0.10298943E+06</totfact>
</mgrwt>
</event>
<event>
 5    1  0.4710515E-007  0.2000184E+02  0.7818608E-02  0.1745291E+00
          4   -1    0    0  501    0  0.00000000000E+00  0.00000000000E+00  0.15292435779E+01  0.20868603021E+01  0.14200000000E+01 0. -1.
         -4   -1    0    0    0  501 -0.00000000000E+00 -0.00000000000E+00 -0.54750080971E+02  0.54768492460E+02  0.14200000000E+01 0.  1.
       1023    2    1    2    0    0  0.00000000000E+00  0.00000000000E+00 -0.53220837393E+02  0.56855352762E+02  0.20001840037E+02 0.  0.
        -13    1    3    3    0    0  0.95260259151E+01  0.30433535853E+01 -0.26632056927E+02  0.28447931374E+02  0.10570000000E+00 0. -1.
         13    1    3    3    0    0 -0.95260259151E+01 -0.30433535853E+01 -0.26588780466E+02  0.28407421389E+02  0.10570000000E+00 0.  1.
<mgrwt>
<rscale>  0 0.20001840E+02</rscale>
<asrwt>0</asrwt>
<pdfrwt beam="1">  1        4 0.27957815E-03 0.20001840E+02</pdfrwt>
<pdfrwt beam="2">  1       -4 0.84673980E-02 0.20001840E+02</pdfrwt>
<totfact> 0.11239053E+06</totfact>
</mgrwt>
</event>
<event>
 5    1  0.4710515E-007  0.2000931E+02  0.7818608E-02  0.1745143E+00
         -4   -1    0    0    0  501 -0.00000000000E+00  0.00000000000E+00  0.13534325668E+02  0.13608613864E+02  0.14200000000E+01 0.  1.
          4   -1    0    0  501    0  0.00000000000E+00 -0.00000000000E+00 -0.72317320765E+01  0.73698269197E+01  0.14200000000E+01 0. -1.
       1023    2    1    2    0    0  0.00000000000E+00  0.00000000000E+00  0.63025935917E+01  0.20978440784E+02  0.20009305129E+02 0.  0.
        -13    1    3    3    0    0  0.24733523548E+01 -0.96930584095E+01  0.32510207026E+01  0.10519180638E+02  0.10570000000E+00 0. -1.
         13    1    3    3    0    0 -0.24733523548E+01  0.96930584095E+01  0.30515728892E+01  0.10459260145E+02  0.10570000000E+00 0.  1.
<mgrwt>
<rscale>  0 0.20009305E+02</rscale>
<asrwt>0</asrwt>
<pdfrwt beam="2">  1        4 0.11289113E-02 0.20009305E+02</pdfrwt>
<pdfrwt beam="1">  1       -4 0.20985411E-02 0.20009305E+02</pdfrwt>
<totfact> 0.12943732E+06</totfact>
</mgrwt>
</event>
<event>
 5    1  0.4710515E-007  0.2000591E+02  0.7818608E-02  0.1745211E+00
         -4   -1    0    0    0  501 -0.00000000000E+00  0.00000000000E+00  0.15531521263E+01  0.21044432821E+01  0.14200000000E+01 0. -1.
          4   -1    0    0  501    0  0.00000000000E+00 -0.00000000000E+00 -0.54151038642E+02  0.54169653737E+02  0.14200000000E+01 0.  1.
       1023    2    1    2    0    0  0.00000000000E+00  0.00000000000E+00 -0.52597886516E+02  0.56274097019E+02  0.20005907363E+02 0.  0.
        -13    1    3    3    0    0  0.99894895384E+01 -0.46742439819E+00 -0.25739732449E+02  0.27614369192E+02  0.10570000000E+00 0.  1.
         13    1    3    3    0    0 -0.99894895384E+01  0.46742439819E+00 -0.26858154066E+02  0.28659727828E+02  0.10570000000E+00 0. -1.
<mgrwt>
<rscale>  0 0.20005907E+02</rscale>
<asrwt>0</asrwt>
<pdfrwt beam="2">  1        4 0.83747667E-02 0.20005907E+02</pdfrwt>
<pdfrwt beam="1">  1       -4 0.28278547E-03 0.20005907E+02</pdfrwt>
<totfact> 0.11257416E+06</totfact>
</mgrwt>
</event>
<event>
 5    1  0.4710515E-007  0.2000565E+02  0.7818608E-02  0.1745216E+00
          4   -1    0    0  501    0  0.00000000000E+00  0.00000000000E+00  0.32531432759E+01  0.35495550670E+01  0.14200000000E+01 0. -1.
         -4   -1    0    0    0  501 -0.00000000000E+00 -0.00000000000E+00 -0.29102245149E+02  0.29136867929E+02  0.14200000000E+01 0.  1.
       1023    2    1    2    0    0  0.00000000000E+00  0.00000000000E+00 -0.25849101873E+02  0.32686422996E+02  0.20005653717E+02 0.  0.
        -13    1    3    3    0    0  0.75008838294E+01  0.66149604643E+01 -0.13179833294E+02  0.16545094086E+02  0.10570000000E+00 0.  1.
         13    1    3    3    0    0 -0.75008838294E+01 -0.66149604643E+01 -0.12669268579E+02  0.16141328910E+02  0.10570000000E+00 0. -1.
<mgrwt>
<rscale>  0 0.20005654E+02</rscale>
<asrwt>0</asrwt>
<pdfrwt beam="1">  1        4 0.52594780E-03 0.20005654E+02</pdfrwt>
<pdfrwt beam="2">  1       -4 0.45027325E-02 0.20005654E+02</pdfrwt>
<totfact> 0.12310488E+06</totfact>
</mgrwt>
</event>
<event>
 4    1  0.6237078E-007  0.2045031E+02  0.7818608E-02  0.1736519E+00
          4   -1    0    0  501    0  0.00000000000E+00  0.00000000000E+00  0.68603219536E+01  0.70057417385E+01  0.14200000000E+01 0.  1.
         -4   -1    0    0    0  501 -0.00000000000E+00 -0.00000000000E+00 -0.14901003487E+02  0.14968510444E+02  0.14200000000E+01 0. -1.
        -13    1    1    2    0    0  0.30052735441E+01  0.96364192601E+01 -0.22710240496E+01  0.10347027010E+02  0.10570000000E+00 0.  1.
         13    1    1    2    0    0 -0.30052735441E+01 -0.96364192601E+01 -0.57696574834E+01  0.11627225172E+02  0.10570000000E+00 0. -1.
<mgrwt>
<rscale>  0 0.20450310E+02</rscale>
<asrwt>0</asrwt>
<pdfrwt beam="1">  1        4 0.10718131E-02 0.20450310E+02</pdfrwt>
<pdfrwt beam="2">  1       -4 0.23088411E-02 0.20450310E+02</pdfrwt>
<totfact> 0.12322044E+06</totfact>
</mgrwt>
</event>
<event>
 4    1  0.4710515E-007  0.2009531E+02  0.7818608E-02  0.1743439E+00
          4   -1    0    0  501    0  0.00000000000E+00  0.00000000000E+00  0.65724809038E+00  0.15647284277E+01  0.14200000000E+01 0.  1.
         -4   -1    0    0    0  501 -0.00000000000E+00 -0.00000000000E+00 -0.89954542642E+02  0.89965749827E+02  0.14200000000E+01 0. -1.
        -13    1    1    2    0    0 -0.23268838856E+01 -0.97298330016E+01 -0.40424198761E+02  0.41643859773E+02  0.10570000000E+00 0.  1.
         13    1    1    2    0    0  0.23268838856E+01  0.97298330016E+01 -0.48873095790E+02  0.49886618481E+02  0.10570000000E+00 0. -1.
<mgrwt>
<rscale>  0 0.20095314E+02</rscale>
<asrwt>0</asrwt>
<pdfrwt beam="1">  1        4 0.17178343E-03 0.20095314E+02</pdfrwt>
<pdfrwt beam="2">  1       -4 0.13909823E-01 0.20095314E+02</pdfrwt>
<totfact> 0.99542721E+05</totfact>
</mgrwt>
</event>
<event>
 5    1  0.4710515E-007  0.2000169E+02  0.7818608E-02  0.1745295E+00
         -4   -1    0    0    0  501 -0.00000000000E+00  0.00000000000E+00  0.48647281373E+00  0.15010182539E+01  0.14200000000E+01 0.  1.
          4   -1    0    0  501    0  0.00000000000E+00 -0.00000000000E+00 -0.99624176504E+02  0.99634296024E+02  0.14200000000E+01 0. -1.
       1023    2    1    2    0    0  0.00000000000E+00  0.00000000000E+00 -0.99137703691E+02  0.10113531428E+03  0.20001687454E+02 0.  0.
        -13    1    3    3    0    0  0.98255010146E+01  0.18600999384E+01 -0.49202108821E+02  0.50208157971E+02  0.10570000000E+00 0.  1.
         13    1    3    3    0    0 -0.98255010146E+01 -0.18600999384E+01 -0.49935594870E+02  0.50927156307E+02  0.10570000000E+00 0. -1.
<mgrwt>
<rscale>  0 0.20001687E+02</rscale>
<asrwt>0</asrwt>
<pdfrwt beam="2">  1        4 0.15405609E-01 0.20001687E+02</pdfrwt>
<pdfrwt beam="1">  1       -4 0.15366243E-03 0.20001687E+02</pdfrwt>
<totfact> 0.97673973E+05</totfact>
</mgrwt>
</event>
<event>
 4    1  0.4710515E-007  0.2001991E+02  0.7818608E-02  0.1744932E+00
          4   -1    0    0  501    0  0.00000000000E+00  0.00000000000E+00  0.14105085660E+01  0.20014830538E+01  0.14200000000E+01 0.  1.
         -4   -1    0    0    0  501 -0.00000000000E+00 -0.00000000000E+00 -0.58132433682E+02  0.58149774254E+02  0.14200000000E+01 0. -1.
        -13    1    1    2    0    0 -0.99864746956E+01 -0.67269620557E+00 -0.28591203463E+02  0.30292743108E+02  0.10570000000E+00 0.  1.
         13    1    1    2    0    0  0.99864746956E+01  0.67269620557E+00 -0.28130721652E+02  0.29858514199E+02  0.10570000000E+00 0. -1.
<mgrwt>
<rscale>  0 0.20019914E+02</rscale>
<asrwt>0</asrwt>
<pdfrwt beam="1">  1        4 0.26379483E-03 0.20019914E+02</pdfrwt>
<pdfrwt beam="2">  1       -4 0.89902433E-02 0.20019914E+02</pdfrwt>
<totfact> 0.11090821E+06</totfact>
</mgrwt>
</event>
<event>
 5    1  0.4710515E-007  0.2000358E+02  0.7818608E-02  0.1745257E+00
         -4   -1    0    0    0  501 -0.00000000000E+00  0.00000000000E+00  0.22980777571E+02  0.23024607223E+02  0.14200000000E+01 0. -1.
          4   -1    0    0  501    0  0.00000000000E+00 -0.00000000000E+00 -0.41878320261E+01  0.44220286158E+01  0.14200000000E+01 0.  1.
       1023    2    1    2    0    0  0.00000000000E+00  0.00000000000E+00  0.18792945545E+02  0.27446635839E+02  0.20003575096E+02 0.  0.
        -13    1    3    3    0    0  0.92446685908E+00  0.99580365135E+01  0.95149140020E+01  0.13804415639E+02  0.10570000000E+00 0.  1.
         13    1    3    3    0    0 -0.92446685908E+00 -0.99580365135E+01  0.92780315433E+01  0.13642220200E+02  0.10570000000E+00 0. -1.
<mgrwt>
<rscale>  0 0.20003575E+02</rscale>
<asrwt>0</asrwt>
<pdfrwt beam="2">  1        4 0.66566848E-03 0.20003575E+02</pdfrwt>
<pdfrwt beam="1">  1       -4 0.35568909E-02 0.20003575E+02</pdfrwt>
<totfact> 0.12586737E+06</totfact>
</mgrwt>
</event>
<event>
 4    1  0.4710515E-007  0.2001615E+02  0.7818608E-02  0.1745007E+00
         -4   -1    0    0    0  501 -0.00000000000E+00  0.00000000000E+00  0.11027028312E+02  0.11118082272E+02  0.14200000000E+01 0. -1.
          4   -1    0    0  501    0  0.00000000000E+00 -0.00000000000E+00 -0.88983532827E+01  0.90109428554E+01  0.14200000000E+01 0.  1.
        -13    1    1    2    0    0  0.96897400912E+01  0.25018312066E+01  0.10786968279E+01  0.10066031083E+02  0.10570000000E+00 0.  1.
         13    1    1    2    0    0 -0.96897400912E+01 -0.25018312066E+01  0.10499782017E+01  0.10062994044E+02  0.10570000000E+00 0. -1.
<mgrwt>
<rscale>  0 0.20016153E+02</rscale>
<asrwt>0</asrwt>
<pdfrwt beam="2">  1        4 0.13846423E-02 0.20016153E+02</pdfrwt>
<pdfrwt beam="1">  1       -4 0.17121308E-02 0.20016153E+02</pdfrwt>
<totfact> 0.12984966E+06</totfact>
</mgrwt>
</event>
<event>
 4    1  0.4710515E-007  0.2005334E+02  0.7818608E-02  0.1744269E+00
         -4   -1    0    0    0  501 -0.00000000000E+00  0.00000000000E+00  0.42786042065E+01  0.45080876162E+01  0.14200000000E+01 0. -1.
          4   -1    0    0  501    0  0.00000000000E+00 -0.00000000000E+00 -0.22630948915E+02  0.22675454765E+02  0.14200000000E+01 0.  1.
        -13    1    1    2    0    0 -0.10000449260E+02  0.24096228463E+00 -0.10091436955E+02  0.14209691078E+02  0.10570000000E+00 0. -1.
         13    1    1    2    0    0  0.10000449260E+02 -0.24096228463E+00 -0.82609077536E+01  0.12973851303E+02  0.10570000000E+00 0.  1.
<mgrwt>
<rscale>  0 0.20053339E+02</rscale>
<asrwt>0</asrwt>
<pdfrwt beam="2">  1        4 0.35027605E-02 0.20053339E+02</pdfrwt>
<pdfrwt beam="1">  1       -4 0.67932291E-03 0.20053339E+02</pdfrwt>
<totfact> 0.12537398E+06</totfact>
</mgrwt>
</event>
<event>
 4    1  0.4710515E-007  0.2042651E+02  0.7818608E-02  0.1736977E+00
          4   -1    0    0  501    0  0.00000000000E+00  0.00000000000E+00  0.29621423675E+01  0.32849181733E+01  0.14200000000E+01 0. -1.
         -4   -1    0    0    0  501 -0.00000000000E+00 -0.00000000000E+00 -0.33056294574E+02  0.33086780003E+02  0.14200000000E+01 0.  1.
        -13    1    1    2    0    0  0.66815840576E+01  0.77213267788E+01 -0.14704649208E+02  0.17902523106E+02  0.10570000000E+00 0. -1.
         13    1    1    2    0    0 -0.66815840576E+01 -0.77213267788E+01 -0.15389502999E+02  0.18469175071E+02  0.10570000000E+00 0.  1.
<mgrwt>
<rscale>  0 0.20426513E+02</rscale>
<asrwt>0</asrwt>
<pdfrwt beam="1">  1        4 0.48288817E-03 0.20426513E+02</pdfrwt>
<pdfrwt beam="2">  1       -4 0.51127575E-02 0.20426513E+02</pdfrwt>
<totfact> 0.11624356E+06</totfact>
</mgrwt>
</event>
<event>
 4    1  0.4710515E-007  0.2011149E+02  0.7818608E-02  0.1743120E+00
         -4   -1    0    0    0  501 -0.00000000000E+00  0.00000000000E+00  0.10589183283E+02  0.10683969422E+02  0.14200000000E+01 0. -1.
          4   -1    0    0  501    0  0.00000000000E+00 -0.00000000000E+00 -0.93580449457E+01  0.94651679967E+01  0.14200000000E+01 0.  1.
        -13    1    1    2    0    0  0.83109769488E+01  0.56349948551E+01  0.84168966191E-01  0.10042099470E+02  0.10570000000E+00 0.  1.
         13    1    1    2    0    0 -0.83109769488E+01 -0.56349948551E+01  0.11469693711E+01  0.10107037948E+02  0.10570000000E+00 0. -1.
<mgrwt>
<rscale>  0 0.20111490E+02</rscale>
<asrwt>0</asrwt>
<pdfrwt beam="2">  1        4 0.14552307E-02 0.20111490E+02</pdfrwt>
<pdfrwt beam="1">  1       -4 0.16446366E-02 0.20111490E+02</pdfrwt>
<totfact> 0.12858306E+06</totfact>
</mgrwt>
</event>
<event>
 4    1  0.4710515E-007  0.2012278E+02  0.7818608E-02  0.1742897E+00
          4   -1    0    0  501    0  0.00000000000E+00  0.00000000000E+00  0.28757495601E+02  0.28792532942E+02  0.14200000000E+01 0.  1.
         -4   -1    0    0    0  501 -0.00000000000E+00 -0.00000000000E+00 -0.33381776852E+01  0.36276480339E+01  0.14200000000E+01 0. -1.
        -13    1    1    2    0    0  0.81492639299E+01 -0.58971606646E+01  0.13004206496E+02  0.16441032984E+02  0.10570000000E+00 0.  1.
         13    1    1    2    0    0 -0.81492639299E+01  0.58971606646E+01  0.12415111420E+02  0.15979147992E+02  0.10570000000E+00 0. -1.
<mgrwt>
<rscale>  0 0.20122783E+02</rscale>
<asrwt>0</asrwt>
<pdfrwt beam="1">  1        4 0.44491921E-02 0.20122783E+02</pdfrwt>
<pdfrwt beam="2">  1       -4 0.53852794E-03 0.20122783E+02</pdfrwt>
<totfact> 0.12178686E+06</totfact>
</mgrwt>
</event>
<event>
 5    1  0.4710515E-007  0.2000314E+02  0.7818608E-02  0.1745266E+00
          4   -1    0    0  501    0  0.00000000000E+00  0.00000000000E+00  0.73230941761E+00  0.15977099496E+01  0.14200000000E+01 0. -1.
         -4   -1    0    0    0  501 -0.00000000000E+00 -0.00000000000E+00 -0.84989608852E+02  0.85001470651E+02  0.14200000000E+01 0.  1.
       1023    2    1    2    0    0  0.00000000000E+00  0.00000000000E+00 -0.84257299435E+02  0.86599180601E+02  0.20003139071E+02 0.  0.
        -13    1    3    3    0    0 -0.22131976542E+01 -0.97529932202E+01 -0.41985058717E+02  0.43159882397E+02  0.10570000000E+00 0.  1.
         13    1    3    3    0    0  0.22131976542E+01  0.97529932202E+01 -0.42272240718E+02  0.43439298204E+02  0.10570000000E+00 0. -1.
<mgrwt>
<rscale>  0 0.20003139E+02</rscale>
<asrwt>0</asrwt>
<pdfrwt beam="1">  1        4 0.18014477E-03 0.20003139E+02</pdfrwt>
<pdfrwt beam="2">  1       -4 0.13142801E-01 0.20003139E+02</pdfrwt>
<totfact> 0.10197334E+06</totfact>
</mgrwt>
</event>
<event>
 5    1  0.4710515E-007  0.2000919E+02  0.7818608E-02  0.1745145E+00
         -4   -1    0    0    0  501 -0.00000000000E+00  0.00000000000E+00  0.16951744046E+01  0.22113381157E+01  0.14200000000E+01 0. -1.
          4   -1    0    0  501    0  0.00000000000E+00 -0.00000000000E+00 -0.50716228933E+02  0.50736104277E+02  0.14200000000E+01 0.  1.
       1023    2    1    2    0    0  0.00000000000E+00  0.00000000000E+00 -0.49021054529E+02  0.52947442393E+02  0.20009194607E+02 0.  0.
        -13    1    3    3    0    0 -0.79480009975E+01  0.60706007468E+01 -0.25147154204E+02  0.27063138221E+02  0.10570000000E+00 0.  1.
         13    1    3    3    0    0  0.79480009975E+01 -0.60706007468E+01 -0.23873900324E+02  0.25884304172E+02  0.10570000000E+00 0. -1.
<mgrwt>
<rscale>  0 0.20009195E+02</rscale>
<asrwt>0</asrwt>
<pdfrwt beam="2">  1        4 0.78437295E-02 0.20009195E+02</pdfrwt>
<pdfrwt beam="1">  1       -4 0.30202987E-03 0.20009195E+02</pdfrwt>
<totfact> 0.11387458E+06</totfact>
</mgrwt>
</event>
<event>
 4    1  0.4710515E-007  0.2001730E+02  0.7818608E-02  0.1744984E+00
          4   -1    0    0  501    0  0.00000000000E+00  0.00000000000E+00  0.19699847589E+02  0.19750959344E+02  0.14200000000E+01 0. -1.
         -4   -1    0    0    0  501 -0.00000000000E+00 -0.00000000000E+00 -0.49268590160E+01  0.51274106295E+01  0.14200000000E+01 0.  1.
        -13    1    1    2    0    0 -0.89371538947E+01 -0.45031358588E+01  0.72567345869E+01  0.12362132569E+02  0.10570000000E+00 0. -1.
         13    1    1    2    0    0  0.89371538947E+01  0.45031358588E+01  0.75162539859E+01  0.12516237405E+02  0.10570000000E+00 0.  1.
<mgrwt>
<rscale>  0 0.20017295E+02</rscale>
<asrwt>0</asrwt>
<pdfrwt beam="1">  1        4 0.30501046E-02 0.20017295E+02</pdfrwt>
<pdfrwt beam="2">  1       -4 0.77733702E-03 0.20017295E+02</pdfrwt>
<totfact> 0.12709995E+06</totfact>
</mgrwt>
</event>
<event>
 5    1  0.4734678E-007  0.2000126E+02  0.7818608E-02  0.1745303E+00
          4   -1    0    0  501    0  0.00000000000E+00  0.00000000000E+00  0.51582026868E+01  0.53500892477E+01  0.14200000000E+01 0.  1.
         -4   -1    0    0    0  501 -0.00000000000E+00 -0.00000000000E+00 -0.18815851282E+02  0.18869357685E+02  0.14200000000E+01 0. -1.
       1023    2    1    2    0    0  0.00000000000E+00  0.00000000000E+00 -0.13657648595E+02  0.24219446933E+02  0.20001256075E+02 0.  0.
        -13    1    3    3    0    0  0.99832806213E+01  0.57908572296E+00 -0.68136797981E+01  0.12101183294E+02  0.10570000000E+00 0.  1.
         13    1    3    3    0    0 -0.99832806213E+01 -0.57908572296E+00 -0.68439687968E+01  0.12118263639E+02  0.10570000000E+00 0. -1.
<mgrwt>
<rscale>  0 0.20001256E+02</rscale>
<asrwt>0</asrwt>
<pdfrwt beam="1">  1        4 0.81244604E-03 0.20001256E+02</pdfrwt>
<pdfrwt beam="2">  1       -4 0.29136227E-02 0.20001256E+02</pdfrwt>
<totfact> 0.12767765E+06</totfact>
</mgrwt>
</event>
<event>
 5    1  0.4710515E-007  0.2000121E+02  0.7818608E-02  0.1745304E+00
         -4   -1    0    0    0  501 -0.00000000000E+00  0.00000000000E+00  0.67270909463E+01  0.68753292721E+01  0.14200000000E+01 0. -1.
          4   -1    0    0  501    0  0.00000000000E+00 -0.00000000000E+00 -0.14521793888E+02  0.14591055401E+02  0.14200000000E+01 0.  1.
       1023    2    1    2    0    0  0.00000000000E+00  0.00000000000E+00 -0.77947029416E+01  0.21466384673E+02  0.20001206889E+02 0.  0.
        -13    1    3    3    0    0 -0.93635152461E+01 -0.35106644275E+01 -0.39260351629E+01  0.10743607731E+02  0.10570000000E+00 0. -1.
         13    1    3    3    0    0  0.93635152461E+01  0.35106644275E+01 -0.38686677788E+01  0.10722776943E+02  0.10570000000E+00 0.  1.
<mgrwt>
<rscale>  0 0.20001207E+02</rscale>
<asrwt>0</asrwt>
<pdfrwt beam="2">  1        4 0.22508529E-02 0.20001207E+02</pdfrwt>
<pdfrwt beam="1">  1       -4 0.10516678E-02 0.20001207E+02</pdfrwt>
<totfact> 0.12925742E+06</totfact>
</mgrwt>
</event>
<event>
 4    1  0.4710515E-007  0.2013318E+02  0.7818608E-02  0.1742692E+00
          4   -1    0    0  501    0  0.00000000000E+00  0.00000000000E+00  0.28432655696E+02  0.28468092839E+02  0.14200000000E+01 0.  1.
         -4   -1    0    0    0  501 -0.00000000000E+00 -0.00000000000E+00 -0.33833809637E+01  0.36692869533E+01  0.14200000000E+01 0. -1.
        -13    1    1    2    0    0 -0.81744665438E+01 -0.58458618289E+01  0.11608950107E+02  0.15354963331E+02  0.10570000000E+00 0.  1.
         13    1    1    2    0    0  0.81744665438E+01  0.58458618289E+01  0.13440324625E+02  0.16782416462E+02  0.10570000000E+00 0. -1.
<mgrwt>
<rscale>  0 0.20133182E+02</rscale>
<asrwt>0</asrwt>
<pdfrwt beam="1">  1        4 0.43989735E-02 0.20133182E+02</pdfrwt>
<pdfrwt beam="2">  1       -4 0.54523884E-03 0.20133182E+02</pdfrwt>
<totfact> 0.12180082E+06</totfact>
</mgrwt>
</event>
<event>
 5    1  0.4710515E-007  0.2000179E+02  0.7818608E-02  0.1745293E+00
         -4   -1    0    0    0  501 -0.00000000000E+00  0.00000000000E+00  0.21925927313E+01  0.26122524544E+01  0.14200000000E+01 0.  1.
          4   -1    0    0  501    0  0.00000000000E+00 -0.00000000000E+00 -0.41199124687E+02  0.41223588817E+02  0.14200000000E+01 0. -1.
       1023    2    1    2    0    0  0.00000000000E+00  0.00000000000E+00 -0.39006531955E+02  0.43835841271E+02  0.20001786040E+02 0.  0.
        -13    1    3    3    0    0 -0.25133567043E+01  0.96793425001E+01 -0.19486931716E+02  0.21903385888E+02  0.10570000000E+00 0.  1.
         13    1    3    3    0    0  0.25133567043E+01 -0.96793425001E+01 -0.19519600240E+02  0.21932455384E+02  0.10570000000E+00 0. -1.
<mgrwt>
<rscale>  0 0.20001786E+02</rscale>
<asrwt>0</asrwt>
<pdfrwt beam="2">  1        4 0.63724897E-02 0.20001786E+02</pdfrwt>
<pdfrwt beam="1">  1       -4 0.37148536E-03 0.20001786E+02</pdfrwt>
<totfact> 0.11785468E+06</totfact>
</mgrwt>
</event>
<event>
 5    1  0.4710515E-007  0.2000325E+02  0.7818608E-02  0.1745263E+00
          4   -1    0    0  501    0  0.00000000000E+00  0.00000000000E+00  0.68749513405E+02  0.68764176672E+02  0.14200000000E+01 0. -1.
         -4   -1    0    0    0  501 -0.00000000000E+00 -0.00000000000E+00 -0.10901451750E+01  0.17902001292E+01  0.14200000000E+01 0.  1.
       1023    2    1    2    0    0  0.00000000000E+00  0.00000000000E+00  0.67659368230E+02  0.70554376801E+02  0.20003249150E+02 0.  0.
        -13    1    3    3    0    0  0.14926916069E+01 -0.98881140807E+01  0.34308042902E+02  0.35735919025E+02  0.10570000000E+00 0.  1.
         13    1    3    3    0    0 -0.14926916069E+01  0.98881140807E+01  0.33351325328E+02  0.34818457776E+02  0.10570000000E+00 0. -1.
<mgrwt>
<rscale>  0 0.20003249E+02</rscale>
<asrwt>0</asrwt>
<pdfrwt beam="1">  1        4 0.10631826E-01 0.20003249E+02</pdfrwt>
<pdfrwt beam="2">  1       -4 0.22269299E-03 0.20003249E+02</pdfrwt>
<totfact> 0.10727775E+06</totfact>
</mgrwt>
</event>
<event>
 5    1  0.4751619E-007  0.2000189E+02  0.7818608E-02  0.1745290E+00
         -4   -1    0    0    0  501 -0.00000000000E+00  0.00000000000E+00  0.43084876616E+02  0.43108270587E+02  0.14200000000E+01 0. -1.
          4   -1    0    0  501    0  0.00000000000E+00 -0.00000000000E+00 -0.20779295029E+01  0.25167818775E+01  0.14200000000E+01 0.  1.
       1023    2    1    2    0    0  0.00000000000E+00  0.00000000000E+00  0.41006947113E+02  0.45625052464E+02  0.20001892432E+02 0.  0.
        -13    1    3    3    0    0  0.99948658991E+01  0.32291531333E+00  0.20324821860E+02  0.22651957416E+02  0.10570000000E+00 0.  1.
         13    1    3    3    0    0 -0.99948658991E+01 -0.32291531333E+00  0.20682125253E+02  0.22973095048E+02  0.10570000000E+00 0. -1.
<mgrwt>
<rscale>  0 0.20001892E+02</rscale>
<asrwt>0</asrwt>
<pdfrwt beam="2">  1        4 0.35523888E-03 0.20001892E+02</pdfrwt>
<pdfrwt beam="1">  1       -4 0.66639998E-02 0.20001892E+02</pdfrwt>
<totfact> 0.11706020E+06</totfact>
</mgrwt>
</event>
<event>
 5    1  0.4710515E-007  0.2000393E+02  0.7818608E-02  0.1745250E+00
          4   -1    0    0  501    0  0.00000000000E+00  0.00000000000E+00  0.22296545846E+02  0.22341717854E+02  0.14200000000E+01 0.  1.
         -4   -1    0    0    0  501 -0.00000000000E+00 -0.00000000000E+00 -0.43233207236E+01  0.45505496458E+01  0.14200000000E+01 0. -1.
       1023    2    1    2    0    0  0.00000000000E+00  0.00000000000E+00  0.17973225123E+02  0.26892267500E+02  0.20003930363E+02 0.  0.
        -13    1    3    3    0    0  0.32880380518E+01 -0.94453588398E+01  0.89244640418E+01  0.13404597300E+02  0.10570000000E+00 0. -1.
         13    1    3    3    0    0 -0.32880380518E+01  0.94453588398E+01  0.90487610807E+01  0.13487670200E+02  0.10570000000E+00 0.  1.
<mgrwt>
<rscale>  0 0.20003930E+02</rscale>
<asrwt>0</asrwt>
<pdfrwt beam="1">  1        4 0.34511917E-02 0.20003930E+02</pdfrwt>
<pdfrwt beam="2">  1       -4 0.68608019E-03 0.20003930E+02</pdfrwt>
<totfact> 0.12616305E+06</totfact>
</mgrwt>
</event>
<event>
 4    1  0.4710515E-007  0.2002961E+02  0.7818608E-02  0.1744740E+00
         -4   -1    0    0    0  501 -0.00000000000E+00  0.00000000000E+00  0.12918092533E+02  0.12995903765E+02  0.14200000000E+01 0.  1.
          4   -1    0    0  501    0  0.00000000000E+00 -0.00000000000E+00 -0.75969151105E+01  0.77284875102E+01  0.14200000000E+01 0.  1.
        -13    1    1    2    0    0  0.62294517199E+01  0.78283434834E+01  0.31188550862E+01  0.10479859730E+02  0.10570000000E+00 0. -1.
         13    1    1    2    0    0 -0.62294517199E+01 -0.78283434834E+01  0.22023223359E+01  0.10244531546E+02  0.10570000000E+00 0.  1.
<mgrwt>
<rscale>  0 0.20029615E+02</rscale>
<asrwt>0</asrwt>
<pdfrwt beam="2">  1        4 0.11848626E-02 0.20029615E+02</pdfrwt>
<pdfrwt beam="1">  1       -4 0.20035053E-02 0.20029615E+02</pdfrwt>
<totfact> 0.12931945E+06</totfact>
</mgrwt>
</event>
<event>
 5    1  0.4710515E-007  0.2000562E+02  0.7818608E-02  0.1745216E+00
         -4   -1    0    0    0  501 -0.00000000000E+00  0.00000000000E+00  0.98583228997E+02  0.98593455358E+02  0.14200000000E+01 0.  1.
          4   -1    0    0  501    0  0.00000000000E+00 -0.00000000000E+00 -0.50286306606E+00  0.15064100581E+01  0.14200000000E+01 0. -1.
       1023    2    1    2    0    0  0.00000000000E+00  0.00000000000E+00  0.98080365931E+02  0.10009986542E+03  0.20005621091E+02 0.  0.
        -13    1    3    3    0    0  0.68769326864E+01  0.72606855229E+01  0.48100242393E+02  0.49128955293E+02  0.10570000000E+00 0. -1.
         13    1    3    3    0    0 -0.68769326864E+01 -0.72606855229E+01  0.49980123538E+02  0.50970910124E+02  0.10570000000E+00 0.  1.
<mgrwt>
<rscale>  0 0.20005621E+02</rscale>
<asrwt>0</asrwt>
<pdfrwt beam="2">  1        4 0.15534616E-03 0.20005621E+02</pdfrwt>
<pdfrwt beam="1">  1       -4 0.15244629E-01 0.20005621E+02</pdfrwt>
<totfact> 0.97929148E+05</totfact>
</mgrwt>
</event>
<event>
 5    1  0.4710515E-007  0.2001050E+02  0.7818608E-02  0.1745119E+00
         -4   -1    0    0    0  501 -0.00000000000E+00  0.00000000000E+00  0.10225556797E+03  0.10226542711E+03  0.14200000000E+01 0. -1.
          4   -1    0    0  501    0  0.00000000000E+00 -0.00000000000E+00 -0.44883021588E+00  0.14892442925E+01  0.14200000000E+01 0.  1.
       1023    2    1    2    0    0  0.00000000000E+00  0.00000000000E+00  0.10180673776E+03  0.10375467140E+03  0.20010496860E+02 0.  0.
        -13    1    3    3    0    0 -0.92268417639E+01 -0.38591816181E+01  0.52234735820E+02  0.53183707001E+02  0.10570000000E+00 0.  1.
         13    1    3    3    0    0  0.92268417639E+01  0.38591816181E+01  0.49572001938E+02  0.50570964399E+02  0.10570000000E+00 0. -1.
<mgrwt>
<rscale>  0 0.20010497E+02</rscale>
<asrwt>0</asrwt>
<pdfrwt beam="2">  1        4 0.14984112E-03 0.20010497E+02</pdfrwt>
<pdfrwt beam="1">  1       -4 0.15812409E-01 0.20010497E+02</pdfrwt>
<totfact> 0.96854877E+05</totfact>
</mgrwt>
</event>
<event>
 5    1  0.4710515E-007  0.2000883E+02  0.7818608E-02  0.1745153E+00
          4   -1    0    0  501    0  0.00000000000E+00  0.00000000000E+00  0.10247284648E+03  0.10248268471E+03  0.14200000000E+01 0.  1.
         -4   -1    0    0    0  501 -0.00000000000E+00 -0.00000000000E+00 -0.44541933008E+00  0.14882198694E+01  0.14200000000E+01 0. -1.
       1023    2    1    2    0    0  0.00000000000E+00  0.00000000000E+00  0.10202742715E+03  0.10397090458E+03  0.20008825767E+02 0.  0.
        -13    1    3    3    0    0 -0.57943777503E+01 -0.81540875717E+01  0.50417909021E+02  0.51400784820E+02  0.10570000000E+00 0.  1.
         13    1    3    3    0    0  0.57943777503E+01  0.81540875717E+01  0.51609518132E+02  0.52570119764E+02  0.10570000000E+00 0. -1.
<mgrwt>
<rscale>  0 0.20008826E+02</rscale>
<asrwt>0</asrwt>
<pdfrwt beam="1">  1        4 0.15846024E-01 0.20008826E+02</pdfrwt>
<pdfrwt beam="2">  1       -4 0.14949828E-03 0.20008826E+02</pdfrwt>
<totfact> 0.96810998E+05</totfact>
</mgrwt>
</event>
<event>
 5    1  0.4710515E-007  0.2001037E+02  0.7818608E-02  0.1745122E+00
         -4   -1    0    0    0  501 -0.00000000000E+00  0.00000000000E+00  0.37645433809E+02  0.37672205758E+02  0.14200000000E+01 0. -1.
          4   -1    0    0  501    0  0.00000000000E+00 -0.00000000000E+00 -0.24397597996E+01  0.28229112419E+01  0.14200000000E+01 0.  1.
       1023    2    1    2    0    0  0.00000000000E+00  0.00000000000E+00  0.35205674009E+02  0.40495116999E+02  0.20010372769E+02 0.  0.
        -13    1    3    3    0    0 -0.99780969696E+01  0.70992133181E+00  0.17930244100E+02  0.20532199916E+02  0.10570000000E+00 0.  1.
         13    1    3    3    0    0  0.99780969696E+01 -0.70992133181E+00  0.17275429909E+02  0.19962917083E+02  0.10570000000E+00 0. -1.
<mgrwt>
<rscale>  0 0.20010373E+02</rscale>
<asrwt>0</asrwt>
<pdfrwt beam="2">  1        4 0.40688021E-03 0.20010373E+02</pdfrwt>
<pdfrwt beam="1">  1       -4 0.58231381E-02 0.20010373E+02</pdfrwt>
<totfact> 0.11927104E+06</totfact>
</mgrwt>
</event>
<event>
 5    1  0.4875381E-007  0.2000228E+02  0.7818608E-02  0.1745283E+00
          4   -1    0    0  501    0  0.00000000000E+00  0.00000000000E+00  0.15754120553E+02  0.15817987053E+02  0.14200000000E+01 0. -1.
         -4   -1    0    0    0  501 -0.00000000000E+00 -0.00000000000E+00 -0.61917497243E+01  0.63524927901E+01  0.14200000000E+01 0.  1.
       1023    2    1    2    0    0  0.00000000000E+00  0.00000000000E+00  0.95623708289E+01  0.22170479843E+02  0.20002280885E+02 0.  0.
        -13    1    3    3    0    0 -0.77898879102E+01 -0.62709964929E+01  0.47120815466E+01  0.11055434666E+02  0.10570000000E+00 0. -1.
         13    1    3    3    0    0  0.77898879102E+01  0.62709964929E+01  0.48502892823E+01  0.11115045177E+02  0.10570000000E+00 0.  1.
<mgrwt>
<rscale>  0 0.20002281E+02</rscale>
<asrwt>0</asrwt>
<pdfrwt beam="1">  1        4 0.24409885E-02 0.20002281E+02</pdfrwt>
<pdfrwt beam="2">  1       -4 0.96985456E-03 0.20002281E+02</pdfrwt>
<totfact> 0.12883344E+06</totfact>
</mgrwt>
</event>
<event>
 5    1  0.4710515E-007  0.2000236E+02  0.7818608E-02  0.1745281E+00
         -4   -1    0    0    0  501 -0.00000000000E+00  0.00000000000E+00  0.35849819588E+01  0.38559688335E+01  0.14200000000E+01 0. -1.
          4   -1    0    0  501    0  0.00000000000E+00 -0.00000000000E+00 -0.26594006718E+02  0.26631890532E+02  0.14200000000E+01 0.  1.
       1023    2    1    2    0    0  0.00000000000E+00  0.00000000000E+00 -0.23009024759E+02  0.30487859365E+02  0.20002358569E+02 0.  0.
        -13    1    3    3    0    0 -0.19921058086E+01 -0.98001766765E+01 -0.11537420865E+02  0.15268765541E+02  0.10570000000E+00 0. -1.
         13    1    3    3    0    0  0.19921058086E+01  0.98001766765E+01 -0.11471603894E+02  0.15219093824E+02  0.10570000000E+00 0.  1.
<mgrwt>
<rscale>  0 0.20002359E+02</rscale>
<asrwt>0</asrwt>
<pdfrwt beam="2">  1        4 0.41151448E-02 0.20002359E+02</pdfrwt>
<pdfrwt beam="1">  1       -4 0.57529499E-03 0.20002359E+02</pdfrwt>
<totfact> 0.12427360E+06</totfact>
</mgrwt>
</event>
<event>
 5    1  0.5739702E-007  0.2000122E+02  0.7818608E-02  0.1745304E+00
         -4   -1    0    0    0  501 -0.00000000000E+00  0.00000000000E+00  0.11737648213E+02  0.11823230758E+02  0.14200000000E+01 0.  1.
          4   -1    0    0  501    0  0.00000000000E+00 -0.00000000000E+00 -0.83439027050E+01  0.84638710028E+01  0.14200000000E+01 0. -1.
       1023    2    1    2    0    0  0.00000000000E+00  0.00000000000E+00  0.33937455076E+01  0.20287101761E+02  0.20001224695E+02 0.  0.
        -13    1    3    3    0    0  0.45126291824E+01 -0.89239254833E+01  0.16680649801E+01  0.10138731747E+02  0.10570000000E+00 0.  1.
         13    1    3    3    0    0 -0.45126291824E+01  0.89239254833E+01  0.17256805275E+01  0.10148370014E+02  0.10570000000E+00 0. -1.
<mgrwt>
<rscale>  0 0.20001225E+02</rscale>
<asrwt>0</asrwt>
<pdfrwt beam="2">  1        4 0.12994889E-02 0.20001225E+02</pdfrwt>
<pdfrwt beam="1">  1       -4 0.18216036E-02 0.20001225E+02</pdfrwt>
<totfact> 0.12995331E+06</totfact>
</mgrwt>
</event>
<event>
 5    1  0.4710515E-007  0.2000286E+02  0.7818608E-02  0.1745271E+00
          4   -1    0    0  501    0  0.00000000000E+00  0.00000000000E+00  0.40960390668E+02  0.40984997300E+02  0.14200000000E+01 0.  1.
         -4   -1    0    0    0  501 -0.00000000000E+00 -0.00000000000E+00 -0.22080861235E+01  0.26252703344E+01  0.14200000000E+01 0. -1.
       1023    2    1    2    0    0  0.00000000000E+00  0.00000000000E+00  0.38752304544E+02  0.43610267634E+02  0.20002858186E+02 0.  0.
        -13    1    3    3    0    0  0.95995808477E+01 -0.28044091997E+01  0.19316524481E+02  0.21752148260E+02  0.10570000000E+00 0. -1.
         13    1    3    3    0    0 -0.95995808477E+01  0.28044091997E+01  0.19435780064E+02  0.21858119374E+02  0.10570000000E+00 0.  1.
<mgrwt>
<rscale>  0 0.20002858E+02</rscale>
<asrwt>0</asrwt>
<pdfrwt beam="1">  1        4 0.63355821E-02 0.20002858E+02</pdfrwt>
<pdfrwt beam="2">  1       -4 0.37368949E-03 0.20002858E+02</pdfrwt>
<totfact> 0.11794295E+06</totfact>
</mgrwt>
</event>
<event>
 5    1  0.4710515E-007  0.2000328E+02  0.7818608E-02  0.1745263E+00
          4   -1    0    0  501    0  0.00000000000E+00  0.00000000000E+00  0.96534600824E+00  0.17170593803E+01  0.14200000000E+01 0. -1.
         -4   -1    0    0    0  501 -0.00000000000E+00 -0.00000000000E+00 -0.73823985605E+02  0.73837641150E+02  0.14200000000E+01 0.  1.
       1023    2    1    2    0    0  0.00000000000E+00  0.00000000000E+00 -0.72858639597E+02  0.75554700530E+02  0.20003284939E+02 0.  0.
        -13    1    3    3    0    0 -0.21354595570E+01 -0.97701228918E+01 -0.36132131264E+02  0.37490766477E+02  0.10570000000E+00 0.  1.
         13    1    3    3    0    0  0.21354595570E+01  0.97701228918E+01 -0.36726508332E+02  0.38063934053E+02  0.10570000000E+00 0. -1.
<mgrwt>
<rscale>  0 0.20003285E+02</rscale>
<asrwt>0</asrwt>
<pdfrwt beam="1">  1        4 0.20738936E-03 0.20003285E+02</pdfrwt>
<pdfrwt beam="2">  1       -4 0.11416408E-01 0.20003285E+02</pdfrwt>
<totfact> 0.10555446E+06</totfact>
</mgrwt>
</event>
<event>
 5    1  0.4878484E-007  0.2000140E+02  0.7818608E-02  0.1745300E+00
          4   -1    0    0  501    0  0.00000000000E+00  0.00000000000E+00  0.41072693529E+02  0.41097232920E+02  0.14200000000E+01 0.  1.
         -4   -1    0    0    0  501 -0.00000000000E+00 -0.00000000000E+00 -0.22005251760E+01  0.26189140976E+01  0.14200000000E+01 0. -1.
       1023    2    1    2    0    0  0.00000000000E+00  0.00000000000E+00  0.38872168353E+02  0.43716147018E+02  0.20001400892E+02 0.  0.
        -13    1    3    3    0    0 -0.99157767407E+01 -0.12962188083E+01  0.19447088826E+02  0.21867858786E+02  0.10570000000E+00 0. -1.
         13    1    3    3    0    0  0.99157767407E+01  0.12962188083E+01  0.19425079527E+02  0.21848288232E+02  0.10570000000E+00 0.  1.
<mgrwt>
<rscale>  0 0.20001401E+02</rscale>
<asrwt>0</asrwt>
<pdfrwt beam="1">  1        4 0.63529470E-02 0.20001401E+02</pdfrwt>
<pdfrwt beam="2">  1       -4 0.37261376E-03 0.20001401E+02</pdfrwt>
<totfact> 0.11791286E+06</totfact>
</mgrwt>
</event>
<event>
 4    1  0.4710515E-007  0.2003418E+02  0.7818608E-02  0.1744649E+00
          4   -1    0    0  501    0  0.00000000000E+00  0.00000000000E+00  0.26661697586E+02  0.26699485354E+02  0.14200000000E+01 0. -1.
         -4   -1    0    0    0  501 -0.00000000000E+00 -0.00000000000E+00 -0.35875795704E+01  0.38583840107E+01  0.14200000000E+01 0.  1.
        -13    1    1    2    0    0  0.56104735172E+01  0.82909747378E+01  0.12050396237E+02  0.15666553454E+02  0.10570000000E+00 0.  1.
         13    1    1    2    0    0 -0.56104735172E+01 -0.82909747378E+01  0.11023721779E+02  0.14891315910E+02  0.10570000000E+00 0. -1.
<mgrwt>
<rscale>  0 0.20034182E+02</rscale>
<asrwt>0</asrwt>
<pdfrwt beam="1">  1        4 0.41255374E-02 0.20034182E+02</pdfrwt>
<pdfrwt beam="2">  1       -4 0.57567319E-03 0.20034182E+02</pdfrwt>
<totfact> 0.12383661E+06</totfact>
</mgrwt>
</event>
<event>
 5    1  0.4710515E-007  0.2000321E+02  0.7818608E-02  0.1745264E+00
          4   -1    0    0  501    0  0.00000000000E+00  0.00000000000E+00  0.30383869150E+02  0.30417033132E+02  0.14200000000E+01 0.  1.
         -4   -1    0    0    0  501 -0.00000000000E+00 -0.00000000000E+00 -0.31024685805E+01  0.34119952071E+01  0.14200000000E+01 0. -1.
       1023    2    1    2    0    0  0.00000000000E+00  0.00000000000E+00  0.27281400570E+02  0.33829028339E+02  0.20003208275E+02 0.  0.
        -13    1    3    3    0    0  0.89488191119E+01 -0.44651685374E+01  0.13712834044E+02  0.16972686398E+02  0.10570000000E+00 0.  1.
         13    1    3    3    0    0 -0.89488191119E+01  0.44651685374E+01  0.13568566526E+02  0.16856341941E+02  0.10570000000E+00 0. -1.
<mgrwt>
<rscale>  0 0.20003208E+02</rscale>
<asrwt>0</asrwt>
<pdfrwt beam="1">  1        4 0.47008021E-02 0.20003208E+02</pdfrwt>
<pdfrwt beam="2">  1       -4 0.50366368E-03 0.20003208E+02</pdfrwt>
<totfact> 0.12256090E+06</totfact>
</mgrwt>
</event>
<event>
 4    1  0.4710515E-007  0.2644083E+02  0.7818608E-02  0.1641129E+00
         -4   -1    0    0    0  501 -0.00000000000E+00  0.00000000000E+00  0.93856002915E+01  0.94924123821E+01  0.14200000000E+01 0. -1.
          4   -1    0    0  501    0  0.00000000000E+00 -0.00000000000E+00 -0.18382357313E+02  0.18437121803E+02  0.14200000000E+01 0.  1.
        -13    1    1    2    0    0  0.49222011426E+01  0.12269361301E+02 -0.45547441814E+01  0.13982923795E+02  0.10570000000E+00 0.  1.
         13    1    1    2    0    0 -0.49222011426E+01 -0.12269361301E+02 -0.44420128402E+01  0.13946610390E+02  0.10570000000E+00 0. -1.
<mgrwt>
<rscale>  0 0.26440825E+02</rscale>
<asrwt>0</asrwt>
<pdfrwt beam="2">  1        4 0.28404839E-02 0.26440825E+02</pdfrwt>
<pdfrwt beam="1">  1       -4 0.14563675E-02 0.26440825E+02</pdfrwt>
<totfact> 0.69511748E+05</totfact>
</mgrwt>
</event>
<event>
 5    1  0.4710515E-007  0.2000188E+02  0.7818608E-02  0.1745291E+00
         -4   -1    0    0    0  501 -0.00000000000E+00  0.00000000000E+00  0.98376441656E+02  0.98386689510E+02  0.14200000000E+01 0. -1.
          4   -1    0    0  501    0  0.00000000000E+00 -0.00000000000E+00 -0.50545739767E+00  0.15072780702E+01  0.14200000000E+01 0.  1.
       1023    2    1    2    0    0  0.00000000000E+00  0.00000000000E+00  0.97870984258E+02  0.99893967581E+02  0.20001879896E+02 0.  0.
        -13    1    3    3    0    0 -0.83566770222E+01 -0.54923984755E+01  0.49357363699E+02  0.50360311910E+02  0.10570000000E+00 0.  1.
         13    1    3    3    0    0  0.83566770222E+01  0.54923984755E+01  0.48513620559E+02  0.49533655671E+02  0.10570000000E+00 0. -1.
<mgrwt>
<rscale>  0 0.20001880E+02</rscale>
<asrwt>0</asrwt>
<pdfrwt beam="2">  1        4 0.15561412E-03 0.20001880E+02</pdfrwt>
<pdfrwt beam="1">  1       -4 0.15212687E-01 0.20001880E+02</pdfrwt>
<totfact> 0.98024310E+05</totfact>
</mgrwt>
</event>
<event>
 5    1  0.4822188E-007  0.2000331E+02  0.7818608E-02  0.1745262E+00
          4   -1    0    0  501    0  0.00000000000E+00  0.00000000000E+00  0.11166069745E+02  0.11255999003E+02  0.14200000000E+01 0.  1.
         -4   -1    0    0    0  501 -0.00000000000E+00 -0.00000000000E+00 -0.87755071416E+01  0.88896527262E+01  0.14200000000E+01 0. -1.
       1023    2    1    2    0    0  0.00000000000E+00  0.00000000000E+00  0.23905626039E+01  0.20145651729E+02  0.20003312077E+02 0.  0.
        -13    1    3    3    0    0  0.98331875887E+01 -0.18213338679E+01  0.13106204934E+01  0.10086512469E+02  0.10570000000E+00 0.  1.
         13    1    3    3    0    0 -0.98331875887E+01  0.18213338679E+01  0.10799421105E+01  0.10059139261E+02  0.10570000000E+00 0. -1.
<mgrwt>
<rscale>  0 0.20003312E+02</rscale>
<asrwt>0</asrwt>
<pdfrwt beam="1">  1        4 0.17335550E-02 0.20003312E+02</pdfrwt>
<pdfrwt beam="2">  1       -4 0.13657761E-02 0.20003312E+02</pdfrwt>
<totfact> 0.13000992E+06</totfact>
</mgrwt>
</event>
<event>
 5    1  0.4710515E-007  0.2000143E+02  0.7818608E-02  0.1745300E+00
          4   -1    0    0  501    0  0.00000000000E+00  0.00000000000E+00  0.41580074237E+02  0.41604314362E+02  0.14200000000E+01 0.  1.
         -4   -1    0    0    0  501 -0.00000000000E+00 -0.00000000000E+00 -0.21685635382E+01  0.25921164749E+01  0.14200000000E+01 0. -1.
       1023    2    1    2    0    0  0.00000000000E+00  0.00000000000E+00  0.39411510698E+02  0.44196430837E+02  0.20001433028E+02 0.  0.
        -13    1    3    3    0    0  0.58849215210E+01 -0.80852244017E+01  0.19701698438E+02  0.22094597729E+02  0.10570000000E+00 0.  1.
         13    1    3    3    0    0 -0.58849215210E+01  0.80852244017E+01  0.19709812260E+02  0.22101833108E+02  0.10570000000E+00 0. -1.
<mgrwt>
<rscale>  0 0.20001433E+02</rscale>
<asrwt>0</asrwt>
<pdfrwt beam="1">  1        4 0.64313802E-02 0.20001433E+02</pdfrwt>
<pdfrwt beam="2">  1       -4 0.36807078E-03 0.20001433E+02</pdfrwt>
<totfact> 0.11769783E+06</totfact>
</mgrwt>
</event>
<event>
 4    1  0.4710515E-007  0.2008592E+02  0.7818608E-02  0.1743625E+00
          4   -1    0    0  501    0  0.00000000000E+00  0.00000000000E+00  0.54157982421E+01  0.55988633310E+01  0.14200000000E+01 0. -1.
         -4   -1    0    0    0  501 -0.00000000000E+00 -0.00000000000E+00 -0.18102632018E+02  0.18158240168E+02  0.14200000000E+01 0.  1.
        -13    1    1    2    0    0  0.78668125061E+01  0.62221150990E+01 -0.69329392800E+01  0.12193370119E+02  0.10570000000E+00 0.  1.
         13    1    1    2    0    0 -0.78668125061E+01 -0.62221150990E+01 -0.57538944962E+01  0.11563733380E+02  0.10570000000E+00 0. -1.
<mgrwt>
<rscale>  0 0.20085921E+02</rscale>
<asrwt>0</asrwt>
<pdfrwt beam="1">  1        4 0.85155922E-03 0.20085921E+02</pdfrwt>
<pdfrwt beam="2">  1       -4 0.28033798E-02 0.20085921E+02</pdfrwt>
<totfact> 0.12684138E+06</totfact>
</mgrwt>
</event>
<event>
 5    1  0.4710515E-007  0.2000364E+02  0.7818608E-02  0.1745256E+00
         -4   -1    0    0    0  501 -0.00000000000E+00  0.00000000000E+00  0.47102331006E+00  0.14960825374E+01  0.14200000000E+01 0.  1.
          4   -1    0    0  501    0  0.00000000000E+00 -0.00000000000E+00 -0.10067652065E+03  0.10068653440E+03  0.14200000000E+01 0. -1.
       1023    2    1    2    0    0  0.00000000000E+00  0.00000000000E+00 -0.10020549734E+03  0.10218261694E+03  0.20003637363E+02 0.  0.
        -13    1    3    3    0    0  0.98158554705E+01 -0.19168147534E+01 -0.50089204560E+02  0.51078026424E+02  0.10570000000E+00 0.  1.
         13    1    3    3    0    0 -0.98158554705E+01  0.19168147534E+01 -0.50116292780E+02  0.51104590517E+02  0.10570000000E+00 0. -1.
<mgrwt>
<rscale>  0 0.20003637E+02</rscale>
<asrwt>0</asrwt>
<pdfrwt beam="2">  1        4 0.15568308E-01 0.20003637E+02</pdfrwt>
<pdfrwt beam="1">  1       -4 0.15208620E-03 0.20003637E+02</pdfrwt>
<totfact> 0.97360073E+05</totfact>
</mgrwt>
</event>
<event>
 4    1  0.4710515E-007  0.2001404E+02  0.7818608E-02  0.1745049E+00
          4   -1    0    0  501    0  0.00000000000E+00  0.00000000000E+00  0.43483757386E+01  0.45743602355E+01  0.14200000000E+01 0.  1.
         -4   -1    0    0    0  501 -0.00000000000E+00 -0.00000000000E+00 -0.22196891519E+02  0.22242265916E+02  0.14200000000E+01 0. -1.
        -13    1    1    2    0    0 -0.98583962079E+01  0.17118454483E+01 -0.90642590202E+01  0.13501494536E+02  0.10570000000E+00 0. -1.
         13    1    1    2    0    0  0.98583962079E+01 -0.17118454483E+01 -0.87842567599E+01  0.13315131616E+02  0.10570000000E+00 0.  1.
<mgrwt>
<rscale>  0 0.20014043E+02</rscale>
<asrwt>0</asrwt>
<pdfrwt beam="1">  1        4 0.68985466E-03 0.20014043E+02</pdfrwt>
<pdfrwt beam="2">  1       -4 0.34357801E-02 0.20014043E+02</pdfrwt>
<totfact> 0.12607445E+06</totfact>
</mgrwt>
</event>
<event>
 5    1  0.4710515E-007  0.2000365E+02  0.7818608E-02  0.1745255E+00
          4   -1    0    0  501    0  0.00000000000E+00  0.00000000000E+00  0.24586392225E+01  0.28392440590E+01  0.14200000000E+01 0. -1.
         -4   -1    0    0    0  501 -0.00000000000E+00 -0.00000000000E+00 -0.37369651849E+02  0.37396621229E+02  0.14200000000E+01 0.  1.
       1023    2    1    2    0    0  0.00000000000E+00  0.00000000000E+00 -0.34911012626E+02  0.40235865288E+02  0.20003650988E+02 0.  0.
        -13    1    3    3    0    0  0.89466647168E+01  0.44685933841E+01 -0.17215780685E+02  0.19909932533E+02  0.10570000000E+00 0.  1.
         13    1    3    3    0    0 -0.89466647168E+01 -0.44685933841E+01 -0.17695231941E+02  0.20325932754E+02  0.10570000000E+00 0. -1.
<mgrwt>
<rscale>  0 0.20003651E+02</rscale>
<asrwt>0</asrwt>
<pdfrwt beam="1">  1        4 0.40960408E-03 0.20003651E+02</pdfrwt>
<pdfrwt beam="2">  1       -4 0.57805287E-02 0.20003651E+02</pdfrwt>
<totfact> 0.11947231E+06</totfact>
</mgrwt>
</event>
<event>
 5    1  0.4710515E-007  0.2000775E+02  0.7818608E-02  0.1745174E+00
         -4   -1    0    0    0  501 -0.00000000000E+00  0.00000000000E+00  0.62133855214E+02  0.62150079355E+02  0.14200000000E+01 0.  1.
          4   -1    0    0  501    0  0.00000000000E+00 -0.00000000000E+00 -0.12779924837E+01  0.19104095865E+01  0.14200000000E+01 0. -1.
       1023    2    1    2    0    0  0.00000000000E+00  0.00000000000E+00  0.60855862731E+02  0.64060488941E+02  0.20007753864E+02 0.  0.
        -13    1    3    3    0    0 -0.85020838840E+01  0.52707441701E+01  0.30381898317E+02  0.31986514226E+02  0.10570000000E+00 0. -1.
         13    1    3    3    0    0  0.85020838840E+01 -0.52707441701E+01  0.30473964414E+02  0.32073974716E+02  0.10570000000E+00 0.  1.
<mgrwt>
<rscale>  0 0.20007754E+02</rscale>
<asrwt>0</asrwt>
<pdfrwt beam="2">  1        4 0.24650972E-03 0.20007754E+02</pdfrwt>
<pdfrwt beam="1">  1       -4 0.96089497E-02 0.20007754E+02</pdfrwt>
<totfact> 0.10957123E+06</totfact>
</mgrwt>
</event>
<event>
 5    1  0.4710515E-007  0.2000139E+02  0.7818608E-02  0.1745301E+00
          4   -1    0    0  501    0  0.00000000000E+00  0.00000000000E+00  0.21971086987E+01  0.26160440810E+01  0.14200000000E+01 0. -1.
         -4   -1    0    0    0  501 -0.00000000000E+00 -0.00000000000E+00 -0.41126307254E+02  0.41150814674E+02  0.14200000000E+01 0.  1.
       1023    2    1    2    0    0  0.00000000000E+00  0.00000000000E+00 -0.38929198556E+02  0.43766858755E+02  0.20001385580E+02 0.  0.
        -13    1    3    3    0    0 -0.67387685212E+01  0.73885947531E+01 -0.19505547495E+02  0.21919851486E+02  0.10570000000E+00 0.  1.
         13    1    3    3    0    0  0.67387685212E+01 -0.73885947531E+01 -0.19423651060E+02  0.21847007269E+02  0.10570000000E+00 0. -1.
<mgrwt>
<rscale>  0 0.20001386E+02</rscale>
<asrwt>0</asrwt>
<pdfrwt beam="1">  1        4 0.37212774E-03 0.20001386E+02</pdfrwt>
<pdfrwt beam="2">  1       -4 0.63612347E-02 0.20001386E+02</pdfrwt>
<totfact> 0.11789033E+06</totfact>
</mgrwt>
</event>
<event>
 5    1  0.4773109E-007  0.2000145E+02  0.7818608E-02  0.1745299E+00
         -4   -1    0    0    0  501 -0.00000000000E+00  0.00000000000E+00  0.34423869617E+01  0.37237652979E+01  0.14200000000E+01 0.  1.
          4   -1    0    0  501    0  0.00000000000E+00 -0.00000000000E+00 -0.27612698032E+02  0.27649186111E+02  0.14200000000E+01 0. -1.
       1023    2    1    2    0    0  0.00000000000E+00  0.00000000000E+00 -0.24170311070E+02  0.31372951409E+02  0.20001453519E+02 0.  0.
        -13    1    3    3    0    0 -0.71078159601E+01  0.70342643106E+01 -0.12144700246E+02  0.15732350068E+02  0.10570000000E+00 0.  1.
         13    1    3    3    0    0  0.71078159601E+01 -0.70342643106E+01 -0.12025610824E+02  0.15640601341E+02  0.10570000000E+00 0. -1.
<mgrwt>
<rscale>  0 0.20001454E+02</rscale>
<asrwt>0</asrwt>
<pdfrwt beam="2">  1        4 0.42725585E-02 0.20001454E+02</pdfrwt>
<pdfrwt beam="1">  1       -4 0.55404928E-03 0.20001454E+02</pdfrwt>
<totfact> 0.12382785E+06</totfact>
</mgrwt>
</event>
<event>
 5    1  0.4710515E-007  0.2000756E+02  0.7818608E-02  0.1745178E+00
         -4   -1    0    0    0  501 -0.00000000000E+00  0.00000000000E+00  0.17271303615E+01  0.22359291772E+01  0.14200000000E+01 0.  1.
          4   -1    0    0  501    0  0.00000000000E+00 -0.00000000000E+00 -0.49984057676E+02  0.50004224039E+02  0.14200000000E+01 0. -1.
       1023    2    1    2    0    0  0.00000000000E+00  0.00000000000E+00 -0.48256927315E+02  0.52240153217E+02  0.20007562926E+02 0.  0.
        -13    1    3    3    0    0 -0.70244632169E+01 -0.71211744030E+01 -0.23863954216E+02  0.25875735578E+02  0.10570000000E+00 0.  1.
         13    1    3    3    0    0  0.70244632169E+01  0.71211744030E+01 -0.24392973098E+02  0.26364417639E+02  0.10570000000E+00 0. -1.
<mgrwt>
<rscale>  0 0.20007563E+02</rscale>
<asrwt>0</asrwt>
<pdfrwt beam="2">  1        4 0.77305437E-02 0.20007563E+02</pdfrwt>
<pdfrwt beam="1">  1       -4 0.30640203E-03 0.20007563E+02</pdfrwt>
<totfact> 0.11418316E+06</totfact>
</mgrwt>
</event>
<event>
 5    1  0.4710515E-007  0.2000527E+02  0.7818608E-02  0.1745223E+00
          4   -1    0    0  501    0  0.00000000000E+00  0.00000000000E+00  0.32140302900E+02  0.32171656322E+02  0.14200000000E+01 0.  1.
         -4   -1    0    0    0  501 -0.00000000000E+00 -0.00000000000E+00 -0.29163813245E+01  0.32437139254E+01  0.14200000000E+01 0. -1.
       1023    2    1    2    0    0  0.00000000000E+00  0.00000000000E+00  0.29223921575E+02  0.35415370247E+02  0.20005270743E+02 0.  0.
        -13    1    3    3    0    0  0.41444395505E+01 -0.91013344921E+01  0.14300905269E+02  0.17451009505E+02  0.10570000000E+00 0. -1.
         13    1    3    3    0    0 -0.41444395505E+01  0.91013344921E+01  0.14923016306E+02  0.17964360742E+02  0.10570000000E+00 0.  1.
<mgrwt>
<rscale>  0 0.20005271E+02</rscale>
<asrwt>0</asrwt>
<pdfrwt beam="1">  1        4 0.49722535E-02 0.20005271E+02</pdfrwt>
<pdfrwt beam="2">  1       -4 0.47626526E-03 0.20005271E+02</pdfrwt>
<totfact> 0.12175068E+06</totfact>
</mgrwt>
</event>
<event>
 4    1  0.4710515E-007  0.2146739E+02  0.7818608E-02  0.1717629E+00
          4   -1    0    0  501    0  0.00000000000E+00  0.00000000000E+00  0.13876261664E+01  0.19854234757E+01  0.14200000000E+01 0.  1.
         -4   -1    0    0    0  501 -0.00000000000E+00 -0.00000000000E+00 -0.67706843871E+02  0.67721732900E+02  0.14200000000E+01 0. -1.
        -13    1    1    2    0    0  0.22705193325E+01 -0.10348876408E+02 -0.38733482769E+02  0.40156548169E+02  0.10570000000E+00 0. -1.
         13    1    1    2    0    0 -0.22705193325E+01  0.10348876408E+02 -0.27585734936E+02  0.29550608207E+02  0.10570000000E+00 0.  1.
<mgrwt>
<rscale>  0 0.21467394E+02</rscale>
<asrwt>0</asrwt>
<pdfrwt beam="1">  1        4 0.26061072E-03 0.21467394E+02</pdfrwt>
<pdfrwt beam="2">  1       -4 0.10463565E-01 0.21467394E+02</pdfrwt>
<totfact> 0.93175441E+05</totfact>
</mgrwt>
</event>
<event>
 5    1  0.4710515E-007  0.2000431E+02  0.7818608E-02  0.1745242E+00
         -4   -1    0    0    0  501 -0.00000000000E+00  0.00000000000E+00  0.44239897003E+02  0.44262680521E+02  0.14200000000E+01 0.  1.
          4   -1    0    0  501    0  0.00000000000E+00 -0.00000000000E+00 -0.20127029941E+01  0.24632038776E+01  0.14200000000E+01 0. -1.
       1023    2    1    2    0    0  0.00000000000E+00  0.00000000000E+00  0.42227194009E+02  0.46725884398E+02  0.20004308508E+02 0.  0.
        -13    1    3    3    0    0  0.79279646227E+01 -0.60974410492E+01  0.21166182301E+02  0.23410464671E+02  0.10570000000E+00 0. -1.
         13    1    3    3    0    0 -0.79279646227E+01  0.60974410492E+01  0.21061011708E+02  0.23315419727E+02  0.10570000000E+00 0.  1.
<mgrwt>
<rscale>  0 0.20004309E+02</rscale>
<asrwt>0</asrwt>
<pdfrwt beam="2">  1        4 0.34605313E-03 0.20004309E+02</pdfrwt>
<pdfrwt beam="1">  1       -4 0.68425440E-02 0.20004309E+02</pdfrwt>
<totfact> 0.11655091E+06</totfact>
</mgrwt>
</event>
<event>
 5    1  0.4710515E-007  0.2000200E+02  0.7818608E-02  0.1745288E+00
         -4   -1    0    0    0  501 -0.00000000000E+00  0.00000000000E+00  0.13916693089E+02  0.13988950873E+02  0.14200000000E+01 0.  1.
          4   -1    0    0  501    0  0.00000000000E+00 -0.00000000000E+00 -0.70249625533E+01  0.71670425473E+01  0.14200000000E+01 0. -1.
       1023    2    1    2    0    0  0.00000000000E+00  0.00000000000E+00  0.68917305352E+01  0.21155993420E+02  0.20002002595E+02 0.  0.
        -13    1    3    3    0    0  0.82982752493E+01  0.55806938063E+01  0.33847474814E+01  0.10558087113E+02  0.10570000000E+00 0.  1.
         13    1    3    3    0    0 -0.82982752493E+01 -0.55806938063E+01  0.35069830539E+01  0.10597906308E+02  0.10570000000E+00 0. -1.
<mgrwt>
<rscale>  0 0.20002003E+02</rscale>
<asrwt>0</asrwt>
<pdfrwt beam="2">  1        4 0.10972510E-02 0.20002003E+02</pdfrwt>
<pdfrwt beam="1">  1       -4 0.21575172E-02 0.20002003E+02</pdfrwt>
<totfact> 0.12942911E+06</totfact>
</mgrwt>
</event>
<event>
 4    1  0.4710515E-007  0.2007283E+02  0.7818608E-02  0.1743884E+00
         -4   -1    0    0    0  501 -0.00000000000E+00  0.00000000000E+00  0.91350966199E+00  0.16884608087E+01  0.14200000000E+01 0.  1.
          4   -1    0    0  501    0  0.00000000000E+00 -0.00000000000E+00 -0.76642128907E+02  0.76655282423E+02  0.14200000000E+01 0. -1.
        -13    1    1    2    0    0  0.65251398693E+01  0.76216937733E+01 -0.36985109235E+02  0.38322019048E+02  0.10570000000E+00 0. -1.
         13    1    1    2    0    0 -0.65251398693E+01 -0.76216937733E+01 -0.38743510010E+02  0.40021724184E+02  0.10570000000E+00 0.  1.
<mgrwt>
<rscale>  0 0.20072826E+02</rscale>
<asrwt>0</asrwt>
<pdfrwt beam="2">  1        4 0.11851717E-01 0.20072826E+02</pdfrwt>
<pdfrwt beam="1">  1       -4 0.20116344E-03 0.20072826E+02</pdfrwt>
<totfact> 0.10389684E+06</totfact>
</mgrwt>
</event>
<event>
 5    1  0.4710515E-007  0.2000266E+02  0.7818608E-02  0.1745275E+00
          4   -1    0    0  501    0  0.00000000000E+00  0.00000000000E+00  0.86408992715E+02  0.86420659694E+02  0.14200000000E+01 0. -1.
         -4   -1    0    0    0  501 -0.00000000000E+00 -0.00000000000E+00 -0.70587337861E+00  0.15857670783E+01  0.14200000000E+01 0.  1.
       1023    2    1    2    0    0  0.00000000000E+00  0.00000000000E+00  0.85703119336E+02  0.88006426773E+02  0.20002662056E+02 0.  0.
        -13    1    3    3    0    0 -0.81619113934E+01  0.57782147279E+01  0.43310627444E+02  0.44450266424E+02  0.10570000000E+00 0.  1.
         13    1    3    3    0    0  0.81619113934E+01 -0.57782147279E+01  0.42392491892E+02  0.43556160349E+02  0.10570000000E+00 0. -1.
<mgrwt>
<rscale>  0 0.20002662E+02</rscale>
<asrwt>0</asrwt>
<pdfrwt beam="1">  1        4 0.13362272E-01 0.20002662E+02</pdfrwt>
<pdfrwt beam="2">  1       -4 0.17717751E-03 0.20002662E+02</pdfrwt>
<totfact> 0.10154151E+06</totfact>
</mgrwt>
</event>
<event>
 5    1  0.4710515E-007  0.2000372E+02  0.7818608E-02  0.1745254E+00
          4   -1    0    0  501    0  0.00000000000E+00  0.00000000000E+00  0.13975260004E+02  0.14047216528E+02  0.14200000000E+01 0. -1.
         -4   -1    0    0    0  501 -0.00000000000E+00 -0.00000000000E+00 -0.69963201174E+01  0.71389701768E+01  0.14200000000E+01 0.  1.
       1023    2    1    2    0    0  0.00000000000E+00  0.00000000000E+00  0.69789398864E+01  0.21186186704E+02  0.20003722282E+02 0.  0.
        -13    1    3    3    0    0 -0.13311170768E+01  0.99123204022E+01  0.34992554725E+01  0.10596316803E+02  0.10570000000E+00 0.  1.
         13    1    3    3    0    0  0.13311170768E+01 -0.99123204022E+01  0.34796844139E+01  0.10589869902E+02  0.10570000000E+00 0. -1.
<mgrwt>
<rscale>  0 0.20003722E+02</rscale>
<asrwt>0</asrwt>
<pdfrwt beam="1">  1        4 0.21665482E-02 0.20003722E+02</pdfrwt>
<pdfrwt beam="2">  1       -4 0.10928651E-02 0.20003722E+02</pdfrwt>
<totfact> 0.12938865E+06</totfact>
</mgrwt>
</event>
<event>
 4    1  0.4710515E-007  0.2003092E+02  0.7818608E-02  0.1744714E+00
          4   -1    0    0  501    0  0.00000000000E+00  0.00000000000E+00  0.26351931549E+01  0.29934333070E+01  0.14200000000E+01 0. -1.
         -4   -1    0    0    0  501 -0.00000000000E+00 -0.00000000000E+00 -0.35269160412E+02  0.35297734717E+02  0.14200000000E+01 0.  1.
        -13    1    1    2    0    0  0.32063997897E+01 -0.94861451217E+01 -0.16649795097E+02  0.19429225361E+02  0.10570000000E+00 0.  1.
         13    1    1    2    0    0 -0.32063997897E+01  0.94861451217E+01 -0.15984172160E+02  0.18861942663E+02  0.10570000000E+00 0. -1.
<mgrwt>
<rscale>  0 0.20030919E+02</rscale>
<asrwt>0</asrwt>
<pdfrwt beam="1">  1        4 0.43516932E-03 0.20030919E+02</pdfrwt>
<pdfrwt beam="2">  1       -4 0.54557793E-02 0.20030919E+02</pdfrwt>
<totfact> 0.12005274E+06</totfact>
</mgrwt>
</event>
<event>
 4    1  0.4710515E-007  0.2003805E+02  0.7818608E-02  0.1744572E+00
         -4   -1    0    0    0  501 -0.00000000000E+00  0.00000000000E+00  0.40165284480E+01  0.42601526702E+01  0.14200000000E+01 0. -1.
          4   -1    0    0  501    0  0.00000000000E+00 -0.00000000000E+00 -0.23991083244E+02  0.24033070450E+02  0.14200000000E+01 0.  1.
        -13    1    1    2    0    0 -0.71217407925E+01  0.70379917708E+01 -0.95038617129E+01  0.13805327958E+02  0.10570000000E+00 0. -1.
         13    1    1    2    0    0  0.71217407925E+01 -0.70379917708E+01 -0.10470693084E+02  0.14487895162E+02  0.10570000000E+00 0.  1.
<mgrwt>
<rscale>  0 0.20038055E+02</rscale>
<asrwt>0</asrwt>
<pdfrwt beam="2">  1        4 0.37129059E-02 0.20038055E+02</pdfrwt>
<pdfrwt beam="1">  1       -4 0.63989758E-03 0.20038055E+02</pdfrwt>
<totfact> 0.12497452E+06</totfact>
</mgrwt>
</event>
<event>
 5    1  0.4710515E-007  0.2000279E+02  0.7818608E-02  0.1745273E+00
          4   -1    0    0  501    0  0.00000000000E+00  0.00000000000E+00  0.96492732613E+00  0.17168240285E+01  0.14200000000E+01 0.  1.
         -4   -1    0    0    0  501 -0.00000000000E+00 -0.00000000000E+00 -0.73838268723E+02  0.73851921627E+02  0.14200000000E+01 0. -1.
       1023    2    1    2    0    0  0.00000000000E+00  0.00000000000E+00 -0.72873341397E+02  0.75568745656E+02  0.20002785646E+02 0.  0.
        -13    1    3    3    0    0  0.21209786242E+01  0.97730826097E+01 -0.36169748741E+02  0.37526971507E+02  0.10570000000E+00 0.  1.
         13    1    3    3    0    0 -0.21209786242E+01 -0.97730826097E+01 -0.36703592656E+02  0.38041774149E+02  0.10570000000E+00 0. -1.
<mgrwt>
<rscale>  0 0.20002786E+02</rscale>
<asrwt>0</asrwt>
<pdfrwt beam="1">  1        4 0.20733885E-03 0.20002786E+02</pdfrwt>
<pdfrwt beam="2">  1       -4 0.11418619E-01 0.20002786E+02</pdfrwt>
<totfact> 0.10555500E+06</totfact>
</mgrwt>
</event>
<event>
 4    1  0.4710515E-007  0.2071528E+02  0.7818608E-02  0.1731467E+00
         -4   -1    0    0    0  501 -0.00000000000E+00  0.00000000000E+00  0.28491574709E+01  0.31834098533E+01  0.14200000000E+01 0. -1.
          4   -1    0    0  501    0  0.00000000000E+00 -0.00000000000E+00 -0.35217816488E+02  0.35246432418E+02  0.14200000000E+01 0.  1.
        -13    1    1    2    0    0  0.98394675434E+01 -0.32129093798E+01 -0.16857294439E+02  0.19781745538E+02  0.10570000000E+00 0.  1.
         13    1    1    2    0    0 -0.98394675434E+01  0.32129093798E+01 -0.15511364578E+02  0.18648096734E+02  0.10570000000E+00 0. -1.
<mgrwt>
<rscale>  0 0.20715277E+02</rscale>
<asrwt>0</asrwt>
<pdfrwt beam="2">  1        4 0.54460383E-02 0.20715277E+02</pdfrwt>
<pdfrwt beam="1">  1       -4 0.46624489E-03 0.20715277E+02</pdfrwt>
<totfact> 0.11203016E+06</totfact>
</mgrwt>
</event>
<event>
 5    1  0.4710515E-007  0.2000485E+02  0.7818608E-02  0.1745232E+00
         -4   -1    0    0    0  501 -0.00000000000E+00  0.00000000000E+00  0.18352848363E+02  0.18407700645E+02  0.14200000000E+01 0. -1.
          4   -1    0    0  501    0  0.00000000000E+00 -0.00000000000E+00 -0.52947053997E+01  0.54818158733E+01  0.14200000000E+01 0.  1.
       1023    2    1    2    0    0  0.00000000000E+00  0.00000000000E+00  0.13058142964E+02  0.23889516519E+02  0.20004846959E+02 0.  0.
        -13    1    3    3    0    0  0.65030469754E+01 -0.75989532503E+01  0.64574949186E+01  0.11905634111E+02  0.10570000000E+00 0.  1.
         13    1    3    3    0    0 -0.65030469754E+01  0.75989532503E+01  0.66006480452E+01  0.11983882408E+02  0.10570000000E+00 0. -1.
<mgrwt>
<rscale>  0 0.20004847E+02</rscale>
<asrwt>0</asrwt>
<pdfrwt beam="2">  1        4 0.83318260E-03 0.20004847E+02</pdfrwt>
<pdfrwt beam="1">  1       -4 0.28421276E-02 0.20004847E+02</pdfrwt>
<totfact> 0.12781685E+06</totfact>
</mgrwt>
</event>
<event>
 5    1  0.4710515E-007  0.2000409E+02  0.7818608E-02  0.1745247E+00
         -4   -1    0    0    0  501 -0.00000000000E+00  0.00000000000E+00  0.22073186240E+01  0.26246248319E+01  0.14200000000E+01 0.  1.
          4   -1    0    0  501    0  0.00000000000E+00 -0.00000000000E+00 -0.40977466220E+02  0.41002062605E+02  0.14200000000E+01 0. -1.
       1023    2    1    2    0    0  0.00000000000E+00  0.00000000000E+00 -0.38770147596E+02  0.43626687436E+02  0.20004087384E+02 0.  0.
        -13    1    3    3    0    0 -0.55977294149E+01  0.82882505511E+01 -0.19397738418E+02  0.21824598507E+02  0.10570000000E+00 0.  1.
         13    1    3    3    0    0  0.55977294149E+01 -0.82882505511E+01 -0.19372409179E+02  0.21802088929E+02  0.10570000000E+00 0. -1.
<mgrwt>
<rscale>  0 0.20004087E+02</rscale>
<asrwt>0</asrwt>
<pdfrwt beam="2">  1        4 0.63382176E-02 0.20004087E+02</pdfrwt>
<pdfrwt beam="1">  1       -4 0.37358002E-03 0.20004087E+02</pdfrwt>
<totfact> 0.11792094E+06</totfact>
</mgrwt>
</event>
<event>
 4    1  0.4710515E-007  0.2024795E+02  0.7818608E-02  0.1740442E+00
         -4   -1    0    0    0  501 -0.00000000000E+00  0.00000000000E+00  0.34600122279E+02  0.34629248645E+02  0.14200000000E+01 0.  1.
          4   -1    0    0  501    0  0.00000000000E+00 -0.00000000000E+00 -0.27598827328E+01  0.31037642789E+01  0.14200000000E+01 0. -1.
        -13    1    1    2    0    0 -0.28740435946E+01  0.96783320120E+01  0.14533757073E+02  0.17696652347E+02  0.10570000000E+00 0. -1.
         13    1    1    2    0    0  0.28740435946E+01 -0.96783320120E+01  0.17306482473E+02  0.20036360578E+02  0.10570000000E+00 0.  1.
<mgrwt>
<rscale>  0 0.20247948E+02</rscale>
<asrwt>0</asrwt>
<pdfrwt beam="2">  1        4 0.45329028E-03 0.20247948E+02</pdfrwt>
<pdfrwt beam="1">  1       -4 0.53517884E-02 0.20247948E+02</pdfrwt>
<totfact> 0.11771374E+06</totfact>
</mgrwt>
</event>
<event>
 5    1  0.4710515E-007  0.2000131E+02  0.7818608E-02  0.1745302E+00
          4   -1    0    0  501    0  0.00000000000E+00  0.00000000000E+00  0.84943989387E+02  0.84955857555E+02  0.14200000000E+01 0. -1.
         -4   -1    0    0    0  501 -0.00000000000E+00 -0.00000000000E+00 -0.73287265088E+00  0.15979681857E+01  0.14200000000E+01 0.  1.
       1023    2    1    2    0    0  0.00000000000E+00  0.00000000000E+00  0.84211116736E+02  0.86553825741E+02  0.20001314169E+02 0.  0.
        -13    1    3    3    0    0 -0.79691191697E+01  0.60411145549E+01  0.42134335817E+02  0.43304911415E+02  0.10570000000E+00 0.  1.
         13    1    3    3    0    0  0.79691191697E+01 -0.60411145549E+01  0.42076780919E+02  0.43248914327E+02  0.10570000000E+00 0. -1.
<mgrwt>
<rscale>  0 0.20001314E+02</rscale>
<asrwt>0</asrwt>
<pdfrwt beam="1">  1        4 0.13135766E-01 0.20001314E+02</pdfrwt>
<pdfrwt beam="2">  1       -4 0.18020836E-03 0.20001314E+02</pdfrwt>
<totfact> 0.10200608E+06</totfact>
</mgrwt>
</event>
<event>
 5    1  0.4710515E-007  0.2000529E+02  0.7818608E-02  0.1745223E+00
         -4   -1    0    0    0  501 -0.00000000000E+00  0.00000000000E+00  0.31028462642E+01  0.34123386320E+01  0.14200000000E+01 0. -1.
          4   -1    0    0  501    0  0.00000000000E+00 -0.00000000000E+00 -0.30386895781E+02  0.30420056463E+02  0.14200000000E+01 0.  1.
       1023    2    1    2    0    0  0.00000000000E+00  0.00000000000E+00 -0.27284049517E+02  0.33832395095E+02  0.20005289296E+02 0.  0.
        -13    1    3    3    0    0  0.94359848814E+00  0.99568275192E+01 -0.13449683262E+02  0.16761084234E+02  0.10570000000E+00 0. -1.
         13    1    3    3    0    0 -0.94359848814E+00 -0.99568275192E+01 -0.13834366255E+02  0.17071310861E+02  0.10570000000E+00 0.  1.
<mgrwt>
<rscale>  0 0.20005289E+02</rscale>
<asrwt>0</asrwt>
<pdfrwt beam="2">  1        4 0.47012648E-02 0.20005289E+02</pdfrwt>
<pdfrwt beam="1">  1       -4 0.50371891E-03 0.20005289E+02</pdfrwt>
<totfact> 0.12253336E+06</totfact>
</mgrwt>
</event>
<event>
 4    1  0.4710515E-007  0.2006658E+02  0.7818608E-02  0.1744007E+00
          4   -1    0    0  501    0  0.00000000000E+00  0.00000000000E+00  0.27702045965E+01  0.31129461136E+01  0.14200000000E+01 0. -1.
         -4   -1    0    0    0  501 -0.00000000000E+00 -0.00000000000E+00 -0.33863611564E+02  0.33893370858E+02  0.14200000000E+01 0.  1.
        -13    1    1    2    0    0 -0.91285362763E+00 -0.99777942858E+01 -0.16497897811E+02  0.19302369938E+02  0.10570000000E+00 0. -1.
         13    1    1    2    0    0  0.91285362763E+00  0.99777942858E+01 -0.14595509156E+02  0.17703947034E+02  0.10570000000E+00 0.  1.
<mgrwt>
<rscale>  0 0.20066578E+02</rscale>
<asrwt>0</asrwt>
<pdfrwt beam="1">  1        4 0.45483926E-03 0.20066578E+02</pdfrwt>
<pdfrwt beam="2">  1       -4 0.52384400E-02 0.20066578E+02</pdfrwt>
<totfact> 0.12023019E+06</totfact>
</mgrwt>
</event>
<event>
 5    1  0.4710515E-007  0.2001114E+02  0.7818608E-02  0.1745107E+00
         -4   -1    0    0    0  501 -0.00000000000E+00  0.00000000000E+00  0.15812777049E+01  0.21252856702E+01  0.14200000000E+01 0. -1.
          4   -1    0    0  501    0  0.00000000000E+00 -0.00000000000E+00 -0.53463639442E+02  0.53482493793E+02  0.14200000000E+01 0.  1.
       1023    2    1    2    0    0  0.00000000000E+00  0.00000000000E+00 -0.51882361737E+02  0.55607779463E+02  0.20011138835E+02 0.  0.
        -13    1    3    3    0    0  0.71270180215E+01 -0.70174493910E+01 -0.25253368274E+02  0.27162156827E+02  0.10570000000E+00 0.  1.
         13    1    3    3    0    0 -0.71270180215E+01  0.70174493910E+01 -0.26628993463E+02  0.28445622636E+02  0.10570000000E+00 0. -1.
<mgrwt>
<rscale>  0 0.20011139E+02</rscale>
<asrwt>0</asrwt>
<pdfrwt beam="2">  1        4 0.82684712E-02 0.20011139E+02</pdfrwt>
<pdfrwt beam="1">  1       -4 0.28657064E-03 0.20011139E+02</pdfrwt>
<totfact> 0.11277949E+06</totfact>
</mgrwt>
</event>
<event>
 5    1  0.4837915E-007  0.2000154E+02  0.7818608E-02  0.1745297E+00
         -4   -1    0    0    0  501 -0.00000000000E+00  0.00000000000E+00  0.48733194675E+01  0.50759868629E+01  0.14200000000E+01 0. -1.
          4   -1    0    0  501    0  0.00000000000E+00 -0.00000000000E+00 -0.19876496894E+02  0.19927155561E+02  0.14200000000E+01 0.  1.
       1023    2    1    2    0    0  0.00000000000E+00  0.00000000000E+00 -0.15003177426E+02  0.25003142424E+02  0.20001544895E+02 0.  0.
        -13    1    3    3    0    0 -0.92606740429E+01 -0.37735991940E+01 -0.75820449954E+01  0.12549849139E+02  0.10570000000E+00 0.  1.
         13    1    3    3    0    0  0.92606740429E+01  0.37735991940E+01 -0.74211324307E+01  0.12453293285E+02  0.10570000000E+00 0. -1.
<mgrwt>
<rscale>  0 0.20001545E+02</rscale>
<asrwt>0</asrwt>
<pdfrwt beam="2">  1        4 0.30774092E-02 0.20001545E+02</pdfrwt>
<pdfrwt beam="1">  1       -4 0.76922808E-03 0.20001545E+02</pdfrwt>
<totfact> 0.12723419E+06</totfact>
</mgrwt>
</event>
<event>
 5    1  0.4710515E-007  0.2000421E+02  0.7818608E-02  0.1745244E+00
          4   -1    0    0  501    0  0.00000000000E+00  0.00000000000E+00  0.29395003595E+02  0.29429281955E+02  0.14200000000E+01 0. -1.
         -4   -1    0    0    0  501 -0.00000000000E+00 -0.00000000000E+00 -0.32173056863E+01  0.35167393818E+01  0.14200000000E+01 0.  1.
       1023    2    1    2    0    0  0.00000000000E+00  0.00000000000E+00  0.26177697909E+02  0.32946021336E+02  0.20004210909E+02 0.  0.
        -13    1    3    3    0    0  0.86742120013E+01 -0.49776658261E+01  0.13267982113E+02  0.16615343293E+02  0.10570000000E+00 0.  1.
         13    1    3    3    0    0 -0.86742120013E+01  0.49776658261E+01  0.12909715796E+02  0.16330678043E+02  0.10570000000E+00 0. -1.
<mgrwt>
<rscale>  0 0.20004211E+02</rscale>
<asrwt>0</asrwt>
<pdfrwt beam="1">  1        4 0.45479784E-02 0.20004211E+02</pdfrwt>
<pdfrwt beam="2">  1       -4 0.52064026E-03 0.20004211E+02</pdfrwt>
<totfact> 0.12299169E+06</totfact>
</mgrwt>
</event>
<event>
 5    1  0.4710515E-007  0.2000247E+02  0.7818608E-02  0.1745279E+00
         -4   -1    0    0    0  501 -0.00000000000E+00  0.00000000000E+00  0.28552543887E+00  0.14484214774E+01  0.14200000000E+01 0.  1.
          4   -1    0    0  501    0  0.00000000000E+00 -0.00000000000E+00 -0.11420197745E+03  0.11421080533E+03  0.14200000000E+01 0. -1.
       1023    2    1    2    0    0  0.00000000000E+00  0.00000000000E+00 -0.11391645201E+03  0.11565922681E+03  0.20002467504E+02 0.  0.
        -13    1    3    3    0    0  0.59527010350E+00  0.99829016964E+01 -0.56791510896E+02  0.57665410387E+02  0.10570000000E+00 0.  1.
         13    1    3    3    0    0 -0.59527010350E+00 -0.99829016964E+01 -0.57124941118E+02  0.57993816420E+02  0.10570000000E+00 0. -1.
<mgrwt>
<rscale>  0 0.20002468E+02</rscale>
<asrwt>0</asrwt>
<pdfrwt beam="2">  1        4 0.17659656E-01 0.20002468E+02</pdfrwt>
<pdfrwt beam="1">  1       -4 0.13405969E-03 0.20002468E+02</pdfrwt>
<totfact> 0.93742323E+05</totfact>
</mgrwt>
</event>
<event>
 5    1  0.4710515E-007  0.2000521E+02  0.7818608E-02  0.1745224E+00
         -4   -1    0    0    0  501 -0.00000000000E+00  0.00000000000E+00  0.14726151836E+02  0.14794456661E+02  0.14200000000E+01 0.  1.
          4   -1    0    0  501    0  0.00000000000E+00 -0.00000000000E+00 -0.66348556479E+01  0.67851093925E+01  0.14200000000E+01 0. -1.
       1023    2    1    2    0    0  0.00000000000E+00  0.00000000000E+00  0.80912961884E+01  0.21579566054E+02  0.20005214247E+02 0.  0.
        -13    1    3    3    0    0 -0.42258823539E+01  0.90654236732E+01  0.40795667749E+01  0.10802500896E+02  0.10570000000E+00 0. -1.
         13    1    3    3    0    0  0.42258823539E+01 -0.90654236732E+01  0.40117294135E+01  0.10777065158E+02  0.10570000000E+00 0.  1.
<mgrwt>
<rscale>  0 0.20005214E+02</rscale>
<asrwt>0</asrwt>
<pdfrwt beam="2">  1        4 0.10375592E-02 0.20005214E+02</pdfrwt>
<pdfrwt beam="1">  1       -4 0.22823740E-02 0.20005214E+02</pdfrwt>
<totfact> 0.12913843E+06</totfact>
</mgrwt>
</event>
<event>
 5    1  0.4710515E-007  0.2000607E+02  0.7818608E-02  0.1745207E+00
         -4   -1    0    0    0  501 -0.00000000000E+00  0.00000000000E+00  0.24012216050E+02  0.24054166368E+02  0.14200000000E+01 0.  1.
          4   -1    0    0  501    0  0.00000000000E+00 -0.00000000000E+00 -0.39990670831E+01  0.42436938550E+01  0.14200000000E+01 0. -1.
       1023    2    1    2    0    0  0.00000000000E+00  0.00000000000E+00  0.20013148967E+02  0.28297860223E+02  0.20006068120E+02 0.  0.
        -13    1    3    3    0    0 -0.48890039450E+01  0.87249231733E+01  0.10220499964E+02  0.14300225032E+02  0.10570000000E+00 0. -1.
         13    1    3    3    0    0  0.48890039450E+01 -0.87249231733E+01  0.97926490031E+01  0.13997635191E+02  0.10570000000E+00 0.  1.
<mgrwt>
<rscale>  0 0.20006068E+02</rscale>
<asrwt>0</asrwt>
<pdfrwt beam="2">  1        4 0.63728547E-03 0.20006068E+02</pdfrwt>
<pdfrwt beam="1">  1       -4 0.37162315E-02 0.20006068E+02</pdfrwt>
<totfact> 0.12537881E+06</totfact>
</mgrwt>
</event>
<event>
 5    1  0.5198918E-007  0.2000143E+02  0.7818608E-02  0.1745300E+00
         -4   -1    0    0    0  501 -0.00000000000E+00  0.00000000000E+00  0.18992190917E+01  0.23713779029E+01  0.14200000000E+01 0.  1.
          4   -1    0    0  501    0  0.00000000000E+00 -0.00000000000E+00 -0.46354341734E+02  0.46376086484E+02  0.14200000000E+01 0. -1.
       1023    2    1    2    0    0  0.00000000000E+00  0.00000000000E+00 -0.44455122642E+02  0.48747464387E+02  0.20001433824E+02 0.  0.
        -13    1    3    3    0    0 -0.99994238999E+01 -0.11060713181E+00 -0.22348294951E+02  0.24483834912E+02  0.10570000000E+00 0. -1.
         13    1    3    3    0    0  0.99994238999E+01  0.11060713181E+00 -0.22106827691E+02  0.24263629475E+02  0.10570000000E+00 0.  1.
<mgrwt>
<rscale>  0 0.20001434E+02</rscale>
<asrwt>0</asrwt>
<pdfrwt beam="2">  1        4 0.71694290E-02 0.20001434E+02</pdfrwt>
<pdfrwt beam="1">  1       -4 0.33018017E-03 0.20001434E+02</pdfrwt>
<totfact> 0.11571543E+06</totfact>
</mgrwt>
</event>
<event>
 5    1  0.4710515E-007  0.2000384E+02  0.7818608E-02  0.1745252E+00
          4   -1    0    0  501    0  0.00000000000E+00  0.00000000000E+00  0.42939275927E+02  0.42962749180E+02  0.14200000000E+01 0. -1.
         -4   -1    0    0    0  501 -0.00000000000E+00 -0.00000000000E+00 -0.20869531213E+01  0.25242371779E+01  0.14200000000E+01 0.  1.
       1023    2    1    2    0    0  0.00000000000E+00  0.00000000000E+00  0.40852322806E+02  0.45486986358E+02  0.20003840864E+02 0.  0.
        -13    1    3    3    0    0 -0.84688938286E+01 -0.53195775016E+01  0.20233584131E+02  0.22570537582E+02  0.10570000000E+00 0. -1.
         13    1    3    3    0    0  0.84688938286E+01  0.53195775016E+01  0.20618738675E+02  0.22916448776E+02  0.10570000000E+00 0.  1.
<mgrwt>
<rscale>  0 0.20003841E+02</rscale>
<asrwt>0</asrwt>
<pdfrwt beam="1">  1        4 0.66414847E-02 0.20003841E+02</pdfrwt>
<pdfrwt beam="2">  1       -4 0.35651261E-03 0.20003841E+02</pdfrwt>
<totfact> 0.11709784E+06</totfact>
</mgrwt>
</event>
<event>
 5    1  0.4710515E-007  0.2000113E+02  0.7818608E-02  0.1745306E+00
          4   -1    0    0  501    0  0.00000000000E+00  0.00000000000E+00  0.22173469069E+02  0.22218891299E+02  0.14200000000E+01 0. -1.
         -4   -1    0    0    0  501 -0.00000000000E+00 -0.00000000000E+00 -0.43472321310E+01  0.45732731387E+01  0.14200000000E+01 0.  1.
       1023    2    1    2    0    0  0.00000000000E+00  0.00000000000E+00  0.17826236938E+02  0.26792164438E+02  0.20001133765E+02 0.  0.
        -13    1    3    3    0    0  0.79701251592E+01  0.60396412688E+01  0.89157201645E+01  0.13397813264E+02  0.10570000000E+00 0. -1.
         13    1    3    3    0    0 -0.79701251592E+01 -0.60396412688E+01  0.89105167738E+01  0.13394351174E+02  0.10570000000E+00 0.  1.
<mgrwt>
<rscale>  0 0.20001134E+02</rscale>
<asrwt>0</asrwt>
<pdfrwt beam="1">  1        4 0.34321847E-02 0.20001134E+02</pdfrwt>
<pdfrwt beam="2">  1       -4 0.68968673E-03 0.20001134E+02</pdfrwt>
<totfact> 0.12625341E+06</totfact>
</mgrwt>
</event>
<event>
 5    1  0.4710515E-007  0.2000363E+02  0.7818608E-02  0.1745256E+00
          4   -1    0    0  501    0  0.00000000000E+00  0.00000000000E+00  0.90297897390E+02  0.90309061965E+02  0.14200000000E+01 0. -1.
         -4   -1    0    0    0  501 -0.00000000000E+00 -0.00000000000E+00 -0.63688607197E+00  0.15562852787E+01  0.14200000000E+01 0.  1.
       1023    2    1    2    0    0  0.00000000000E+00  0.00000000000E+00  0.89661011318E+02  0.91865347244E+02  0.20003626513E+02 0.  0.
        -13    1    3    3    0    0  0.87552112247E+01 -0.48337593184E+01  0.45190453940E+02  0.46283984838E+02  0.10570000000E+00 0. -1.
         13    1    3    3    0    0 -0.87552112247E+01  0.48337593184E+01  0.44470557378E+02  0.45581362406E+02  0.10570000000E+00 0.  1.
<mgrwt>
<rscale>  0 0.20003627E+02</rscale>
<asrwt>0</asrwt>
<pdfrwt beam="1">  1        4 0.13963567E-01 0.20003627E+02</pdfrwt>
<pdfrwt beam="2">  1       -4 0.16956429E-03 0.20003627E+02</pdfrwt>
<totfact> 0.10035619E+06</totfact>
</mgrwt>
</event>
<event>
 5    1  0.4710515E-007  0.2000473E+02  0.7818608E-02  0.1745234E+00
         -4   -1    0    0    0  501 -0.00000000000E+00  0.00000000000E+00  0.47545124102E+02  0.47566324494E+02  0.14200000000E+01 0.  1.
          4   -1    0    0  501    0  0.00000000000E+00 -0.00000000000E+00 -0.18404763177E+01  0.23245974008E+01  0.14200000000E+01 0. -1.
       1023    2    1    2    0    0  0.00000000000E+00  0.00000000000E+00  0.45704647785E+02  0.49890921895E+02  0.20004730901E+02 0.  0.
        -13    1    3    3    0    0  0.23280501156E+01  0.97270856324E+01  0.22880746215E+02  0.24971498395E+02  0.10570000000E+00 0. -1.
         13    1    3    3    0    0 -0.23280501156E+01 -0.97270856324E+01  0.22823901569E+02  0.24919423500E+02  0.10570000000E+00 0.  1.
<mgrwt>
<rscale>  0 0.20004731E+02</rscale>
<asrwt>0</asrwt>
<pdfrwt beam="2">  1        4 0.32202110E-03 0.20004731E+02</pdfrwt>
<pdfrwt beam="1">  1       -4 0.73535051E-02 0.20004731E+02</pdfrwt>
<totfact> 0.11519308E+06</totfact>
</mgrwt>
</event>
<event>
 4    1  0.4710515E-007  0.2002024E+02  0.7818608E-02  0.1744926E+00
          4   -1    0    0  501    0  0.00000000000E+00  0.00000000000E+00  0.45997704313E+01  0.48139680120E+01  0.14200000000E+01 0. -1.
         -4   -1    0    0    0  501 -0.00000000000E+00 -0.00000000000E+00 -0.21049907644E+02  0.21097748975E+02  0.14200000000E+01 0.  1.
        -13    1    1    2    0    0 -0.45954651988E+00 -0.99946012755E+01 -0.78408940629E+01  0.12711964044E+02  0.10570000000E+00 0. -1.
         13    1    1    2    0    0  0.45954651988E+00  0.99946012755E+01 -0.86092431494E+01  0.13199752943E+02  0.10570000000E+00 0.  1.
<mgrwt>
<rscale>  0 0.20020241E+02</rscale>
<asrwt>0</asrwt>
<pdfrwt beam="1">  1        4 0.72781384E-03 0.20020241E+02</pdfrwt>
<pdfrwt beam="2">  1       -4 0.32586041E-02 0.20020241E+02</pdfrwt>
<totfact> 0.12648955E+06</totfact>
</mgrwt>
</event>
<event>
 5    1  0.4710515E-007  0.2000447E+02  0.7818608E-02  0.1745239E+00
         -4   -1    0    0    0  501 -0.00000000000E+00  0.00000000000E+00  0.36967670137E+02  0.36994932564E+02  0.14200000000E+01 0. -1.
          4   -1    0    0  501    0  0.00000000000E+00 -0.00000000000E+00 -0.24897057553E+01  0.28661881913E+01  0.14200000000E+01 0.  1.
       1023    2    1    2    0    0  0.00000000000E+00  0.00000000000E+00  0.34477964382E+02  0.39861120755E+02  0.20004472498E+02 0.  0.
        -13    1    3    3    0    0  0.86114148168E+01 -0.50838020819E+01  0.16882261888E+02  0.19622014364E+02  0.10570000000E+00 0. -1.
         13    1    3    3    0    0 -0.86114148168E+01  0.50838020819E+01  0.17595702495E+02  0.20239106391E+02  0.10570000000E+00 0.  1.
<mgrwt>
<rscale>  0 0.20004472E+02</rscale>
<asrwt>0</asrwt>
<pdfrwt beam="2">  1        4 0.41408894E-03 0.20004472E+02</pdfrwt>
<pdfrwt beam="1">  1       -4 0.57183913E-02 0.20004472E+02</pdfrwt>
<totfact> 0.11963662E+06</totfact>
</mgrwt>
</event>
<event>
 5    1  0.4716986E-007  0.2000915E+02  0.7818608E-02  0.1745146E+00
          4   -1    0    0  501    0  0.00000000000E+00  0.00000000000E+00  0.76022484477E+01  0.77337301130E+01  0.14200000000E+01 0.  1.
         -4   -1    0    0    0  501 -0.00000000000E+00 -0.00000000000E+00 -0.12882329763E+02  0.12960355710E+02  0.14200000000E+01 0. -1.
       1023    2    1    2    0    0  0.00000000000E+00  0.00000000000E+00 -0.52800813155E+01  0.20694085823E+02  0.20009146143E+02 0.  0.
        -13    1    3    3    0    0 -0.74957417554E+01 -0.66217222653E+01 -0.24159209702E+01  0.10289858932E+02  0.10570000000E+00 0.  1.
         13    1    3    3    0    0  0.74957417554E+01  0.66217222653E+01 -0.28641603453E+01  0.10404226891E+02  0.10570000000E+00 0. -1.
<mgrwt>
<rscale>  0 0.20009146E+02</rscale>
<asrwt>0</asrwt>
<pdfrwt beam="1">  1        4 0.11856927E-02 0.20009146E+02</pdfrwt>
<pdfrwt beam="2">  1       -4 0.19980129E-02 0.20009146E+02</pdfrwt>
<totfact> 0.12960750E+06</totfact>
</mgrwt>
</event>
<event>
 4    1  0.4710515E-007  0.2001260E+02  0.7818608E-02  0.1745078E+00
          4   -1    0    0  501    0  0.00000000000E+00  0.00000000000E+00  0.53014686640E+01  0.54883485672E+01  0.14200000000E+01 0.  1.
         -4   -1    0    0    0  501 -0.00000000000E+00 -0.00000000000E+00 -0.18344559267E+02  0.18399436261E+02  0.14200000000E+01 0. -1.
        -13    1    1    2    0    0 -0.26821483801E+01 -0.96359632994E+01 -0.62077032213E+01  0.11772529907E+02  0.10570000000E+00 0. -1.
         13    1    1    2    0    0  0.26821483801E+01  0.96359632994E+01 -0.68353873820E+01  0.12115254921E+02  0.10570000000E+00 0.  1.
<mgrwt>
<rscale>  0 0.20012597E+02</rscale>
<asrwt>0</asrwt>
<pdfrwt beam="1">  1        4 0.83420725E-03 0.20012597E+02</pdfrwt>
<pdfrwt beam="2">  1       -4 0.28408366E-02 0.20012597E+02</pdfrwt>
<totfact> 0.12771697E+06</totfact>
</mgrwt>
</event>
<event>
 4    1  0.4710515E-007  0.2009820E+02  0.7818608E-02  0.1743382E+00
          4   -1    0    0  501    0  0.00000000000E+00  0.00000000000E+00  0.42245192546E+01  0.44567884101E+01  0.14200000000E+01 0.  1.
         -4   -1    0    0    0  501 -0.00000000000E+00 -0.00000000000E+00 -0.23010061868E+02  0.23053835845E+02  0.14200000000E+01 0. -1.
        -13    1    1    2    0    0 -0.23622486684E+01 -0.97309276652E+01 -0.10539728276E+02  0.14538508060E+02  0.10570000000E+00 0. -1.
         13    1    1    2    0    0  0.23622486684E+01  0.97309276652E+01 -0.82458143376E+01  0.12972116195E+02  0.10570000000E+00 0.  1.
<mgrwt>
<rscale>  0 0.20098205E+02</rscale>
<asrwt>0</asrwt>
<pdfrwt beam="1">  1        4 0.67116014E-03 0.20098205E+02</pdfrwt>
<pdfrwt beam="2">  1       -4 0.35612435E-02 0.20098205E+02</pdfrwt>
<totfact> 0.12462982E+06</totfact>
</mgrwt>
</event>
<event>
 4    1  0.4710515E-007  0.2006229E+02  0.7818608E-02  0.1744092E+00
         -4   -1    0    0    0  501 -0.00000000000E+00  0.00000000000E+00  0.98211310963E+01  0.99232563209E+01  0.14200000000E+01 0.  1.
          4   -1    0    0  501    0  0.00000000000E+00 -0.00000000000E+00 -0.10040310829E+02  0.10140228871E+02  0.14200000000E+01 0. -1.
        -13    1    1    2    0    0  0.58016308556E+01 -0.81676708753E+01 -0.60247723485E+00  0.10037127050E+02  0.10570000000E+00 0.  1.
         13    1    1    2    0    0 -0.58016308556E+01  0.81676708753E+01  0.38329750197E+00  0.10026358141E+02  0.10570000000E+00 0. -1.
<mgrwt>
<rscale>  0 0.20062288E+02</rscale>
<asrwt>0</asrwt>
<pdfrwt beam="2">  1        4 0.15602050E-02 0.20062288E+02</pdfrwt>
<pdfrwt beam="1">  1       -4 0.15264850E-02 0.20062288E+02</pdfrwt>
<totfact> 0.12927894E+06</totfact>
</mgrwt>
</event>
<event>
 5    1  0.4774184E-007  0.2000130E+02  0.7818608E-02  0.1745302E+00
         -4   -1    0    0    0  501 -0.00000000000E+00  0.00000000000E+00  0.22861154613E+01  0.26912309270E+01  0.14200000000E+01 0. -1.
          4   -1    0    0  501    0  0.00000000000E+00 -0.00000000000E+00 -0.39768450107E+02  0.39793793786E+02  0.14200000000E+01 0.  1.
       1023    2    1    2    0    0  0.00000000000E+00  0.00000000000E+00 -0.37482334646E+02  0.42485024713E+02  0.20001297818E+02 0.  0.
        -13    1    3    3    0    0 -0.96521670867E+01  0.26146584064E+01 -0.18672730662E+02  0.21182134239E+02  0.10570000000E+00 0. -1.
         13    1    3    3    0    0  0.96521670867E+01 -0.26146584064E+01 -0.18809603984E+02  0.21302890474E+02  0.10570000000E+00 0.  1.
<mgrwt>
<rscale>  0 0.20001298E+02</rscale>
<asrwt>0</asrwt>
<pdfrwt beam="2">  1        4 0.61513349E-02 0.20001298E+02</pdfrwt>
<pdfrwt beam="1">  1       -4 0.38482234E-03 0.20001298E+02</pdfrwt>
<totfact> 0.11846926E+06</totfact>
</mgrwt>
</event>
<event>
 5    1  0.5107772E-007  0.2000183E+02  0.7818608E-02  0.1745292E+00
          4   -1    0    0  501    0  0.00000000000E+00  0.00000000000E+00  0.33237328804E+02  0.33267648339E+02  0.14200000000E+01 0.  1.
         -4   -1    0    0    0  501 -0.00000000000E+00 -0.00000000000E+00 -0.28081417545E+01  0.31467539010E+01  0.14200000000E+01 0. -1.
       1023    2    1    2    0    0  0.00000000000E+00  0.00000000000E+00  0.30429187050E+02  0.36414402241E+02  0.20001831567E+02 0.  0.
        -13    1    3    3    0    0 -0.77661419577E+01 -0.63000864225E+01  0.15315862449E+02  0.18291825084E+02  0.10570000000E+00 0. -1.
         13    1    3    3    0    0  0.77661419577E+01  0.63000864225E+01  0.15113324600E+02  0.18122577157E+02  0.10570000000E+00 0.  1.
<mgrwt>
<rscale>  0 0.20001832E+02</rscale>
<asrwt>0</asrwt>
<pdfrwt beam="1">  1        4 0.51418143E-02 0.20001832E+02</pdfrwt>
<pdfrwt beam="2">  1       -4 0.46040119E-03 0.20001832E+02</pdfrwt>
<totfact> 0.12130628E+06</totfact>
</mgrwt>
</event>
<event>
 5    1  0.4710515E-007  0.2000283E+02  0.7818608E-02  0.1745272E+00
         -4   -1    0    0    0  501 -0.00000000000E+00  0.00000000000E+00  0.12730845747E+02  0.12809794434E+02  0.14200000000E+01 0. -1.
          4   -1    0    0  501    0  0.00000000000E+00 -0.00000000000E+00 -0.76887120951E+01  0.78187399037E+01  0.14200000000E+01 0.  1.
       1023    2    1    2    0    0  0.00000000000E+00  0.00000000000E+00  0.50421336517E+01  0.20628534337E+02  0.20002832728E+02 0.  0.
        -13    1    3    3    0    0  0.72128214113E+01  0.69271282476E+01  0.24332060386E+01  0.10292791778E+02  0.10570000000E+00 0.  1.
         13    1    3    3    0    0 -0.72128214113E+01 -0.69271282476E+01  0.26089276132E+01  0.10335742559E+02  0.10570000000E+00 0. -1.
<mgrwt>
<rscale>  0 0.20002833E+02</rscale>
<asrwt>0</asrwt>
<pdfrwt beam="2">  1        4 0.11989539E-02 0.20002833E+02</pdfrwt>
<pdfrwt beam="1">  1       -4 0.19746668E-02 0.20002833E+02</pdfrwt>
<totfact> 0.12972970E+06</totfact>
</mgrwt>
</event>
<event>
 5    1  0.5161589E-007  0.2000213E+02  0.7818608E-02  0.1745286E+00
          4   -1    0    0  501    0  0.00000000000E+00  0.00000000000E+00  0.11670062400E+02  0.11756136969E+02  0.14200000000E+01 0.  1.
         -4   -1    0    0    0  501 -0.00000000000E+00 -0.00000000000E+00 -0.83933376398E+01  0.85126092790E+01  0.14200000000E+01 0. -1.
       1023    2    1    2    0    0  0.00000000000E+00  0.00000000000E+00  0.32767247606E+01  0.20268746248E+02  0.20002128619E+02 0.  0.
        -13    1    3    3    0    0 -0.57913003515E+01  0.81529714144E+01  0.16419004885E+01  0.10134945108E+02  0.10570000000E+00 0.  1.
         13    1    3    3    0    0  0.57913003515E+01 -0.81529714144E+01  0.16348242721E+01  0.10133801140E+02  0.10570000000E+00 0. -1.
<mgrwt>
<rscale>  0 0.20002129E+02</rscale>
<asrwt>0</asrwt>
<pdfrwt beam="1">  1        4 0.18111901E-02 0.20002129E+02</pdfrwt>
<pdfrwt beam="2">  1       -4 0.13070786E-02 0.20002129E+02</pdfrwt>
<totfact> 0.12995224E+06</totfact>
</mgrwt>
</event>
<event>
 5    1  0.4710515E-007  0.2000263E+02  0.7818608E-02  0.1745276E+00
         -4   -1    0    0    0  501 -0.00000000000E+00  0.00000000000E+00  0.99218319773E+02  0.99228480683E+02  0.14200000000E+01 0.  1.
          4   -1    0    0  501    0  0.00000000000E+00 -0.00000000000E+00 -0.49274668996E+00  0.15030633055E+01  0.14200000000E+01 0. -1.
       1023    2    1    2    0    0  0.00000000000E+00  0.00000000000E+00  0.98725573083E+02  0.10073154399E+03  0.20002629169E+02 0.  0.
        -13    1    3    3    0    0  0.51442734255E+01 -0.85762026651E+01  0.49272744206E+02  0.50277522764E+02  0.10570000000E+00 0.  1.
         13    1    3    3    0    0 -0.51442734255E+01  0.85762026651E+01  0.49452828877E+02  0.50454021224E+02  0.10570000000E+00 0. -1.
<mgrwt>
<rscale>  0 0.20002629E+02</rscale>
<asrwt>0</asrwt>
<pdfrwt beam="2">  1        4 0.15430541E-03 0.20002629E+02</pdfrwt>
<pdfrwt beam="1">  1       -4 0.15342859E-01 0.20002629E+02</pdfrwt>
<totfact> 0.97779025E+05</totfact>
</mgrwt>
</event>
<event>
 5    1  0.4710515E-007  0.2000275E+02  0.7818608E-02  0.1745273E+00
         -4   -1    0    0    0  501 -0.00000000000E+00  0.00000000000E+00  0.39159700988E+02  0.39185438385E+02  0.14200000000E+01 0.  1.
          4   -1    0    0  501    0  0.00000000000E+00 -0.00000000000E+00 -0.23282753669E+01  0.27271351606E+01  0.14200000000E+01 0. -1.
       1023    2    1    2    0    0  0.00000000000E+00  0.00000000000E+00  0.36831425621E+02  0.41912573546E+02  0.20002747511E+02 0.  0.
        -13    1    3    3    0    0  0.80932169249E+01 -0.58744067906E+01  0.18597043576E+02  0.21115634435E+02  0.10570000000E+00 0. -1.
         13    1    3    3    0    0 -0.80932169249E+01  0.58744067906E+01  0.18234382045E+02  0.20796939111E+02  0.10570000000E+00 0.  1.
<mgrwt>
<rscale>  0 0.20002748E+02</rscale>
<asrwt>0</asrwt>
<pdfrwt beam="2">  1        4 0.39085755E-03 0.20002748E+02</pdfrwt>
<pdfrwt beam="1">  1       -4 0.60572304E-02 0.20002748E+02</pdfrwt>
<totfact> 0.11871209E+06</totfact>
</mgrwt>
</event>
<event>
 5    1  0.4895344E-007  0.2000219E+02  0.7818608E-02  0.1745284E+00
          4   -1    0    0  501    0  0.00000000000E+00  0.00000000000E+00  0.12415310685E+02  0.12496253014E+02  0.14200000000E+01 0.  1.
         -4   -1    0    0    0  501 -0.00000000000E+00 -0.00000000000E+00 -0.78855967817E+01  0.80124301310E+01  0.14200000000E+01 0. -1.
       1023    2    1    2    0    0  0.00000000000E+00  0.00000000000E+00  0.45297139030E+01  0.20508683145E+02  0.20002194287E+02 0.  0.
        -13    1    3    3    0    0 -0.59266288292E+01  0.80551715915E+01  0.22573966855E+01  0.10252693838E+02  0.10570000000E+00 0. -1.
         13    1    3    3    0    0  0.59266288292E+01 -0.80551715915E+01  0.22723172175E+01  0.10255989307E+02  0.10570000000E+00 0.  1.
<mgrwt>
<rscale>  0 0.20002194E+02</rscale>
<asrwt>0</asrwt>
<pdfrwt beam="1">  1        4 0.19260305E-02 0.20002194E+02</pdfrwt>
<pdfrwt beam="2">  1       -4 0.12291515E-02 0.20002194E+02</pdfrwt>
<totfact> 0.12980901E+06</totfact>
</mgrwt>
</event>
<event>
 4    1  0.4710515E-007  0.2020706E+02  0.7818608E-02  0.1741242E+00
         -4   -1    0    0    0  501 -0.00000000000E+00  0.00000000000E+00  0.21694495520E+01  0.25928577591E+01  0.14200000000E+01 0. -1.
          4   -1    0    0  501    0  0.00000000000E+00 -0.00000000000E+00 -0.42434179487E+02  0.42457931988E+02  0.14200000000E+01 0.  1.
        -13    1    1    2    0    0 -0.61907750214E+01  0.79812865814E+01 -0.20597310888E+02  0.22940946344E+02  0.10570000000E+00 0. -1.
         13    1    1    2    0    0  0.61907750214E+01 -0.79812865814E+01 -0.19667419047E+02  0.22109843403E+02  0.10570000000E+00 0.  1.
<mgrwt>
<rscale>  0 0.20207058E+02</rscale>
<asrwt>0</asrwt>
<pdfrwt beam="2">  1        4 0.65627317E-02 0.20207058E+02</pdfrwt>
<pdfrwt beam="1">  1       -4 0.36815848E-03 0.20207058E+02</pdfrwt>
<totfact> 0.11491553E+06</totfact>
</mgrwt>
</event>
<event>
 5    1  0.4710515E-007  0.2000246E+02  0.7818608E-02  0.1745279E+00
         -4   -1    0    0    0  501 -0.00000000000E+00  0.00000000000E+00  0.53575432691E+02  0.53594247714E+02  0.14200000000E+01 0.  1.
          4   -1    0    0  501    0  0.00000000000E+00 -0.00000000000E+00 -0.15749837220E+01  0.21206069237E+01  0.14200000000E+01 0. -1.
       1023    2    1    2    0    0  0.00000000000E+00  0.00000000000E+00  0.52000448969E+02  0.55714854638E+02  0.20002458207E+02 0.  0.
        -13    1    3    3    0    0 -0.10256842849E+01 -0.99476570784E+01  0.25793625716E+02  0.27664602106E+02  0.10570000000E+00 0.  1.
         13    1    3    3    0    0  0.10256842849E+01  0.99476570784E+01  0.26206823253E+02  0.28050252532E+02  0.10570000000E+00 0. -1.
<mgrwt>
<rscale>  0 0.20002458E+02</rscale>
<asrwt>0</asrwt>
<pdfrwt beam="2">  1        4 0.28572352E-03 0.20002458E+02</pdfrwt>
<pdfrwt beam="1">  1       -4 0.82857925E-02 0.20002458E+02</pdfrwt>
<totfact> 0.11283543E+06</totfact>
</mgrwt>
</event>
<event>
 4    1  0.4710515E-007  0.2002731E+02  0.7818608E-02  0.1744786E+00
          4   -1    0    0  501    0  0.00000000000E+00  0.00000000000E+00  0.15494869471E+01  0.21017397078E+01  0.14200000000E+01 0. -1.
         -4   -1    0    0    0  501 -0.00000000000E+00 -0.00000000000E+00 -0.54362874035E+02  0.54381416618E+02  0.14200000000E+01 0.  1.
        -13    1    1    2    0    0 -0.99344935524E+01 -0.11706126174E+01 -0.27660397403E+02  0.29413827582E+02  0.10570000000E+00 0.  1.
         13    1    1    2    0    0  0.99344935524E+01  0.11706126174E+01 -0.25152989685E+02  0.27069328743E+02  0.10570000000E+00 0. -1.
<mgrwt>
<rscale>  0 0.20027309E+02</rscale>
<asrwt>0</asrwt>
<pdfrwt beam="1">  1        4 0.28228998E-03 0.20027309E+02</pdfrwt>
<pdfrwt beam="2">  1       -4 0.84074252E-02 0.20027309E+02</pdfrwt>
<totfact> 0.11224944E+06</totfact>
</mgrwt>
</event>
<event>
 5    1  0.4710515E-007  0.2000818E+02  0.7818608E-02  0.1745165E+00
          4   -1    0    0  501    0  0.00000000000E+00  0.00000000000E+00  0.37882679789E+01  0.40456611673E+01  0.14200000000E+01 0. -1.
         -4   -1    0    0    0  501 -0.00000000000E+00 -0.00000000000E+00 -0.25272884681E+02  0.25312745803E+02  0.14200000000E+01 0.  1.
       1023    2    1    2    0    0  0.00000000000E+00  0.00000000000E+00 -0.21484616702E+02  0.29358406970E+02  0.20008180952E+02 0.  0.
        -13    1    3    3    0    0 -0.45585452208E+01 -0.89039981454E+01 -0.10882560351E+02  0.14781840541E+02  0.10570000000E+00 0.  1.
         13    1    3    3    0    0  0.45585452208E+01  0.89039981454E+01 -0.10602056351E+02  0.14576566429E+02  0.10570000000E+00 0. -1.
<mgrwt>
<rscale>  0 0.20008181E+02</rscale>
<asrwt>0</asrwt>
<pdfrwt beam="1">  1        4 0.60567619E-03 0.20008181E+02</pdfrwt>
<pdfrwt beam="2">  1       -4 0.39110017E-02 0.20008181E+02</pdfrwt>
<totfact> 0.12479010E+06</totfact>
</mgrwt>
</event>
<event>
 5    1  0.4710515E-007  0.2000266E+02  0.7818608E-02  0.1745275E+00
         -4   -1    0    0    0  501 -0.00000000000E+00  0.00000000000E+00  0.16506390671E+01  0.21773858937E+01  0.14200000000E+01 0. -1.
          4   -1    0    0  501    0  0.00000000000E+00 -0.00000000000E+00 -0.51722333077E+02  0.51741821952E+02  0.14200000000E+01 0.  1.
       1023    2    1    2    0    0  0.00000000000E+00  0.00000000000E+00 -0.50071694010E+02  0.53919207846E+02  0.20002660666E+02 0.  0.
        -13    1    3    3    0    0 -0.58791768461E+01  0.80899424299E+01 -0.25196388772E+02  0.27108689908E+02  0.10570000000E+00 0. -1.
         13    1    3    3    0    0  0.58791768461E+01 -0.80899424299E+01 -0.24875305238E+02  0.26810517938E+02  0.10570000000E+00 0.  1.
<mgrwt>
<rscale>  0 0.20002661E+02</rscale>
<asrwt>0</asrwt>
<pdfrwt beam="2">  1        4 0.79992991E-02 0.20002661E+02</pdfrwt>
<pdfrwt beam="1">  1       -4 0.29596264E-03 0.20002661E+02</pdfrwt>
<totfact> 0.11355426E+06</totfact>
</mgrwt>
</event>
<event>
 4    1  0.4710515E-007  0.2017676E+02  0.7818608E-02  0.1741836E+00
          4   -1    0    0  501    0  0.00000000000E+00  0.00000000000E+00  0.74889463203E+01  0.76223826320E+01  0.14200000000E+01 0. -1.
         -4   -1    0    0    0  501 -0.00000000000E+00 -0.00000000000E+00 -0.13298515675E+02  0.13374113771E+02  0.14200000000E+01 0.  1.
        -13    1    1    2    0    0  0.92874691288E+01  0.39144553640E+01 -0.24581321173E+01  0.10374662867E+02  0.10570000000E+00 0. -1.
         13    1    1    2    0    0 -0.92874691288E+01 -0.39144553640E+01 -0.33514372375E+01  0.10621833536E+02  0.10570000000E+00 0.  1.
<mgrwt>
<rscale>  0 0.20176763E+02</rscale>
<asrwt>0</asrwt>
<pdfrwt beam="1">  1        4 0.11682252E-02 0.20176763E+02</pdfrwt>
<pdfrwt beam="2">  1       -4 0.20620050E-02 0.20176763E+02</pdfrwt>
<totfact> 0.12724191E+06</totfact>
</mgrwt>
</event>
<event>
 4    1  0.4710515E-007  0.2003402E+02  0.7818608E-02  0.1744652E+00
          4   -1    0    0  501    0  0.00000000000E+00  0.00000000000E+00  0.73177746387E+02  0.73191522503E+02  0.14200000000E+01 0.  1.
         -4   -1    0    0    0  501 -0.00000000000E+00 -0.00000000000E+00 -0.98583519191E+00  0.17286616284E+01  0.14200000000E+01 0. -1.
        -13    1    1    2    0    0 -0.22549219521E+01 -0.97591624514E+01  0.36313685749E+02  0.37669893416E+02  0.10570000000E+00 0.  1.
         13    1    1    2    0    0  0.22549219521E+01  0.97591624514E+01  0.35878225446E+02  0.37250290716E+02  0.10570000000E+00 0. -1.
<mgrwt>
<rscale>  0 0.20034020E+02</rscale>
<asrwt>0</asrwt>
<pdfrwt beam="1">  1        4 0.11316316E-01 0.20034020E+02</pdfrwt>
<pdfrwt beam="2">  1       -4 0.20986714E-03 0.20034020E+02</pdfrwt>
<totfact> 0.10544434E+06</totfact>
</mgrwt>
</event>
<event>
 5    1  0.4710515E-007  0.2000586E+02  0.7818608E-02  0.1745212E+00
         -4   -1    0    0    0  501 -0.00000000000E+00  0.00000000000E+00  0.90891517989E+02  0.90902609656E+02  0.14200000000E+01 0.  1.
          4   -1    0    0  501    0  0.00000000000E+00 -0.00000000000E+00 -0.62705296398E+00  0.15522871576E+01  0.14200000000E+01 0. -1.
       1023    2    1    2    0    0  0.00000000000E+00  0.00000000000E+00  0.90264465025E+02  0.92454896814E+02  0.20005856608E+02 0.  0.
        -13    1    3    3    0    0  0.84224945996E+01 -0.53912943783E+01  0.46089784558E+02  0.47162314229E+02  0.10570000000E+00 0. -1.
         13    1    3    3    0    0 -0.84224945996E+01  0.53912943783E+01  0.44174680467E+02  0.45292582585E+02  0.10570000000E+00 0.  1.
<mgrwt>
<rscale>  0 0.20005857E+02</rscale>
<asrwt>0</asrwt>
<pdfrwt beam="2">  1        4 0.16849469E-03 0.20005857E+02</pdfrwt>
<pdfrwt beam="1">  1       -4 0.14055341E-01 0.20005857E+02</pdfrwt>
<totfact> 0.10015702E+06</totfact>
</mgrwt>
</event>
<event>
 5    1  0.4710515E-007  0.2000256E+02  0.7818608E-02  0.1745277E+00
         -4   -1    0    0    0  501 -0.00000000000E+00  0.00000000000E+00  0.29057905391E+02  0.29092580939E+02  0.14200000000E+01 0.  1.
          4   -1    0    0  501    0  0.00000000000E+00 -0.00000000000E+00 -0.32574429204E+01  0.35534960784E+01  0.14200000000E+01 0. -1.
       1023    2    1    2    0    0  0.00000000000E+00  0.00000000000E+00  0.25800462471E+02  0.32646077018E+02  0.20002561860E+02 0.  0.
        -13    1    3    3    0    0 -0.86273593306E+01 -0.50579675056E+01  0.12915139775E+02  0.16334820850E+02  0.10570000000E+00 0. -1.
         13    1    3    3    0    0  0.86273593306E+01  0.50579675056E+01  0.12885322695E+02  0.16311256168E+02  0.10570000000E+00 0.  1.
<mgrwt>
<rscale>  0 0.20002562E+02</rscale>
<asrwt>0</asrwt>
<pdfrwt beam="2">  1        4 0.52658573E-03 0.20002562E+02</pdfrwt>
<pdfrwt beam="1">  1       -4 0.44958877E-02 0.20002562E+02</pdfrwt>
<totfact> 0.12316394E+06</totfact>
</mgrwt>
</event>
<event>
 5    1  0.4801641E-007  0.2000198E+02  0.7818608E-02  0.1745289E+00
          4   -1    0    0  501    0  0.00000000000E+00  0.00000000000E+00  0.10020773551E+02  0.10120884476E+02  0.14200000000E+01 0. -1.
         -4   -1    0    0    0  501 -0.00000000000E+00 -0.00000000000E+00 -0.97799900038E+01  0.98825403856E+01  0.14200000000E+01 0.  1.
       1023    2    1    2    0    0  0.00000000000E+00  0.00000000000E+00  0.24078354773E+00  0.20003424861E+02  0.20001975639E+02 0.  0.
        -13    1    3    3    0    0  0.46688087149E+01  0.88435808520E+01  0.16384345783E+00  0.10002235464E+02  0.10570000000E+00 0.  1.
         13    1    3    3    0    0 -0.46688087149E+01 -0.88435808520E+01  0.76940089901E-01  0.10001189398E+02  0.10570000000E+00 0. -1.
<mgrwt>
<rscale>  0 0.20001976E+02</rscale>
<asrwt>0</asrwt>
<pdfrwt beam="1">  1        4 0.15572468E-02 0.20001976E+02</pdfrwt>
<pdfrwt beam="2">  1       -4 0.15202032E-02 0.20001976E+02</pdfrwt>
<totfact> 0.13011217E+06</totfact>
</mgrwt>
</event>
<event>
 5    1  0.5039978E-007  0.2000297E+02  0.7818608E-02  0.1745269E+00
         -4   -1    0    0    0  501 -0.00000000000E+00  0.00000000000E+00  0.11994667115E+02  0.12078428673E+02  0.14200000000E+01 0. -1.
          4   -1    0    0  501    0  0.00000000000E+00 -0.00000000000E+00 -0.81652491392E+01  0.82878039013E+01  0.14200000000E+01 0.  1.
       1023    2    1    2    0    0  0.00000000000E+00  0.00000000000E+00  0.38294179758E+01  0.20366232574E+02  0.20002974459E+02 0.  0.
        -13    1    3    3    0    0  0.22560373975E+01 -0.97426963089E+01  0.20098849689E+01  0.10201012018E+02  0.10570000000E+00 0. -1.
         13    1    3    3    0    0 -0.22560373975E+01  0.97426963089E+01  0.18195330069E+01  0.10165220556E+02  0.10570000000E+00 0.  1.
<mgrwt>
<rscale>  0 0.20002974E+02</rscale>
<asrwt>0</asrwt>
<pdfrwt beam="2">  1        4 0.12720627E-02 0.20002974E+02</pdfrwt>
<pdfrwt beam="1">  1       -4 0.18612039E-02 0.20002974E+02</pdfrwt>
<totfact> 0.12988310E+06</totfact>
</mgrwt>
</event>
<event>
 5    1  0.4710515E-007  0.2001004E+02  0.7818608E-02  0.1745129E+00
         -4   -1    0    0    0  501 -0.00000000000E+00  0.00000000000E+00  0.65955302822E+01  0.67466598924E+01  0.14200000000E+01 0.  1.
          4   -1    0    0  501    0  0.00000000000E+00 -0.00000000000E+00 -0.14819637901E+02  0.14887513812E+02  0.14200000000E+01 0. -1.
       1023    2    1    2    0    0  0.00000000000E+00  0.00000000000E+00 -0.82241076185E+01  0.21634173705E+02  0.20010035626E+02 0.  0.
        -13    1    3    3    0    0  0.89619753824E+01 -0.44454300917E+01 -0.42220860141E+01  0.10858914967E+02  0.10570000000E+00 0. -1.
         13    1    3    3    0    0 -0.89619753824E+01  0.44454300917E+01 -0.40020216044E+01  0.10775258738E+02  0.10570000000E+00 0.  1.
<mgrwt>
<rscale>  0 0.20010036E+02</rscale>
<asrwt>0</asrwt>
<pdfrwt beam="2">  1        4 0.22967909E-02 0.20010036E+02</pdfrwt>
<pdfrwt beam="1">  1       -4 0.10315436E-02 0.20010036E+02</pdfrwt>
<totfact> 0.12904310E+06</totfact>
</mgrwt>
</event>
<event>
 5    1  0.4710515E-007  0.2000138E+02  0.7818608E-02  0.1745301E+00
         -4   -1    0    0    0  501 -0.00000000000E+00  0.00000000000E+00  0.58240480858E+01  0.59946589650E+01  0.14200000000E+01 0.  1.
          4   -1    0    0  501    0  0.00000000000E+00 -0.00000000000E+00 -0.16723523577E+02  0.16783701643E+02  0.14200000000E+01 0. -1.
       1023    2    1    2    0    0  0.00000000000E+00  0.00000000000E+00 -0.10899475491E+02  0.22778360608E+02  0.20001378602E+02 0.  0.
        -13    1    3    3    0    0  0.49651190778E+01  0.86803496586E+01 -0.54971927374E+01  0.11411887580E+02  0.10570000000E+00 0. -1.
         13    1    3    3    0    0 -0.49651190778E+01 -0.86803496586E+01 -0.54022827539E+01  0.11366473028E+02  0.10570000000E+00 0.  1.
<mgrwt>
<rscale>  0 0.20001379E+02</rscale>
<asrwt>0</asrwt>
<pdfrwt beam="2">  1        4 0.25906028E-02 0.20001379E+02</pdfrwt>
<pdfrwt beam="1">  1       -4 0.91376040E-03 0.20001379E+02</pdfrwt>
<totfact> 0.12849476E+06</totfact>
</mgrwt>
</event>
<event>
 5    1  0.4710515E-007  0.2000479E+02  0.7818608E-02  0.1745233E+00
          4   -1    0    0  501    0  0.00000000000E+00  0.00000000000E+00  0.19878083696E+02  0.19928738330E+02  0.14200000000E+01 0.  1.
         -4   -1    0    0    0  501 -0.00000000000E+00 -0.00000000000E+00 -0.48745785682E+01  0.50771957041E+01  0.14200000000E+01 0. -1.
       1023    2    1    2    0    0  0.00000000000E+00  0.00000000000E+00  0.15003505127E+02  0.25005934034E+02  0.20004788696E+02 0.  0.
        -13    1    3    3    0    0  0.65625405962E+01  0.75474910986E+01  0.75915372636E+01  0.12556837638E+02  0.10570000000E+00 0.  1.
         13    1    3    3    0    0 -0.65625405962E+01 -0.75474910986E+01  0.74119678639E+01  0.12449096395E+02  0.10570000000E+00 0. -1.
<mgrwt>
<rscale>  0 0.20004789E+02</rscale>
<asrwt>0</asrwt>
<pdfrwt beam="1">  1        4 0.30776492E-02 0.20004789E+02</pdfrwt>
<pdfrwt beam="2">  1       -4 0.76941761E-03 0.20004789E+02</pdfrwt>
<totfact> 0.12719062E+06</totfact>
</mgrwt>
</event>
<event>
 5    1  0.4710515E-007  0.2000308E+02  0.7818608E-02  0.1745267E+00
         -4   -1    0    0    0  501 -0.00000000000E+00  0.00000000000E+00  0.69567647918E+02  0.69582138777E+02  0.14200000000E+01 0. -1.
          4   -1    0    0  501    0  0.00000000000E+00 -0.00000000000E+00 -0.10690174523E+01  0.17774133771E+01  0.14200000000E+01 0.  1.
       1023    2    1    2    0    0  0.00000000000E+00  0.00000000000E+00  0.68498630466E+02  0.71359552154E+02  0.20003082463E+02 0.  0.
        -13    1    3    3    0    0  0.13951038186E+01  0.99028216251E+01  0.34557515206E+02  0.35975619807E+02  0.10570000000E+00 0.  1.
         13    1    3    3    0    0 -0.13951038186E+01 -0.99028216251E+01  0.33941115260E+02  0.35383932347E+02  0.10570000000E+00 0. -1.
<mgrwt>
<rscale>  0 0.20003082E+02</rscale>
<asrwt>0</asrwt>
<pdfrwt beam="2">  1        4 0.22007084E-03 0.20003082E+02</pdfrwt>
<pdfrwt beam="1">  1       -4 0.10758324E-01 0.20003082E+02</pdfrwt>
<totfact> 0.10699755E+06</totfact>
</mgrwt>
</event>
<event>
 5    1  0.4710515E-007  0.2000138E+02  0.7818608E-02  0.1745301E+00
         -4   -1    0    0    0  501 -0.00000000000E+00  0.00000000000E+00  0.12017456348E+01  0.18602668009E+01  0.14200000000E+01 0.  1.
          4   -1    0    0  501    0  0.00000000000E+00 -0.00000000000E+00 -0.64657522329E+02  0.64673113376E+02  0.14200000000E+01 0. -1.
       1023    2    1    2    0    0  0.00000000000E+00  0.00000000000E+00 -0.63455776695E+02  0.66533380177E+02  0.20001377000E+02 0.  0.
        -13    1    3    3    0    0 -0.81276189845E+01 -0.58261752120E+01 -0.31759449399E+02  0.33296791235E+02  0.10570000000E+00 0. -1.
         13    1    3    3    0    0  0.81276189845E+01  0.58261752120E+01 -0.31696327296E+02  0.33236588942E+02  0.10570000000E+00 0.  1.
<mgrwt>
<rscale>  0 0.20001377E+02</rscale>
<asrwt>0</asrwt>
<pdfrwt beam="2">  1        4 0.99991638E-02 0.20001377E+02</pdfrwt>
<pdfrwt beam="1">  1       -4 0.23673878E-03 0.20001377E+02</pdfrwt>
<totfact> 0.10873419E+06</totfact>
</mgrwt>
</event>
<event>
 4    1  0.4710515E-007  0.2003889E+02  0.7818608E-02  0.1744556E+00
          4   -1    0    0  501    0  0.00000000000E+00  0.00000000000E+00  0.51709098216E+02  0.51728592078E+02  0.14200000000E+01 0. -1.
         -4   -1    0    0    0  501 -0.00000000000E+00 -0.00000000000E+00 -0.16591695312E+01  0.21838597788E+01  0.14200000000E+01 0.  1.
        -13    1    1    2    0    0 -0.80612806540E+01 -0.59428480814E+01  0.24281255548E+02  0.26265799675E+02  0.10570000000E+00 0. -1.
         13    1    1    2    0    0  0.80612806540E+01  0.59428480814E+01  0.25768673137E+02  0.27646652181E+02  0.10570000000E+00 0.  1.
<mgrwt>
<rscale>  0 0.20038890E+02</rscale>
<asrwt>0</asrwt>
<pdfrwt beam="1">  1        4 0.79971063E-02 0.20038890E+02</pdfrwt>
<pdfrwt beam="2">  1       -4 0.29711716E-03 0.20038890E+02</pdfrwt>
<totfact> 0.11314353E+06</totfact>
</mgrwt>
</event>
<event>
 5    1  0.4710515E-007  0.2000600E+02  0.7818608E-02  0.1745209E+00
         -4   -1    0    0    0  501 -0.00000000000E+00  0.00000000000E+00  0.48477153255E+01  0.50514100880E+01  0.14200000000E+01 0. -1.
          4   -1    0    0  501    0  0.00000000000E+00 -0.00000000000E+00 -0.19986522408E+02  0.20036902904E+02  0.14200000000E+01 0.  1.
       1023    2    1    2    0    0  0.00000000000E+00  0.00000000000E+00 -0.15138807083E+02  0.25088312992E+02  0.20005998323E+02 0.  0.
        -13    1    3    3    0    0 -0.59295472102E+01  0.80533803924E+01 -0.73438371696E+01  0.12408045081E+02  0.10570000000E+00 0.  1.
         13    1    3    3    0    0  0.59295472102E+01 -0.80533803924E+01 -0.77949699132E+01  0.12680267911E+02  0.10570000000E+00 0. -1.
<mgrwt>
<rscale>  0 0.20005998E+02</rscale>
<asrwt>0</asrwt>
<pdfrwt beam="2">  1        4 0.30943938E-02 0.20005998E+02</pdfrwt>
<pdfrwt beam="1">  1       -4 0.76534662E-03 0.20005998E+02</pdfrwt>
<totfact> 0.12712905E+06</totfact>
</mgrwt>
</event>
<event>
 5    1  0.4710515E-007  0.2000974E+02  0.7818608E-02  0.1745134E+00
          4   -1    0    0  501    0  0.00000000000E+00  0.00000000000E+00  0.34193527077E+01  0.37024819972E+01  0.14200000000E+01 0.  1.
         -4   -1    0    0    0  501 -0.00000000000E+00 -0.00000000000E+00 -0.27808044739E+02  0.27844276830E+02  0.14200000000E+01 0. -1.
       1023    2    1    2    0    0  0.00000000000E+00  0.00000000000E+00 -0.24388692031E+02  0.31546758827E+02  0.20009739966E+02 0.  0.
        -13    1    3    3    0    0  0.21716366357E+01 -0.97642562710E+01 -0.12465335856E+02  0.15982880738E+02  0.10570000000E+00 0. -1.
         13    1    3    3    0    0 -0.21716366357E+01  0.97642562710E+01 -0.11923356175E+02  0.15563878089E+02  0.10570000000E+00 0.  1.
<mgrwt>
<rscale>  0 0.20009740E+02</rscale>
<asrwt>0</asrwt>
<pdfrwt beam="1">  1        4 0.55062054E-03 0.20009740E+02</pdfrwt>
<pdfrwt beam="2">  1       -4 0.43027269E-02 0.20009740E+02</pdfrwt>
<totfact> 0.12363447E+06</totfact>
</mgrwt>
</event>
<event>
 5    1  0.4710515E-007  0.2000551E+02  0.7818608E-02  0.1745219E+00
         -4   -1    0    0    0  501 -0.00000000000E+00  0.00000000000E+00  0.59714271975E+02  0.59731153325E+02  0.14200000000E+01 0.  1.
          4   -1    0    0  501    0  0.00000000000E+00 -0.00000000000E+00 -0.13544358547E+01  0.19623701191E+01  0.14200000000E+01 0. -1.
       1023    2    1    2    0    0  0.00000000000E+00  0.00000000000E+00  0.58359836120E+02  0.61693523444E+02  0.20005508315E+02 0.  0.
        -13    1    3    3    0    0 -0.16794790607E+01 -0.98594149266E+01  0.28799647923E+02  0.30487039962E+02  0.10570000000E+00 0. -1.
         13    1    3    3    0    0  0.16794790607E+01  0.98594149266E+01  0.29560188197E+02  0.31206483482E+02  0.10570000000E+00 0.  1.
<mgrwt>
<rscale>  0 0.20005508E+02</rscale>
<asrwt>0</asrwt>
<pdfrwt beam="2">  1        4 0.25643748E-03 0.20005508E+02</pdfrwt>
<pdfrwt beam="1">  1       -4 0.92348740E-02 0.20005508E+02</pdfrwt>
<totfact> 0.11048190E+06</totfact>
</mgrwt>
</event>
<event>
 5    1  0.4710515E-007  0.2000270E+02  0.7818608E-02  0.1745274E+00
         -4   -1    0    0    0  501 -0.00000000000E+00  0.00000000000E+00  0.56422780875E+00  0.15279898626E+01  0.14200000000E+01 0.  1.
          4   -1    0    0  501    0  0.00000000000E+00 -0.00000000000E+00 -0.94646578903E+02  0.94657230564E+02  0.14200000000E+01 0. -1.
       1023    2    1    2    0    0  0.00000000000E+00  0.00000000000E+00 -0.94082351094E+02  0.96185220426E+02  0.20002695845E+02 0.  0.
        -13    1    3    3    0    0  0.99020425235E+01 -0.13982057744E+01 -0.47530669122E+02  0.48571402134E+02  0.10570000000E+00 0.  1.
         13    1    3    3    0    0 -0.99020425235E+01  0.13982057744E+01 -0.46551681972E+02  0.47613818293E+02  0.10570000000E+00 0. -1.
<mgrwt>
<rscale>  0 0.20002696E+02</rscale>
<asrwt>0</asrwt>
<pdfrwt beam="2">  1        4 0.14635960E-01 0.20002696E+02</pdfrwt>
<pdfrwt beam="1">  1       -4 0.16175925E-03 0.20002696E+02</pdfrwt>
<totfact> 0.99085848E+05</totfact>
</mgrwt>
</event>
<event>
 5    1  0.4710515E-007  0.2000159E+02  0.7818608E-02  0.1745297E+00
          4   -1    0    0  501    0  0.00000000000E+00  0.00000000000E+00  0.95781876145E+02  0.95792401566E+02  0.14200000000E+01 0. -1.
         -4   -1    0    0    0  501 -0.00000000000E+00 -0.00000000000E+00 -0.54587943711E+00  0.15213100801E+01  0.14200000000E+01 0.  1.
       1023    2    1    2    0    0  0.00000000000E+00  0.00000000000E+00  0.95235996707E+02  0.97313711646E+02  0.20001585074E+02 0.  0.
        -13    1    3    3    0    0  0.70102856827E+01  0.71313723792E+01  0.47306409666E+02  0.48351919769E+02  0.10570000000E+00 0. -1.
         13    1    3    3    0    0 -0.70102856827E+01 -0.71313723792E+01  0.47929587042E+02  0.48961791877E+02  0.10570000000E+00 0.  1.
<mgrwt>
<rscale>  0 0.20001585E+02</rscale>
<asrwt>0</asrwt>
<pdfrwt beam="1">  1        4 0.14811520E-01 0.20001585E+02</pdfrwt>
<pdfrwt beam="2">  1       -4 0.15982418E-03 0.20001585E+02</pdfrwt>
<totfact> 0.98768563E+05</totfact>
</mgrwt>
</event>
<event>
 5    1  0.4978073E-007  0.2000635E+02  0.7818608E-02  0.1745202E+00
         -4   -1    0    0    0  501 -0.00000000000E+00  0.00000000000E+00  0.12445172462E+02  0.12525921826E+02  0.14200000000E+01 0. -1.
          4   -1    0    0  501    0  0.00000000000E+00 -0.00000000000E+00 -0.78698518539E+01  0.79969349255E+01  0.14200000000E+01 0.  1.
       1023    2    1    2    0    0  0.00000000000E+00  0.00000000000E+00  0.45753206076E+01  0.20522856752E+02  0.20006351256E+02 0.  0.
        -13    1    3    3    0    0 -0.27173628153E+01 -0.96247527540E+01  0.21029451062E+01  0.10220248375E+02  0.10570000000E+00 0.  1.
         13    1    3    3    0    0  0.27173628153E+01  0.96247527540E+01  0.24723755014E+01  0.10302608376E+02  0.10570000000E+00 0. -1.
<mgrwt>
<rscale>  0 0.20006351E+02</rscale>
<asrwt>0</asrwt>
<pdfrwt beam="2">  1        4 0.12267336E-02 0.20006351E+02</pdfrwt>
<pdfrwt beam="1">  1       -4 0.19306290E-02 0.20006351E+02</pdfrwt>
<totfact> 0.12974558E+06</totfact>
</mgrwt>
</event>
<event>
 5    1  0.4710515E-007  0.2000359E+02  0.7818608E-02  0.1745257E+00
         -4   -1    0    0    0  501 -0.00000000000E+00  0.00000000000E+00  0.41745747143E+01  0.44094754842E+01  0.14200000000E+01 0. -1.
          4   -1    0    0  501    0  0.00000000000E+00 -0.00000000000E+00 -0.23050053814E+02  0.23093751987E+02  0.14200000000E+01 0.  1.
       1023    2    1    2    0    0  0.00000000000E+00  0.00000000000E+00 -0.18875479100E+02  0.27503227471E+02  0.20003594929E+02 0.  0.
        -13    1    3    3    0    0 -0.88433526497E+01 -0.46691172902E+01 -0.92470390189E+01  0.13620735864E+02  0.10570000000E+00 0.  1.
         13    1    3    3    0    0  0.88433526497E+01  0.46691172902E+01 -0.96284400812E+01  0.13882491608E+02  0.10570000000E+00 0. -1.
<mgrwt>
<rscale>  0 0.20003595E+02</rscale>
<asrwt>0</asrwt>
<pdfrwt beam="2">  1        4 0.35675927E-02 0.20003595E+02</pdfrwt>
<pdfrwt beam="1">  1       -4 0.66367297E-03 0.20003595E+02</pdfrwt>
<totfact> 0.12583659E+06</totfact>
</mgrwt>
</event>
<event>
 5    1  0.4789166E-007  0.2000480E+02  0.7818608E-02  0.1745233E+00
          4   -1    0    0  501    0  0.00000000000E+00  0.00000000000E+00  0.71700249025E+01  0.73092856766E+01  0.14200000000E+01 0.  1.
         -4   -1    0    0    0  501 -0.00000000000E+00 -0.00000000000E+00 -0.13642977703E+02  0.13716677462E+02  0.14200000000E+01 0. -1.
       1023    2    1    2    0    0  0.00000000000E+00  0.00000000000E+00 -0.64729528003E+01  0.21025963139E+02  0.20004799623E+02 0.  0.
        -13    1    3    3    0    0 -0.75919214397E+01 -0.65101853319E+01 -0.30992543278E+01  0.10470737036E+02  0.10570000000E+00 0. -1.
         13    1    3    3    0    0  0.75919214397E+01  0.65101853319E+01 -0.33736984725E+01  0.10555226103E+02  0.10570000000E+00 0.  1.
<mgrwt>
<rscale>  0 0.20004800E+02</rscale>
<asrwt>0</asrwt>
<pdfrwt beam="1">  1        4 0.11194623E-02 0.20004800E+02</pdfrwt>
<pdfrwt beam="2">  1       -4 0.21153012E-02 0.20004800E+02</pdfrwt>
<totfact> 0.12946878E+06</totfact>
</mgrwt>
</event>
<event>
 5    1  0.4710515E-007  0.2000315E+02  0.7818608E-02  0.1745265E+00
         -4   -1    0    0    0  501 -0.00000000000E+00  0.00000000000E+00  0.39563935304E+01  0.42035044626E+01  0.14200000000E+01 0.  1.
          4   -1    0    0  501    0  0.00000000000E+00 -0.00000000000E+00 -0.24249320721E+02  0.24290861562E+02  0.14200000000E+01 0. -1.
       1023    2    1    2    0    0  0.00000000000E+00  0.00000000000E+00 -0.20292927191E+02  0.28494366025E+02  0.20003149782E+02 0.  0.
        -13    1    3    3    0    0  0.63429160252E+01 -0.77311075393E+01 -0.99568382362E+01  0.14112136891E+02  0.10570000000E+00 0.  1.
         13    1    3    3    0    0 -0.63429160252E+01  0.77311075393E+01 -0.10336088955E+02  0.14382229134E+02  0.10570000000E+00 0. -1.
<mgrwt>
<rscale>  0 0.20003150E+02</rscale>
<asrwt>0</asrwt>
<pdfrwt beam="2">  1        4 0.37528686E-02 0.20003150E+02</pdfrwt>
<pdfrwt beam="1">  1       -4 0.63087993E-03 0.20003150E+02</pdfrwt>
<totfact> 0.12531127E+06</totfact>
</mgrwt>
</event>
<event>
 5    1  0.4710515E-007  0.2000310E+02  0.7818608E-02  0.1745266E+00
         -4   -1    0    0    0  501 -0.00000000000E+00  0.00000000000E+00  0.37217202576E+00  0.14679618581E+01  0.14200000000E+01 0.  1.
          4   -1    0    0  501    0  0.00000000000E+00 -0.00000000000E+00 -0.10761816459E+03  0.10762753249E+03  0.14200000000E+01 0. -1.
       1023    2    1    2    0    0  0.00000000000E+00  0.00000000000E+00 -0.10724599257E+03  0.10909549435E+03  0.20003098905E+02 0.  0.
        -13    1    3    3    0    0 -0.99458392907E+01  0.10398068334E+01 -0.52873174885E+02  0.53810637539E+02  0.10570000000E+00 0. -1.
         13    1    3    3    0    0  0.99458392907E+01 -0.10398068334E+01 -0.54372817683E+02  0.55284856812E+02  0.10570000000E+00 0.  1.
<mgrwt>
<rscale>  0 0.20003099E+02</rscale>
<asrwt>0</asrwt>
<pdfrwt beam="2">  1        4 0.16641643E-01 0.20003099E+02</pdfrwt>
<pdfrwt beam="1">  1       -4 0.14226945E-03 0.20003099E+02</pdfrwt>
<totfact> 0.95466147E+05</totfact>
</mgrwt>
</event>
<event>
 4    1  0.4710515E-007  0.2004218E+02  0.7818608E-02  0.1744491E+00
         -4   -1    0    0    0  501 -0.00000000000E+00  0.00000000000E+00  0.30826113677E+01  0.33939494464E+01  0.14200000000E+01 0. -1.
          4   -1    0    0  501    0  0.00000000000E+00 -0.00000000000E+00 -0.30682431550E+02  0.30715273168E+02  0.14200000000E+01 0.  1.
        -13    1    1    2    0    0  0.42242908595E+01 -0.90695518437E+01 -0.12852849486E+02  0.16288287704E+02  0.10570000000E+00 0.  1.
         13    1    1    2    0    0 -0.42242908595E+01  0.90695518437E+01 -0.14746970696E+02  0.17820934911E+02  0.10570000000E+00 0. -1.
<mgrwt>
<rscale>  0 0.20042180E+02</rscale>
<asrwt>0</asrwt>
<pdfrwt beam="2">  1        4 0.47468492E-02 0.20042180E+02</pdfrwt>
<pdfrwt beam="1">  1       -4 0.50072329E-03 0.20042180E+02</pdfrwt>
<totfact> 0.12193867E+06</totfact>
</mgrwt>
</event>
<event>
 5    1  0.4710515E-007  0.2000152E+02  0.7818608E-02  0.1745298E+00
         -4   -1    0    0    0  501 -0.00000000000E+00  0.00000000000E+00  0.84224443276E+00  0.16509923333E+01  0.14200000000E+01 0. -1.
          4   -1    0    0  501    0  0.00000000000E+00 -0.00000000000E+00 -0.79412030511E+02  0.79424725306E+02  0.14200000000E+01 0.  1.
       1023    2    1    2    0    0  0.00000000000E+00  0.00000000000E+00 -0.78569786078E+02  0.81075717639E+02  0.20001517600E+02 0.  0.
        -13    1    3    3    0    0  0.97939162000E+01  0.20206950061E+01 -0.39289410582E+02  0.40542236732E+02  0.10570000000E+00 0.  1.
         13    1    3    3    0    0 -0.97939162000E+01 -0.20206950061E+01 -0.39280375496E+02  0.40533480907E+02  0.10570000000E+00 0. -1.
<mgrwt>
<rscale>  0 0.20001518E+02</rscale>
<asrwt>0</asrwt>
<pdfrwt beam="2">  1        4 0.12280419E-01 0.20001518E+02</pdfrwt>
<pdfrwt beam="1">  1       -4 0.19276403E-03 0.20001518E+02</pdfrwt>
<totfact> 0.10374564E+06</totfact>
</mgrwt>
</event>
<event>
 4    1  0.4710515E-007  0.2010900E+02  0.7818608E-02  0.1743169E+00
         -4   -1    0    0    0  501 -0.00000000000E+00  0.00000000000E+00  0.22119643889E+02  0.22165176421E+02  0.14200000000E+01 0. -1.
          4   -1    0    0  501    0  0.00000000000E+00 -0.00000000000E+00 -0.44084062260E+01  0.46314625609E+01  0.14200000000E+01 0.  1.
        -13    1    1    2    0    0  0.45727375042E+01  0.88995598421E+01  0.75433836023E+01  0.12530997659E+02  0.10570000000E+00 0. -1.
         13    1    1    2    0    0 -0.45727375042E+01 -0.88995598421E+01  0.10167854060E+02  0.14265641323E+02  0.10570000000E+00 0.  1.
<mgrwt>
<rscale>  0 0.20109001E+02</rscale>
<asrwt>0</asrwt>
<pdfrwt beam="2">  1        4 0.69887703E-03 0.20109001E+02</pdfrwt>
<pdfrwt beam="1">  1       -4 0.34236828E-02 0.20109001E+02</pdfrwt>
<totfact> 0.12487580E+06</totfact>
</mgrwt>
</event>
<event>
 5    1  0.4710515E-007  0.2000470E+02  0.7818608E-02  0.1745235E+00
         -4   -1    0    0    0  501 -0.00000000000E+00  0.00000000000E+00  0.65539939783E+02  0.65555320964E+02  0.14200000000E+01 0. -1.
          4   -1    0    0  501    0  0.00000000000E+00 -0.00000000000E+00 -0.11772638134E+01  0.18445460380E+01  0.14200000000E+01 0.  1.
       1023    2    1    2    0    0  0.00000000000E+00  0.00000000000E+00  0.64362675970E+02  0.67399867002E+02  0.20004699797E+02 0.  0.
        -13    1    3    3    0    0 -0.95118540467E+01 -0.30899890804E+01  0.32556986322E+02  0.34058654271E+02  0.10570000000E+00 0.  1.
         13    1    3    3    0    0  0.95118540467E+01  0.30899890804E+01  0.31805689648E+02  0.33341212731E+02  0.10570000000E+00 0. -1.
<mgrwt>
<rscale>  0 0.20004700E+02</rscale>
<asrwt>0</asrwt>
<pdfrwt beam="2">  1        4 0.23363016E-03 0.20004700E+02</pdfrwt>
<pdfrwt beam="1">  1       -4 0.10135577E-01 0.20004700E+02</pdfrwt>
<totfact> 0.10838453E+06</totfact>
</mgrwt>
</event>
<event>
 5    1  0.4710515E-007  0.2000273E+02  0.7818608E-02  0.1745274E+00
          4   -1    0    0  501    0  0.00000000000E+00  0.00000000000E+00  0.28389976763E+02  0.28425467113E+02  0.14200000000E+01 0. -1.
         -4   -1    0    0    0  501 -0.00000000000E+00 -0.00000000000E+00 -0.33409242035E+01  0.36301755513E+01  0.14200000000E+01 0.  1.
       1023    2    1    2    0    0  0.00000000000E+00  0.00000000000E+00  0.25049052560E+02  0.32055642665E+02  0.20002729626E+02 0.  0.
        -13    1    3    3    0    0  0.98054420223E+01 -0.19665064233E+01  0.12601129360E+02  0.16087680827E+02  0.10570000000E+00 0. -1.
         13    1    3    3    0    0 -0.98054420223E+01  0.19665064233E+01  0.12447923200E+02  0.15967961837E+02  0.10570000000E+00 0.  1.
<mgrwt>
<rscale>  0 0.20002730E+02</rscale>
<asrwt>0</asrwt>
<pdfrwt beam="1">  1        4 0.43926688E-02 0.20002730E+02</pdfrwt>
<pdfrwt beam="2">  1       -4 0.53896847E-03 0.20002730E+02</pdfrwt>
<totfact> 0.12346202E+06</totfact>
</mgrwt>
</event>
<event>
 4    1  0.4710515E-007  0.2001355E+02  0.7818608E-02  0.1745059E+00
         -4   -1    0    0    0  501 -0.00000000000E+00  0.00000000000E+00  0.60940928511E+01  0.62573450982E+01  0.14200000000E+01 0. -1.
          4   -1    0    0  501    0  0.00000000000E+00 -0.00000000000E+00 -0.16019320758E+02  0.16082134110E+02  0.14200000000E+01 0.  1.
        -13    1    1    2    0    0 -0.48642169166E+01  0.87441554667E+01 -0.48964640440E+01  0.11140349800E+02  0.10570000000E+00 0.  1.
         13    1    1    2    0    0  0.48642169166E+01 -0.87441554667E+01 -0.50287638629E+01  0.11199129409E+02  0.10570000000E+00 0. -1.
<mgrwt>
<rscale>  0 0.20013550E+02</rscale>
<asrwt>0</asrwt>
<pdfrwt beam="2">  1        4 0.24819005E-02 0.20013550E+02</pdfrwt>
<pdfrwt beam="1">  1       -4 0.95494241E-03 0.20013550E+02</pdfrwt>
<totfact> 0.12858796E+06</totfact>
</mgrwt>
</event>
<event>
 5    1  0.4710515E-007  0.2000131E+02  0.7818608E-02  0.1745302E+00
          4   -1    0    0  501    0  0.00000000000E+00  0.00000000000E+00  0.39477725270E+02  0.39503255467E+02  0.14200000000E+01 0.  1.
         -4   -1    0    0    0  501 -0.00000000000E+00 -0.00000000000E+00 -0.23059133587E+01  0.27080687617E+01  0.14200000000E+01 0. -1.
       1023    2    1    2    0    0  0.00000000000E+00  0.00000000000E+00  0.37171811912E+02  0.42211324229E+02  0.20001307267E+02 0.  0.
        -13    1    3    3    0    0  0.75957913358E+01 -0.65041978111E+01  0.18660979729E+02  0.21171773004E+02  0.10570000000E+00 0. -1.
         13    1    3    3    0    0 -0.75957913358E+01  0.65041978111E+01  0.18510832182E+02  0.21039551225E+02  0.10570000000E+00 0.  1.
<mgrwt>
<rscale>  0 0.20001307E+02</rscale>
<asrwt>0</asrwt>
<pdfrwt beam="1">  1        4 0.61063953E-02 0.20001307E+02</pdfrwt>
<pdfrwt beam="2">  1       -4 0.38765478E-03 0.20001307E+02</pdfrwt>
<totfact> 0.11859341E+06</totfact>
</mgrwt>
</event>
<event>
 4    1  0.4710515E-007  0.2001267E+02  0.7818608E-02  0.1745076E+00
          4   -1    0    0  501    0  0.00000000000E+00  0.00000000000E+00  0.91839994689E+01  0.92931289803E+01  0.14200000000E+01 0. -1.
         -4   -1    0    0    0  501 -0.00000000000E+00 -0.00000000000E+00 -0.10681518799E+02  0.10775492743E+02  0.14200000000E+01 0.  1.
        -13    1    1    2    0    0  0.30150085092E+01 -0.95398425081E+01 -0.61913283307E+00  0.10024638115E+02  0.10570000000E+00 0. -1.
         13    1    1    2    0    0 -0.30150085092E+01  0.95398425081E+01 -0.87838649716E+00  0.10043983608E+02  0.10570000000E+00 0.  1.
<mgrwt>
<rscale>  0 0.20012671E+02</rscale>
<asrwt>0</asrwt>
<pdfrwt beam="1">  1        4 0.14285463E-02 0.20012671E+02</pdfrwt>
<pdfrwt beam="2">  1       -4 0.16589339E-02 0.20012671E+02</pdfrwt>
<totfact> 0.12993157E+06</totfact>
</mgrwt>
</event>
<event>
 5    1  0.4710515E-007  0.2000196E+02  0.7818608E-02  0.1745289E+00
         -4   -1    0    0    0  501 -0.00000000000E+00  0.00000000000E+00  0.98509420276E+02  0.98519654298E+02  0.14200000000E+01 0. -1.
          4   -1    0    0  501    0  0.00000000000E+00 -0.00000000000E+00 -0.50343417304E+00  0.15066007987E+01  0.14200000000E+01 0.  1.
       1023    2    1    2    0    0  0.00000000000E+00  0.00000000000E+00  0.98005986103E+02  0.10002625510E+03  0.20001959823E+02 0.  0.
        -13    1    3    3    0    0  0.37137834074E+01 -0.92848384181E+01  0.48555285206E+02  0.49574462231E+02  0.10570000000E+00 0.  1.
         13    1    3    3    0    0 -0.37137834074E+01  0.92848384181E+01  0.49450700897E+02  0.50451792866E+02  0.10570000000E+00 0. -1.
<mgrwt>
<rscale>  0 0.20001960E+02</rscale>
<asrwt>0</asrwt>
<pdfrwt beam="2">  1        4 0.15540531E-03 0.20001960E+02</pdfrwt>
<pdfrwt beam="1">  1       -4 0.15233249E-01 0.20001960E+02</pdfrwt>
<totfact> 0.97985855E+05</totfact>
</mgrwt>
</event>
<event>
 5    1  0.4710515E-007  0.2000151E+02  0.7818608E-02  0.1745298E+00
          4   -1    0    0  501    0  0.00000000000E+00  0.00000000000E+00  0.19128666611E+01  0.23823221577E+01  0.14200000000E+01 0. -1.
         -4   -1    0    0    0  501 -0.00000000000E+00 -0.00000000000E+00 -0.46089180525E+02  0.46111050319E+02  0.14200000000E+01 0.  1.
       1023    2    1    2    0    0  0.00000000000E+00  0.00000000000E+00 -0.44176313864E+02  0.48493372477E+02  0.20001511631E+02 0.  0.
        -13    1    3    3    0    0  0.97274841334E+01  0.23190495688E+01 -0.21979570311E+02  0.24147766398E+02  0.10570000000E+00 0. -1.
         13    1    3    3    0    0 -0.97274841334E+01 -0.23190495688E+01 -0.22196743554E+02  0.24345606079E+02  0.10570000000E+00 0.  1.
<mgrwt>
<rscale>  0 0.20001512E+02</rscale>
<asrwt>0</asrwt>
<pdfrwt beam="1">  1        4 0.33208147E-03 0.20001512E+02</pdfrwt>
<pdfrwt beam="2">  1       -4 0.71284367E-02 0.20001512E+02</pdfrwt>
<totfact> 0.11582283E+06</totfact>
</mgrwt>
</event>
<event>
 5    1  0.4710515E-007  0.2000736E+02  0.7818608E-02  0.1745182E+00
         -4   -1    0    0    0  501 -0.00000000000E+00  0.00000000000E+00  0.31006927185E+02  0.31039425469E+02  0.14200000000E+01 0. -1.
          4   -1    0    0  501    0  0.00000000000E+00 -0.00000000000E+00 -0.30353214318E+01  0.33510559820E+01  0.14200000000E+01 0.  1.
       1023    2    1    2    0    0  0.00000000000E+00  0.00000000000E+00  0.27971605753E+02  0.34390481451E+02  0.20007360796E+02 0.  0.
        -13    1    3    3    0    0  0.37546338827E+01 -0.92717395321E+01  0.13978217790E+02  0.17189071372E+02  0.10570000000E+00 0. -1.
         13    1    3    3    0    0 -0.37546338827E+01  0.92717395321E+01  0.13993387962E+02  0.17201410079E+02  0.10570000000E+00 0.  1.
<mgrwt>
<rscale>  0 0.20007361E+02</rscale>
<asrwt>0</asrwt>
<pdfrwt beam="2">  1        4 0.49375968E-03 0.20007361E+02</pdfrwt>
<pdfrwt beam="1">  1       -4 0.47970835E-02 0.20007361E+02</pdfrwt>
<totfact> 0.12222999E+06</totfact>
</mgrwt>
</event>
<event>
 5    1  0.4710515E-007  0.2000191E+02  0.7818608E-02  0.1745290E+00
          4   -1    0    0  501    0  0.00000000000E+00  0.00000000000E+00  0.22149751216E+02  0.22195221984E+02  0.14200000000E+01 0. -1.
         -4   -1    0    0    0  501 -0.00000000000E+00 -0.00000000000E+00 -0.43524795448E+01  0.45782614809E+01  0.14200000000E+01 0.  1.
       1023    2    1    2    0    0  0.00000000000E+00  0.00000000000E+00  0.17797271671E+02  0.26773483465E+02  0.20001913356E+02 0.  0.
        -13    1    3    3    0    0 -0.10289738576E+01  0.99472854066E+01  0.88635304502E+01  0.13363405954E+02  0.10570000000E+00 0.  1.
         13    1    3    3    0    0  0.10289738576E+01 -0.99472854066E+01  0.89337412210E+01  0.13410077511E+02  0.10570000000E+00 0. -1.
<mgrwt>
<rscale>  0 0.20001913E+02</rscale>
<asrwt>0</asrwt>
<pdfrwt beam="1">  1        4 0.34285196E-02 0.20001913E+02</pdfrwt>
<pdfrwt beam="2">  1       -4 0.69047784E-03 0.20001913E+02</pdfrwt>
<totfact> 0.12625357E+06</totfact>
</mgrwt>
</event>
<event>
 4    1  0.4710515E-007  0.2003456E+02  0.7818608E-02  0.1744642E+00
          4   -1    0    0  501    0  0.00000000000E+00  0.00000000000E+00  0.14110380900E+02  0.14181651848E+02  0.14200000000E+01 0.  1.
         -4   -1    0    0    0  501 -0.00000000000E+00 -0.00000000000E+00 -0.69503394481E+01  0.70939141836E+01  0.14200000000E+01 0. -1.
        -13    1    1    2    0    0  0.46163124511E+01 -0.88883943959E+01  0.37332169409E+01  0.10689339400E+02  0.10570000000E+00 0.  1.
         13    1    1    2    0    0 -0.46163124511E+01  0.88883943959E+01  0.34268245106E+01  0.10586226632E+02  0.10570000000E+00 0. -1.
<mgrwt>
<rscale>  0 0.20034558E+02</rscale>
<asrwt>0</asrwt>
<pdfrwt beam="1">  1        4 0.21873544E-02 0.20034558E+02</pdfrwt>
<pdfrwt beam="2">  1       -4 0.10858096E-02 0.20034558E+02</pdfrwt>
<totfact> 0.12893025E+06</totfact>
</mgrwt>
</event>
<event>
 4    1  0.4710515E-007  0.2005469E+02  0.7818608E-02  0.1744243E+00
         -4   -1    0    0    0  501 -0.00000000000E+00  0.00000000000E+00  0.11828702550E+01  0.18481293354E+01  0.14200000000E+01 0. -1.
          4   -1    0    0  501    0  0.00000000000E+00 -0.00000000000E+00 -0.65671550622E+02  0.65686900985E+02  0.14200000000E+01 0.  1.
        -13    1    1    2    0    0  0.60703768058E+01 -0.79589538123E+01 -0.34213744111E+02  0.35648083804E+02  0.10570000000E+00 0. -1.
         13    1    1    2    0    0 -0.60703768058E+01  0.79589538123E+01 -0.30274936256E+02  0.31886946517E+02  0.10570000000E+00 0.  1.
<mgrwt>
<rscale>  0 0.20054686E+02</rscale>
<asrwt>0</asrwt>
<pdfrwt beam="2">  1        4 0.10155668E-01 0.20054686E+02</pdfrwt>
<pdfrwt beam="1">  1       -4 0.23433466E-03 0.20054686E+02</pdfrwt>
<totfact> 0.10779410E+06</totfact>
</mgrwt>
</event>
<event>
 4    1  0.4710515E-007  0.2001613E+02  0.7818608E-02  0.1745008E+00
          4   -1    0    0  501    0  0.00000000000E+00  0.00000000000E+00  0.14800959604E+02  0.14868920782E+02  0.14200000000E+01 0.  1.
         -4   -1    0    0    0  501 -0.00000000000E+00 -0.00000000000E+00 -0.66081619488E+01  0.67590091242E+01  0.14200000000E+01 0. -1.
        -13    1    1    2    0    0  0.56546619311E+01  0.82517121256E+01  0.37828089276E+01  0.10695175101E+02  0.10570000000E+00 0.  1.
         13    1    1    2    0    0 -0.56546619311E+01 -0.82517121256E+01  0.44099887278E+01  0.10932754805E+02  0.10570000000E+00 0. -1.
<mgrwt>
<rscale>  0 0.20016129E+02</rscale>
<asrwt>0</asrwt>
<pdfrwt beam="1">  1        4 0.22939021E-02 0.20016129E+02</pdfrwt>
<pdfrwt beam="2">  1       -4 0.10334717E-02 0.20016129E+02</pdfrwt>
<totfact> 0.12896661E+06</totfact>
</mgrwt>
</event>
<event>
 5    1  0.4710515E-007  0.2000162E+02  0.7818608E-02  0.1745296E+00
         -4   -1    0    0    0  501 -0.00000000000E+00  0.00000000000E+00  0.18787899513E+02  0.18841485295E+02  0.14200000000E+01 0. -1.
          4   -1    0    0  501    0  0.00000000000E+00 -0.00000000000E+00 -0.51663380069E+01  0.53579332211E+01  0.14200000000E+01 0.  1.
       1023    2    1    2    0    0  0.00000000000E+00  0.00000000000E+00  0.13621561507E+02  0.24199418516E+02  0.20001622900E+02 0.  0.
        -13    1    3    3    0    0 -0.66953831607E+01  0.74277919392E+01  0.67268848977E+01  0.12052485291E+02  0.10570000000E+00 0.  1.
         13    1    3    3    0    0  0.66953831607E+01 -0.74277919392E+01  0.68946766088E+01  0.12146933226E+02  0.10570000000E+00 0. -1.
<mgrwt>
<rscale>  0 0.20001623E+02</rscale>
<asrwt>0</asrwt>
<pdfrwt beam="2">  1        4 0.81368130E-03 0.20001623E+02</pdfrwt>
<pdfrwt beam="1">  1       -4 0.29093062E-02 0.20001623E+02</pdfrwt>
<totfact> 0.12768415E+06</totfact>
</mgrwt>
</event>
<event>
 5    1  0.4710515E-007  0.2000157E+02  0.7818608E-02  0.1745297E+00
          4   -1    0    0  501    0  0.00000000000E+00  0.00000000000E+00  0.26005901285E+01  0.29630168775E+01  0.14200000000E+01 0.  1.
         -4   -1    0    0    0  501 -0.00000000000E+00 -0.00000000000E+00 -0.35576027434E+02  0.35604355464E+02  0.14200000000E+01 0. -1.
       1023    2    1    2    0    0  0.00000000000E+00  0.00000000000E+00 -0.32975437305E+02  0.38567372341E+02  0.20001568534E+02 0.  0.
        -13    1    3    3    0    0  0.87827344817E+01  0.47819940255E+01 -0.16535793893E+02  0.19324790917E+02  0.10570000000E+00 0. -1.
         13    1    3    3    0    0 -0.87827344817E+01 -0.47819940255E+01 -0.16439643412E+02  0.19242581424E+02  0.10570000000E+00 0.  1.
<mgrwt>
<rscale>  0 0.20001569E+02</rscale>
<asrwt>0</asrwt>
<pdfrwt beam="1">  1        4 0.43014887E-03 0.20001569E+02</pdfrwt>
<pdfrwt beam="2">  1       -4 0.55032927E-02 0.20001569E+02</pdfrwt>
<totfact> 0.12027909E+06</totfact>
</mgrwt>
</event>
<event>
 4    1  0.4710515E-007  0.2008711E+02  0.7818608E-02  0.1743601E+00
         -4   -1    0    0    0  501 -0.00000000000E+00  0.00000000000E+00  0.28431516955E+01  0.31780358028E+01  0.14200000000E+01 0.  1.
          4   -1    0    0  501    0  0.00000000000E+00 -0.00000000000E+00 -0.33155082464E+02  0.33185477143E+02  0.14200000000E+01 0. -1.
        -13    1    1    2    0    0 -0.37942940954E+01  0.92706409907E+01 -0.16461833068E+02  0.19270302865E+02  0.10570000000E+00 0. -1.
         13    1    1    2    0    0  0.37942940954E+01 -0.92706409907E+01 -0.13850097701E+02  0.17093210081E+02  0.10570000000E+00 0.  1.
<mgrwt>
<rscale>  0 0.20087108E+02</rscale>
<asrwt>0</asrwt>
<pdfrwt beam="2">  1        4 0.51288800E-02 0.20087108E+02</pdfrwt>
<pdfrwt beam="1">  1       -4 0.46550634E-03 0.20087108E+02</pdfrwt>
<totfact> 0.12028862E+06</totfact>
</mgrwt>
</event>
<event>
 5    1  0.4811812E-007  0.2000140E+02  0.7818608E-02  0.1745300E+00
         -4   -1    0    0    0  501 -0.00000000000E+00  0.00000000000E+00  0.33275652041E+01  0.36178847670E+01  0.14200000000E+01 0. -1.
          4   -1    0    0  501    0  0.00000000000E+00 -0.00000000000E+00 -0.28491128758E+02  0.28526493264E+02  0.14200000000E+01 0.  1.
       1023    2    1    2    0    0  0.00000000000E+00  0.00000000000E+00 -0.25163563554E+02  0.32144378031E+02  0.20001402657E+02 0.  0.
        -13    1    3    3    0    0  0.62607921121E+01  0.77976528643E+01 -0.12652686035E+02  0.16127694951E+02  0.10570000000E+00 0.  1.
         13    1    3    3    0    0 -0.62607921121E+01 -0.77976528643E+01 -0.12510877520E+02  0.16016683079E+02  0.10570000000E+00 0. -1.
<mgrwt>
<rscale>  0 0.20001403E+02</rscale>
<asrwt>0</asrwt>
<pdfrwt beam="2">  1        4 0.44083030E-02 0.20001403E+02</pdfrwt>
<pdfrwt beam="1">  1       -4 0.53698575E-03 0.20001403E+02</pdfrwt>
<totfact> 0.12343339E+06</totfact>
</mgrwt>
</event>
<event>
 5    1  0.4710515E-007  0.2000219E+02  0.7818608E-02  0.1745284E+00
         -4   -1    0    0    0  501 -0.00000000000E+00  0.00000000000E+00  0.32223654079E+02  0.32254926480E+02  0.14200000000E+01 0. -1.
          4   -1    0    0  501    0  0.00000000000E+00 -0.00000000000E+00 -0.29069925209E+01  0.32352751840E+01  0.14200000000E+01 0.  1.
       1023    2    1    2    0    0  0.00000000000E+00  0.00000000000E+00  0.29316661558E+02  0.35490201664E+02  0.20002194110E+02 0.  0.
        -13    1    3    3    0    0  0.28828623837E+01  0.95759877892E+01  0.14690667700E+02  0.17771812728E+02  0.10570000000E+00 0. -1.
         13    1    3    3    0    0 -0.28828623837E+01 -0.95759877892E+01  0.14625993858E+02  0.17718388936E+02  0.10570000000E+00 0.  1.
<mgrwt>
<rscale>  0 0.20002194E+02</rscale>
<asrwt>0</asrwt>
<pdfrwt beam="2">  1        4 0.47488772E-03 0.20002194E+02</pdfrwt>
<pdfrwt beam="1">  1       -4 0.49851431E-02 0.20002194E+02</pdfrwt>
<totfact> 0.12175199E+06</totfact>
</mgrwt>
</event>
<event>
 4    1  0.4710515E-007  0.2001858E+02  0.7818608E-02  0.1744959E+00
          4   -1    0    0  501    0  0.00000000000E+00  0.00000000000E+00  0.45571499509E+01  0.47732604868E+01  0.14200000000E+01 0. -1.
         -4   -1    0    0    0  501 -0.00000000000E+00 -0.00000000000E+00 -0.21234748764E+02  0.21282174585E+02  0.14200000000E+01 0.  1.
        -13    1    1    2    0    0 -0.68274607127E+01  0.73172081269E+01 -0.85178369654E+01  0.13142316143E+02  0.10570000000E+00 0. -1.
         13    1    1    2    0    0  0.68274607127E+01 -0.73172081269E+01 -0.81597618477E+01  0.12913118928E+02  0.10570000000E+00 0.  1.
<mgrwt>
<rscale>  0 0.20018576E+02</rscale>
<asrwt>0</asrwt>
<pdfrwt beam="1">  1        4 0.72137204E-03 0.20018576E+02</pdfrwt>
<pdfrwt beam="2">  1       -4 0.32871564E-02 0.20018576E+02</pdfrwt>
<totfact> 0.12643201E+06</totfact>
</mgrwt>
</event>
<event>
 5    1  0.5112651E-007  0.2000178E+02  0.7818608E-02  0.1745293E+00
          4   -1    0    0  501    0  0.00000000000E+00  0.00000000000E+00  0.21473871546E+02  0.21520770414E+02  0.14200000000E+01 0. -1.
         -4   -1    0    0    0  501 -0.00000000000E+00 -0.00000000000E+00 -0.44960965113E+01  0.47150062396E+01  0.14200000000E+01 0.  1.
       1023    2    1    2    0    0  0.00000000000E+00  0.00000000000E+00  0.16977775035E+02  0.26235776653E+02  0.20001778207E+02 0.  0.
        -13    1    3    3    0    0 -0.94116799536E+01  0.33794002118E+01  0.83827714390E+01  0.13049218169E+02  0.10570000000E+00 0. -1.
         13    1    3    3    0    0  0.94116799536E+01 -0.33794002118E+01  0.85950035962E+01  0.13186558484E+02  0.10570000000E+00 0.  1.
<mgrwt>
<rscale>  0 0.20001778E+02</rscale>
<asrwt>0</asrwt>
<pdfrwt beam="1">  1        4 0.33241194E-02 0.20001778E+02</pdfrwt>
<pdfrwt beam="2">  1       -4 0.71215397E-03 0.20001778E+02</pdfrwt>
<totfact> 0.12654920E+06</totfact>
</mgrwt>
</event>
<event>
 4    1  0.4710515E-007  0.2003201E+02  0.7818608E-02  0.1744692E+00
          4   -1    0    0  501    0  0.00000000000E+00  0.00000000000E+00  0.63285330306E+00  0.15546392839E+01  0.14200000000E+01 0.  1.
         -4   -1    0    0    0  501 -0.00000000000E+00 -0.00000000000E+00 -0.90792080622E+02  0.90803184436E+02  0.14200000000E+01 0. -1.
        -13    1    1    2    0    0  0.83000609705E+01  0.56020900404E+01 -0.45938895554E+02  0.47017738377E+02  0.10570000000E+00 0. -1.
         13    1    1    2    0    0 -0.83000609705E+01 -0.56020900404E+01 -0.44220331766E+02  0.45340085343E+02  0.10570000000E+00 0.  1.
<mgrwt>
<rscale>  0 0.20032008E+02</rscale>
<asrwt>0</asrwt>
<pdfrwt beam="1">  1        4 0.16912287E-03 0.20032008E+02</pdfrwt>
<pdfrwt beam="2">  1       -4 0.14039767E-01 0.20032008E+02</pdfrwt>
<totfact> 0.99924953E+05</totfact>
</mgrwt>
</event>
<event>
 4    1  0.4710515E-007  0.2075924E+02  0.7818608E-02  0.1730638E+00
         -4   -1    0    0    0  501 -0.00000000000E+00  0.00000000000E+00  0.81668209691E+00  0.16380994010E+01  0.14200000000E+01 0. -1.
          4   -1    0    0  501    0  0.00000000000E+00 -0.00000000000E+00 -0.86947739310E+02  0.86959334008E+02  0.14200000000E+01 0.  1.
        -13    1    1    2    0    0 -0.54913565590E+01 -0.86734156874E+01 -0.36533844495E+02  0.37948861677E+02  0.10570000000E+00 0.  1.
         13    1    1    2    0    0  0.54913565590E+01  0.86734156874E+01 -0.49597212718E+02  0.50648571731E+02  0.10570000000E+00 0. -1.
<mgrwt>
<rscale>  0 0.20759243E+02</rscale>
<asrwt>0</asrwt>
<pdfrwt beam="2">  1        4 0.13440648E-01 0.20759243E+02</pdfrwt>
<pdfrwt beam="1">  1       -4 0.18972131E-03 0.20759243E+02</pdfrwt>
<totfact> 0.94052705E+05</totfact>
</mgrwt>
</event>
<event>
 5    1  0.4710515E-007  0.2000154E+02  0.7818608E-02  0.1745297E+00
          4   -1    0    0  501    0  0.00000000000E+00  0.00000000000E+00  0.43556455966E+02  0.43579596789E+02  0.14200000000E+01 0.  1.
         -4   -1    0    0    0  501 -0.00000000000E+00 -0.00000000000E+00 -0.20505815850E+01  0.24942503556E+01  0.14200000000E+01 0. -1.
       1023    2    1    2    0    0  0.00000000000E+00  0.00000000000E+00  0.41505874381E+02  0.46073847145E+02  0.20001544505E+02 0.  0.
        -13    1    3    3    0    0 -0.96378590730E+01 -0.26674969382E+01  0.20706537956E+02  0.22995124571E+02  0.10570000000E+00 0.  1.
         13    1    3    3    0    0  0.96378590730E+01  0.26674969382E+01  0.20799336425E+02  0.23078722574E+02  0.10570000000E+00 0. -1.
<mgrwt>
<rscale>  0 0.20001545E+02</rscale>
<asrwt>0</asrwt>
<pdfrwt beam="1">  1        4 0.67369016E-02 0.20001545E+02</pdfrwt>
<pdfrwt beam="2">  1       -4 0.35138252E-03 0.20001545E+02</pdfrwt>
<totfact> 0.11686761E+06</totfact>
</mgrwt>
</event>
<event>
 5    1  0.4710515E-007  0.2000669E+02  0.7818608E-02  0.1745195E+00
         -4   -1    0    0    0  501 -0.00000000000E+00  0.00000000000E+00  0.33098441823E+00  0.14580640196E+01  0.14200000000E+01 0.  1.
          4   -1    0    0  501    0  0.00000000000E+00 -0.00000000000E+00 -0.11073161636E+03  0.11074072089E+03  0.14200000000E+01 0. -1.
       1023    2    1    2    0    0  0.00000000000E+00  0.00000000000E+00 -0.11040063194E+03  0.11219878491E+03  0.20006693892E+02 0.  0.
        -13    1    3    3    0    0 -0.25558441505E+01  0.96694568994E+01 -0.54312866375E+02  0.55226165560E+02  0.10570000000E+00 0. -1.
         13    1    3    3    0    0  0.25558441505E+01 -0.96694568994E+01 -0.56087765569E+02  0.56972619345E+02  0.10570000000E+00 0.  1.
<mgrwt>
<rscale>  0 0.20006694E+02</rscale>
<asrwt>0</asrwt>
<pdfrwt beam="2">  1        4 0.17123021E-01 0.20006694E+02</pdfrwt>
<pdfrwt beam="1">  1       -4 0.13831955E-03 0.20006694E+02</pdfrwt>
<totfact> 0.94605840E+05</totfact>
</mgrwt>
</event>
<event>
 5    1  0.4710515E-007  0.2000165E+02  0.7818608E-02  0.1745295E+00
          4   -1    0    0  501    0  0.00000000000E+00  0.00000000000E+00  0.26316996936E+01  0.29903583861E+01  0.14200000000E+01 0. -1.
         -4   -1    0    0    0  501 -0.00000000000E+00 -0.00000000000E+00 -0.35206133874E+02  0.35234759292E+02  0.14200000000E+01 0.  1.
       1023    2    1    2    0    0  0.00000000000E+00  0.00000000000E+00 -0.32574434180E+02  0.38225117678E+02  0.20001646415E+02 0.  0.
        -13    1    3    3    0    0  0.63688006985E+01  0.77098540227E+01 -0.16205665511E+02  0.19043062740E+02  0.10570000000E+00 0.  1.
         13    1    3    3    0    0 -0.63688006985E+01 -0.77098540227E+01 -0.16368768670E+02  0.19182054938E+02  0.10570000000E+00 0. -1.
<mgrwt>
<rscale>  0 0.20001646E+02</rscale>
<asrwt>0</asrwt>
<pdfrwt beam="1">  1        4 0.43466799E-03 0.20001646E+02</pdfrwt>
<pdfrwt beam="2">  1       -4 0.54461191E-02 0.20001646E+02</pdfrwt>
<totfact> 0.12044027E+06</totfact>
</mgrwt>
</event>
<event>
 4    1  0.4710515E-007  0.2001900E+02  0.7818608E-02  0.1744951E+00
         -4   -1    0    0    0  501 -0.00000000000E+00  0.00000000000E+00  0.10501102164E+01  0.17661063010E+01  0.14200000000E+01 0. -1.
          4   -1    0    0  501    0  0.00000000000E+00 -0.00000000000E+00 -0.70427285125E+02  0.70441599145E+02  0.14200000000E+01 0.  1.
        -13    1    1    2    0    0 -0.57373045218E+01 -0.81964849510E+01 -0.33669146746E+02  0.35124373928E+02  0.10570000000E+00 0. -1.
         13    1    1    2    0    0  0.57373045218E+01  0.81964849510E+01 -0.35708028163E+02  0.37083331518E+02  0.10570000000E+00 0.  1.
<mgrwt>
<rscale>  0 0.20018999E+02</rscale>
<asrwt>0</asrwt>
<pdfrwt beam="2">  1        4 0.10891142E-01 0.20018999E+02</pdfrwt>
<pdfrwt beam="1">  1       -4 0.21773317E-03 0.20018999E+02</pdfrwt>
<totfact> 0.10653235E+06</totfact>
</mgrwt>
</event>
<event>
 5    1  0.4710515E-007  0.2000202E+02  0.7818608E-02  0.1745288E+00
          4   -1    0    0  501    0  0.00000000000E+00  0.00000000000E+00  0.58983899057E+01  0.60669105383E+01  0.14200000000E+01 0. -1.
         -4   -1    0    0    0  501 -0.00000000000E+00 -0.00000000000E+00 -0.16518973196E+02  0.16579893710E+02  0.14200000000E+01 0.  1.
       1023    2    1    2    0    0  0.00000000000E+00  0.00000000000E+00 -0.10620583290E+02  0.22646804249E+02  0.20002023729E+02 0.  0.
        -13    1    3    3    0    0  0.17005515087E+01 -0.98548046009E+01 -0.53056692347E+01  0.11321234371E+02  0.10570000000E+00 0.  1.
         13    1    3    3    0    0 -0.17005515087E+01  0.98548046009E+01 -0.53149140552E+01  0.11325569878E+02  0.10570000000E+00 0. -1.
<mgrwt>
<rscale>  0 0.20002024E+02</rscale>
<asrwt>0</asrwt>
<pdfrwt beam="1">  1        4 0.92509393E-03 0.20002024E+02</pdfrwt>
<pdfrwt beam="2">  1       -4 0.25590298E-02 0.20002024E+02</pdfrwt>
<totfact> 0.12856192E+06</totfact>
</mgrwt>
</event>
<event>
 4    1  0.4710515E-007  0.2011651E+02  0.7818608E-02  0.1743021E+00
         -4   -1    0    0    0  501 -0.00000000000E+00  0.00000000000E+00  0.10518454943E+01  0.17671386318E+01  0.14200000000E+01 0. -1.
          4   -1    0    0  501    0  0.00000000000E+00 -0.00000000000E+00 -0.71052360883E+02  0.71066549002E+02  0.14200000000E+01 0.  1.
        -13    1    1    2    0    0  0.34565516184E+01  0.94400124142E+01 -0.36120414091E+02  0.37493427025E+02  0.10570000000E+00 0. -1.
         13    1    1    2    0    0 -0.34565516184E+01 -0.94400124142E+01 -0.33880101297E+02  0.35340260609E+02  0.10570000000E+00 0.  1.
<mgrwt>
<rscale>  0 0.20116508E+02</rscale>
<asrwt>0</asrwt>
<pdfrwt beam="2">  1        4 0.10987244E-01 0.20116508E+02</pdfrwt>
<pdfrwt beam="1">  1       -4 0.21793638E-03 0.20116508E+02</pdfrwt>
<totfact> 0.10528424E+06</totfact>
</mgrwt>
</event>
<event>
 5    1  0.4710515E-007  0.2000849E+02  0.7818608E-02  0.1745159E+00
         -4   -1    0    0    0  501 -0.00000000000E+00  0.00000000000E+00  0.26267721377E+02  0.26306075084E+02  0.14200000000E+01 0. -1.
          4   -1    0    0  501    0  0.00000000000E+00 -0.00000000000E+00 -0.36352066284E+01  0.39027076794E+01  0.14200000000E+01 0.  1.
       1023    2    1    2    0    0  0.00000000000E+00  0.00000000000E+00  0.22632514748E+02  0.30208782763E+02  0.20008494002E+02 0.  0.
        -13    1    3    3    0    0  0.99802314715E+01  0.68394887177E+00  0.11269010632E+02  0.15068993974E+02  0.10570000000E+00 0.  1.
         13    1    3    3    0    0 -0.99802314715E+01 -0.68394887177E+00  0.11363504116E+02  0.15139788789E+02  0.10570000000E+00 0. -1.
<mgrwt>
<rscale>  0 0.20008494E+02</rscale>
<asrwt>0</asrwt>
<pdfrwt beam="2">  1        4 0.58278984E-03 0.20008494E+02</pdfrwt>
<pdfrwt beam="1">  1       -4 0.40647153E-02 0.20008494E+02</pdfrwt>
<totfact> 0.12434118E+06</totfact>
</mgrwt>
</event>
<event>
 5    1  0.4710515E-007  0.2000154E+02  0.7818608E-02  0.1745297E+00
          4   -1    0    0  501    0  0.00000000000E+00  0.00000000000E+00  0.15472109687E+02  0.15537135456E+02  0.14200000000E+01 0.  1.
         -4   -1    0    0    0  501 -0.00000000000E+00 -0.00000000000E+00 -0.63065456556E+01  0.64644348637E+01  0.14200000000E+01 0. -1.
       1023    2    1    2    0    0  0.00000000000E+00  0.00000000000E+00  0.91655640313E+01  0.22001570319E+02  0.20001538253E+02 0.  0.
        -13    1    3    3    0    0  0.98115355356E+01  0.19327056540E+01  0.45263712725E+01  0.10977285188E+02  0.10570000000E+00 0.  1.
         13    1    3    3    0    0 -0.98115355356E+01 -0.19327056540E+01  0.46391927588E+01  0.11024285131E+02  0.10570000000E+00 0. -1.
<mgrwt>
<rscale>  0 0.20001538E+02</rscale>
<asrwt>0</asrwt>
<pdfrwt beam="1">  1        4 0.23974718E-02 0.20001538E+02</pdfrwt>
<pdfrwt beam="2">  1       -4 0.98738511E-03 0.20001538E+02</pdfrwt>
<totfact> 0.12894110E+06</totfact>
</mgrwt>
</event>
<event>
 5    1  0.4881072E-007  0.2000432E+02  0.7818608E-02  0.1745242E+00
         -4   -1    0    0    0  501 -0.00000000000E+00  0.00000000000E+00  0.11564151466E+02  0.11651008503E+02  0.14200000000E+01 0.  1.
          4   -1    0    0  501    0  0.00000000000E+00 -0.00000000000E+00 -0.84726209385E+01  0.85907919057E+01  0.14200000000E+01 0. -1.
       1023    2    1    2    0    0  0.00000000000E+00  0.00000000000E+00  0.30915305279E+01  0.20241800409E+02  0.20004322602E+02 0.  0.
        -13    1    3    3    0    0  0.42125886142E+01 -0.90710830930E+01  0.15863272037E+01  0.10127095230E+02  0.10570000000E+00 0. -1.
         13    1    3    3    0    0 -0.42125886142E+01  0.90710830930E+01  0.15052033242E+01  0.10114705179E+02  0.10570000000E+00 0.  1.
<mgrwt>
<rscale>  0 0.20004323E+02</rscale>
<asrwt>0</asrwt>
<pdfrwt beam="2">  1        4 0.13192515E-02 0.20004323E+02</pdfrwt>
<pdfrwt beam="1">  1       -4 0.17948716E-02 0.20004323E+02</pdfrwt>
<totfact> 0.12993919E+06</totfact>
</mgrwt>
</event>
<event>
 5    1  0.4710515E-007  0.2000594E+02  0.7818608E-02  0.1745210E+00
          4   -1    0    0  501    0  0.00000000000E+00  0.00000000000E+00  0.41573084363E+01  0.43931325309E+01  0.14200000000E+01 0.  1.
         -4   -1    0    0    0  501 -0.00000000000E+00 -0.00000000000E+00 -0.23146309121E+02  0.23189825914E+02  0.14200000000E+01 0. -1.
       1023    2    1    2    0    0  0.00000000000E+00  0.00000000000E+00 -0.18989000684E+02  0.27582958445E+02  0.20005935358E+02 0.  0.
        -13    1    3    3    0    0 -0.24860941585E+01 -0.96863907865E+01 -0.92141065449E+01  0.13598447064E+02  0.10570000000E+00 0.  1.
         13    1    3    3    0    0  0.24860941585E+01  0.96863907865E+01 -0.97748941394E+01  0.13984511381E+02  0.10570000000E+00 0. -1.
<mgrwt>
<rscale>  0 0.20005935E+02</rscale>
<asrwt>0</asrwt>
<pdfrwt beam="1">  1        4 0.66107369E-03 0.20005935E+02</pdfrwt>
<pdfrwt beam="2">  1       -4 0.35824583E-02 0.20005935E+02</pdfrwt>
<totfact> 0.12576370E+06</totfact>
</mgrwt>
</event>
<event>
 5    1  0.4710515E-007  0.2000510E+02  0.7818608E-02  0.1745227E+00
         -4   -1    0    0    0  501 -0.00000000000E+00  0.00000000000E+00  0.22294246123E+02  0.22339422781E+02  0.14200000000E+01 0. -1.
          4   -1    0    0  501    0  0.00000000000E+00 -0.00000000000E+00 -0.43243263047E+01  0.45515050247E+01  0.14200000000E+01 0.  1.
       1023    2    1    2    0    0  0.00000000000E+00  0.00000000000E+00  0.17969919819E+02  0.26890927806E+02  0.20005098850E+02 0.  0.
        -13    1    3    3    0    0 -0.97907206999E+01 -0.20433876056E+01  0.88793070711E+01  0.13374861169E+02  0.10570000000E+00 0.  1.
         13    1    3    3    0    0  0.97907206999E+01  0.20433876056E+01  0.90906127475E+01  0.13516066637E+02  0.10570000000E+00 0. -1.
<mgrwt>
<rscale>  0 0.20005099E+02</rscale>
<asrwt>0</asrwt>
<pdfrwt beam="2">  1        4 0.68623139E-03 0.20005099E+02</pdfrwt>
<pdfrwt beam="1">  1       -4 0.34508344E-02 0.20005099E+02</pdfrwt>
<totfact> 0.12614878E+06</totfact>
</mgrwt>
</event>
<event>
 5    1  0.4710515E-007  0.2000496E+02  0.7818608E-02  0.1745230E+00
          4   -1    0    0  501    0  0.00000000000E+00  0.00000000000E+00  0.98776726237E+01  0.99792192311E+01  0.14200000000E+01 0. -1.
         -4   -1    0    0    0  501 -0.00000000000E+00 -0.00000000000E+00 -0.99247225467E+01  0.10025792619E+02  0.14200000000E+01 0.  1.
       1023    2    1    2    0    0  0.00000000000E+00  0.00000000000E+00 -0.47049922997E-01  0.20005011850E+02  0.20004956521E+02 0.  0.
        -13    1    3    3    0    0 -0.97465510536E+01 -0.22395068970E+01  0.14305965244E+00  0.10002114133E+02  0.10570000000E+00 0. -1.
         13    1    3    3    0    0  0.97465510536E+01  0.22395068970E+01 -0.19010957543E+00  0.10002897716E+02  0.10570000000E+00 0.  1.
<mgrwt>
<rscale>  0 0.20004957E+02</rscale>
<asrwt>0</asrwt>
<pdfrwt beam="1">  1        4 0.15352278E-02 0.20004957E+02</pdfrwt>
<pdfrwt beam="2">  1       -4 0.15424663E-02 0.20004957E+02</pdfrwt>
<totfact> 0.13007164E+06</totfact>
</mgrwt>
</event>
<event>
 5    1  0.4710515E-007  0.2000167E+02  0.7818608E-02  0.1745295E+00
         -4   -1    0    0    0  501 -0.00000000000E+00  0.00000000000E+00  0.72653802812E+01  0.74028474677E+01  0.14200000000E+01 0.  1.
          4   -1    0    0  501    0  0.00000000000E+00 -0.00000000000E+00 -0.13462029313E+02  0.13536714270E+02  0.14200000000E+01 0. -1.
       1023    2    1    2    0    0  0.00000000000E+00  0.00000000000E+00 -0.61966490315E+01  0.20939561737E+02  0.20001669594E+02 0.  0.
        -13    1    3    3    0    0 -0.65799361728E+01 -0.75303887048E+01 -0.31576386046E+01  0.10487333700E+02  0.10570000000E+00 0.  1.
         13    1    3    3    0    0  0.65799361728E+01  0.75303887048E+01 -0.30390104269E+01  0.10452228038E+02  0.10570000000E+00 0. -1.
<mgrwt>
<rscale>  0 0.20001670E+02</rscale>
<asrwt>0</asrwt>
<pdfrwt beam="2">  1        4 0.20874008E-02 0.20001670E+02</pdfrwt>
<pdfrwt beam="1">  1       -4 0.11340702E-02 0.20001670E+02</pdfrwt>
<totfact> 0.12956112E+06</totfact>
</mgrwt>
</event>
<event>
 4    1  0.4710515E-007  0.2002574E+02  0.7818608E-02  0.1744817E+00
          4   -1    0    0  501    0  0.00000000000E+00  0.00000000000E+00  0.38241772920E+00  0.14705928463E+01  0.14200000000E+01 0.  1.
         -4   -1    0    0    0  501 -0.00000000000E+00 -0.00000000000E+00 -0.10711485891E+03  0.10712427082E+03  0.14200000000E+01 0. -1.
        -13    1    1    2    0    0  0.96722405951E+01 -0.25820840699E+01 -0.52474593070E+02  0.53421095895E+02  0.10570000000E+00 0.  1.
         13    1    1    2    0    0 -0.96722405951E+01  0.25820840699E+01 -0.54257848106E+02  0.55173767770E+02  0.10570000000E+00 0. -1.
<mgrwt>
<rscale>  0 0.20025744E+02</rscale>
<asrwt>0</asrwt>
<pdfrwt beam="1">  1        4 0.14326335E-03 0.20025744E+02</pdfrwt>
<pdfrwt beam="2">  1       -4 0.16563629E-01 0.20025744E+02</pdfrwt>
<totfact> 0.95385714E+05</totfact>
</mgrwt>
</event>
<event>
 4    1  0.4710515E-007  0.2001512E+02  0.7818608E-02  0.1745027E+00
         -4   -1    0    0    0  501 -0.00000000000E+00  0.00000000000E+00  0.38638604512E+02  0.38664688782E+02  0.14200000000E+01 0. -1.
          4   -1    0    0  501    0  0.00000000000E+00 -0.00000000000E+00 -0.23684435836E+01  0.27615077419E+01  0.14200000000E+01 0.  1.
        -13    1    1    2    0    0 -0.58744989200E+01  0.80985734455E+01  0.18566731509E+02  0.21091024651E+02  0.10570000000E+00 0.  1.
         13    1    1    2    0    0  0.58744989200E+01 -0.80985734455E+01  0.17703429420E+02  0.20335171873E+02  0.10570000000E+00 0. -1.
<mgrwt>
<rscale>  0 0.20015124E+02</rscale>
<asrwt>0</asrwt>
<pdfrwt beam="2">  1        4 0.39661816E-03 0.20015124E+02</pdfrwt>
<pdfrwt beam="1">  1       -4 0.59766423E-02 0.20015124E+02</pdfrwt>
<totfact> 0.11878560E+06</totfact>
</mgrwt>
</event>
<event>
 5    1  0.4710515E-007  0.2000166E+02  0.7818608E-02  0.1745295E+00
          4   -1    0    0  501    0  0.00000000000E+00  0.00000000000E+00  0.68548487012E+02  0.68563193272E+02  0.14200000000E+01 0.  1.
         -4   -1    0    0    0  501 -0.00000000000E+00 -0.00000000000E+00 -0.10951023221E+01  0.17932231027E+01  0.14200000000E+01 0. -1.
       1023    2    1    2    0    0  0.00000000000E+00  0.00000000000E+00  0.67453384690E+02  0.70356416375E+02  0.20001655405E+02 0.  0.
        -13    1    3    3    0    0 -0.84939461867E+01  0.52778827137E+01  0.33892221282E+02  0.35336907104E+02  0.10570000000E+00 0. -1.
         13    1    3    3    0    0  0.84939461867E+01 -0.52778827137E+01  0.33561163409E+02  0.35019509271E+02  0.10570000000E+00 0.  1.
<mgrwt>
<rscale>  0 0.20001655E+02</rscale>
<asrwt>0</asrwt>
<pdfrwt beam="1">  1        4 0.10600756E-01 0.20001655E+02</pdfrwt>
<pdfrwt beam="2">  1       -4 0.22331008E-03 0.20001655E+02</pdfrwt>
<totfact> 0.10736452E+06</totfact>
</mgrwt>
</event>
<event>
 5    1  0.4710515E-007  0.2000227E+02  0.7818608E-02  0.1745283E+00
          4   -1    0    0  501    0  0.00000000000E+00  0.00000000000E+00  0.71275829273E+01  0.72676570080E+01  0.14200000000E+01 0.  1.
         -4   -1    0    0    0  501 -0.00000000000E+00 -0.00000000000E+00 -0.13719555933E+02  0.13792846516E+02  0.14200000000E+01 0. -1.
       1023    2    1    2    0    0  0.00000000000E+00  0.00000000000E+00 -0.65919730061E+01  0.21060503524E+02  0.20002267386E+02 0.  0.
        -13    1    3    3    0    0  0.89213256380E+01  0.45188858362E+01 -0.32607132042E+01  0.10519211160E+02  0.10570000000E+00 0.  1.
         13    1    3    3    0    0 -0.89213256380E+01 -0.45188858362E+01 -0.33312598019E+01  0.10541292364E+02  0.10570000000E+00 0. -1.
<mgrwt>
<rscale>  0 0.20002267E+02</rscale>
<asrwt>0</asrwt>
<pdfrwt beam="1">  1        4 0.11129639E-02 0.20002267E+02</pdfrwt>
<pdfrwt beam="2">  1       -4 0.21271136E-02 0.20002267E+02</pdfrwt>
<totfact> 0.12948185E+06</totfact>
</mgrwt>
</event>
<event>
 5    1  0.4710515E-007  0.2000139E+02  0.7818608E-02  0.1745300E+00
         -4   -1    0    0    0  501 -0.00000000000E+00  0.00000000000E+00  0.43775775082E+01  0.46021282946E+01  0.14200000000E+01 0.  1.
          4   -1    0    0  501    0  0.00000000000E+00 -0.00000000000E+00 -0.22027566791E+02  0.22073289260E+02  0.14200000000E+01 0. -1.
       1023    2    1    2    0    0  0.00000000000E+00  0.00000000000E+00 -0.17649989283E+02  0.26675417554E+02  0.20001394452E+02 0.  0.
        -13    1    3    3    0    0  0.88802420165E+01  0.45979809714E+01 -0.87564012341E+01  0.13292323437E+02  0.10570000000E+00 0.  1.
         13    1    3    3    0    0 -0.88802420165E+01 -0.45979809714E+01 -0.88935880491E+01  0.13383094118E+02  0.10570000000E+00 0. -1.
<mgrwt>
<rscale>  0 0.20001394E+02</rscale>
<asrwt>0</asrwt>
<pdfrwt beam="2">  1        4 0.34096466E-02 0.20001394E+02</pdfrwt>
<pdfrwt beam="1">  1       -4 0.69426373E-03 0.20001394E+02</pdfrwt>
<totfact> 0.12631368E+06</totfact>
</mgrwt>
</event>
<event>
 4    1  0.4710515E-007  0.2005840E+02  0.7818608E-02  0.1744169E+00
          4   -1    0    0  501    0  0.00000000000E+00  0.00000000000E+00  0.69406105779E+01  0.70843824850E+01  0.14200000000E+01 0. -1.
         -4   -1    0    0    0  501 -0.00000000000E+00 -0.00000000000E+00 -0.14164019967E+02  0.14235022362E+02  0.14200000000E+01 0.  1.
        -13    1    1    2    0    0 -0.70251314683E+01  0.71461207806E+01 -0.31943916266E+01  0.10518309023E+02  0.10570000000E+00 0. -1.
         13    1    1    2    0    0  0.70251314683E+01 -0.71461207806E+01 -0.40290177629E+01  0.10801095823E+02  0.10570000000E+00 0.  1.
<mgrwt>
<rscale>  0 0.20058399E+02</rscale>
<asrwt>0</asrwt>
<pdfrwt beam="1">  1        4 0.10843073E-02 0.20058399E+02</pdfrwt>
<pdfrwt beam="2">  1       -4 0.21956011E-02 0.20058399E+02</pdfrwt>
<totfact> 0.12859205E+06</totfact>
</mgrwt>
</event>
<event>
 5    1  0.4710515E-007  0.2000955E+02  0.7818608E-02  0.1745138E+00
         -4   -1    0    0    0  501 -0.00000000000E+00  0.00000000000E+00  0.60564898756E+02  0.60581543074E+02  0.14200000000E+01 0. -1.
          4   -1    0    0  501    0  0.00000000000E+00 -0.00000000000E+00 -0.13276148016E+01  0.19439550050E+01  0.14200000000E+01 0.  1.
       1023    2    1    2    0    0  0.00000000000E+00  0.00000000000E+00  0.59237283954E+02  0.62525498079E+02  0.20009550216E+02 0.  0.
        -13    1    3    3    0    0  0.87481356265E+01  0.48491609956E+01  0.30244481979E+02  0.31855676134E+02  0.10570000000E+00 0.  1.
         13    1    3    3    0    0 -0.87481356265E+01 -0.48491609956E+01  0.28992801975E+02  0.30669821946E+02  0.10570000000E+00 0. -1.
<mgrwt>
<rscale>  0 0.20009550E+02</rscale>
<asrwt>0</asrwt>
<pdfrwt beam="2">  1        4 0.25293953E-03 0.20009550E+02</pdfrwt>
<pdfrwt beam="1">  1       -4 0.93663685E-02 0.20009550E+02</pdfrwt>
<totfact> 0.11012371E+06</totfact>
</mgrwt>
</event>
<event>
 4    1  0.4710515E-007  0.2003204E+02  0.7818608E-02  0.1744692E+00
          4   -1    0    0  501    0  0.00000000000E+00  0.00000000000E+00  0.43987268847E+02  0.44010183147E+02  0.14200000000E+01 0. -1.
         -4   -1    0    0    0  501 -0.00000000000E+00 -0.00000000000E+00 -0.20337684971E+01  0.24804463913E+01  0.14200000000E+01 0.  1.
        -13    1    1    2    0    0  0.99948364501E+01  0.34705763634E+00  0.19722149659E+02  0.22113153650E+02  0.10570000000E+00 0.  1.
         13    1    1    2    0    0 -0.99948364501E+01 -0.34705763634E+00  0.22231350691E+02  0.24377475889E+02  0.10570000000E+00 0. -1.
<mgrwt>
<rscale>  0 0.20032035E+02</rscale>
<asrwt>0</asrwt>
<pdfrwt beam="1">  1        4 0.68033937E-02 0.20032035E+02</pdfrwt>
<pdfrwt beam="2">  1       -4 0.34900999E-03 0.20032035E+02</pdfrwt>
<totfact> 0.11632724E+06</totfact>
</mgrwt>
</event>
<event>
 5    1  0.4773499E-007  0.2000284E+02  0.7818608E-02  0.1745272E+00
          4   -1    0    0  501    0  0.00000000000E+00  0.00000000000E+00  0.28617801828E+02  0.28653009990E+02  0.14200000000E+01 0.  1.
         -4   -1    0    0    0  501 -0.00000000000E+00 -0.00000000000E+00 -0.33120897441E+01  0.36036562645E+01  0.14200000000E+01 0. -1.
       1023    2    1    2    0    0  0.00000000000E+00  0.00000000000E+00  0.25305712084E+02  0.32256666254E+02  0.20002836143E+02 0.  0.
        -13    1    3    3    0    0 -0.48030402910E+01  0.87711091307E+01  0.12451186756E+02  0.15970121337E+02  0.10570000000E+00 0. -1.
         13    1    3    3    0    0  0.48030402910E+01 -0.87711091307E+01  0.12854525328E+02  0.16286544917E+02  0.10570000000E+00 0.  1.
<mgrwt>
<rscale>  0 0.20002836E+02</rscale>
<asrwt>0</asrwt>
<pdfrwt beam="1">  1        4 0.44278752E-02 0.20002836E+02</pdfrwt>
<pdfrwt beam="2">  1       -4 0.53468879E-03 0.20002836E+02</pdfrwt>
<totfact> 0.12335824E+06</totfact>
</mgrwt>
</event>
<event>
 5    1  0.4881350E-007  0.2000144E+02  0.7818608E-02  0.1745299E+00
          4   -1    0    0  501    0  0.00000000000E+00  0.00000000000E+00  0.10717090388E+02  0.10810755125E+02  0.14200000000E+01 0.  1.
         -4   -1    0    0    0  501 -0.00000000000E+00 -0.00000000000E+00 -0.91429197681E+01  0.92525338090E+01  0.14200000000E+01 0. -1.
       1023    2    1    2    0    0  0.00000000000E+00  0.00000000000E+00  0.15741706197E+01  0.20063288934E+02  0.20001438691E+02 0.  0.
        -13    1    3    3    0    0  0.39234331991E+01 -0.91983517538E+01  0.77248396201E+00  0.10030498842E+02  0.10570000000E+00 0.  1.
         13    1    3    3    0    0 -0.39234331991E+01  0.91983517538E+01  0.80168665768E+00  0.10032790093E+02  0.10570000000E+00 0. -1.
<mgrwt>
<rscale>  0 0.20001439E+02</rscale>
<asrwt>0</asrwt>
<pdfrwt beam="1">  1        4 0.16644200E-02 0.20001439E+02</pdfrwt>
<pdfrwt beam="2">  1       -4 0.14222399E-02 0.20001439E+02</pdfrwt>
<totfact> 0.13008379E+06</totfact>
</mgrwt>
</event>
<event>
 5    1  0.4710515E-007  0.2000166E+02  0.7818608E-02  0.1745295E+00
          4   -1    0    0  501    0  0.00000000000E+00  0.00000000000E+00  0.10415377627E+03  0.10416345574E+03  0.14200000000E+01 0. -1.
         -4   -1    0    0    0  501 -0.00000000000E+00 -0.00000000000E+00 -0.42019409905E+00  0.14808656525E+01  0.14200000000E+01 0.  1.
       1023    2    1    2    0    0  0.00000000000E+00  0.00000000000E+00  0.10373358217E+03  0.10564432139E+03  0.20001664233E+02 0.  0.
        -13    1    3    3    0    0 -0.68887169706E+01  0.72489415514E+01  0.51537138367E+02  0.52498470251E+02  0.10570000000E+00 0. -1.
         13    1    3    3    0    0  0.68887169706E+01 -0.72489415514E+01  0.52196443805E+02  0.53145851141E+02  0.10570000000E+00 0.  1.
<mgrwt>
<rscale>  0 0.20001664E+02</rscale>
<asrwt>0</asrwt>
<pdfrwt beam="1">  1        4 0.16105986E-01 0.20001664E+02</pdfrwt>
<pdfrwt beam="2">  1       -4 0.14698000E-03 0.20001664E+02</pdfrwt>
<totfact> 0.96417964E+05</totfact>
</mgrwt>
</event>
<event>
 5    1  0.4710515E-007  0.2000890E+02  0.7818608E-02  0.1745151E+00
          4   -1    0    0  501    0  0.00000000000E+00  0.00000000000E+00  0.46695308465E+02  0.46716894510E+02  0.14200000000E+01 0.  1.
         -4   -1    0    0    0  501 -0.00000000000E+00 -0.00000000000E+00 -0.18836758966E+01  0.23589478340E+01  0.14200000000E+01 0. -1.
       1023    2    1    2    0    0  0.00000000000E+00  0.00000000000E+00  0.44811632568E+02  0.49075842344E+02  0.20008895230E+02 0.  0.
        -13    1    3    3    0    0 -0.92286249967E+01 -0.38612579295E+01  0.22482105096E+02  0.24607581234E+02  0.10570000000E+00 0. -1.
         13    1    3    3    0    0  0.92286249967E+01  0.38612579295E+01  0.22329527472E+02  0.24468261110E+02  0.10570000000E+00 0.  1.
<mgrwt>
<rscale>  0 0.20008895E+02</rscale>
<asrwt>0</asrwt>
<pdfrwt beam="1">  1        4 0.72221138E-02 0.20008895E+02</pdfrwt>
<pdfrwt beam="2">  1       -4 0.32801612E-03 0.20008895E+02</pdfrwt>
<totfact> 0.11548890E+06</totfact>
</mgrwt>
</event>
<event>
 4    1  0.4710515E-007  0.2002608E+02  0.7818608E-02  0.1744810E+00
         -4   -1    0    0    0  501 -0.00000000000E+00  0.00000000000E+00  0.29553274568E+01  0.32787742187E+01  0.14200000000E+01 0.  1.
          4   -1    0    0  501    0  0.00000000000E+00 -0.00000000000E+00 -0.31825231524E+02  0.31856895040E+02  0.14200000000E+01 0. -1.
        -13    1    1    2    0    0  0.99722190974E+01 -0.88343148595E+00 -0.14707864578E+02  0.17792078514E+02  0.10570000000E+00 0. -1.
         13    1    1    2    0    0 -0.99722190974E+01  0.88343148595E+00 -0.14162039489E+02  0.17343590744E+02  0.10570000000E+00 0.  1.
<mgrwt>
<rscale>  0 0.20026080E+02</rscale>
<asrwt>0</asrwt>
<pdfrwt beam="2">  1        4 0.49235054E-02 0.20026080E+02</pdfrwt>
<pdfrwt beam="1">  1       -4 0.48198196E-03 0.20026080E+02</pdfrwt>
<totfact> 0.12163121E+06</totfact>
</mgrwt>
</event>
<event>
 5    1  0.4710515E-007  0.2000167E+02  0.7818608E-02  0.1745295E+00
          4   -1    0    0  501    0  0.00000000000E+00  0.00000000000E+00  0.19110136909E+02  0.19162821626E+02  0.14200000000E+01 0. -1.
         -4   -1    0    0    0  501 -0.00000000000E+00 -0.00000000000E+00 -0.50762399624E+01  0.52711110931E+01  0.14200000000E+01 0.  1.
       1023    2    1    2    0    0  0.00000000000E+00  0.00000000000E+00  0.14033896946E+02  0.24433932719E+02  0.20001670046E+02 0.  0.
        -13    1    3    3    0    0  0.16022229281E+01 -0.98708306256E+01  0.71042998761E+01  0.12267137595E+02  0.10570000000E+00 0. -1.
         13    1    3    3    0    0 -0.16022229281E+01  0.98708306256E+01  0.69295970701E+01  0.12166795124E+02  0.10570000000E+00 0.  1.
<mgrwt>
<rscale>  0 0.20001670E+02</rscale>
<asrwt>0</asrwt>
<pdfrwt beam="1">  1        4 0.29590638E-02 0.20001670E+02</pdfrwt>
<pdfrwt beam="2">  1       -4 0.80000276E-03 0.20001670E+02</pdfrwt>
<totfact> 0.12755146E+06</totfact>
</mgrwt>
</event>
<event>
 5    1  0.4710515E-007  0.2000130E+02  0.7818608E-02  0.1745302E+00
         -4   -1    0    0    0  501 -0.00000000000E+00  0.00000000000E+00  0.31510556893E+00  0.14545416871E+01  0.14200000000E+01 0. -1.
          4   -1    0    0  501    0  0.00000000000E+00 -0.00000000000E+00 -0.11188474829E+03  0.11189375898E+03  0.14200000000E+01 0.  1.
       1023    2    1    2    0    0  0.00000000000E+00  0.00000000000E+00 -0.11156964272E+03  0.11334830067E+03  0.20001302169E+02 0.  0.
        -13    1    3    3    0    0  0.15938834676E+01 -0.98721839039E+01 -0.55994585297E+02  0.56880622664E+02  0.10570000000E+00 0.  1.
         13    1    3    3    0    0 -0.15938834676E+01  0.98721839039E+01 -0.55575057423E+02  0.56467678008E+02  0.10570000000E+00 0. -1.
<mgrwt>
<rscale>  0 0.20001302E+02</rscale>
<asrwt>0</asrwt>
<pdfrwt beam="2">  1        4 0.17301369E-01 0.20001302E+02</pdfrwt>
<pdfrwt beam="1">  1       -4 0.13681993E-03 0.20001302E+02</pdfrwt>
<totfact> 0.94354407E+05</totfact>
</mgrwt>
</event>
<event>
 5    1  0.4915655E-007  0.2000144E+02  0.7818608E-02  0.1745300E+00
         -4   -1    0    0    0  501 -0.00000000000E+00  0.00000000000E+00  0.12935059478E+02  0.13012769255E+02  0.14200000000E+01 0. -1.
          4   -1    0    0  501    0  0.00000000000E+00 -0.00000000000E+00 -0.75649136157E+01  0.76970330656E+01  0.14200000000E+01 0.  1.
       1023    2    1    2    0    0  0.00000000000E+00  0.00000000000E+00  0.53701458619E+01  0.20709802321E+02  0.20001436088E+02 0.  0.
        -13    1    3    3    0    0  0.99122350216E+01 -0.13231723853E+01  0.26858908857E+01  0.10355113260E+02  0.10570000000E+00 0. -1.
         13    1    3    3    0    0 -0.99122350216E+01  0.13231723853E+01  0.26842549762E+01  0.10354689061E+02  0.10570000000E+00 0.  1.
<mgrwt>
<rscale>  0 0.20001436E+02</rscale>
<asrwt>0</asrwt>
<pdfrwt beam="2">  1        4 0.11799736E-02 0.20001436E+02</pdfrwt>
<pdfrwt beam="1">  1       -4 0.20061499E-02 0.20001436E+02</pdfrwt>
<totfact> 0.12970022E+06</totfact>
</mgrwt>
</event>
<event>
 5    1  0.4710515E-007  0.2000439E+02  0.7818608E-02  0.1745241E+00
         -4   -1    0    0    0  501 -0.00000000000E+00  0.00000000000E+00  0.10565611559E+02  0.10660607282E+02  0.14200000000E+01 0.  1.
          4   -1    0    0  501    0  0.00000000000E+00 -0.00000000000E+00 -0.92771897706E+01  0.93852357477E+01  0.14200000000E+01 0. -1.
       1023    2    1    2    0    0  0.00000000000E+00  0.00000000000E+00  0.12884217886E+01  0.20045843030E+02  0.20004394319E+02 0.  0.
        -13    1    3    3    0    0 -0.96609293335E+00 -0.99548578064E+01  0.62849321153E+00  0.10021911280E+02  0.10570000000E+00 0. -1.
         13    1    3    3    0    0  0.96609293335E+00  0.99548578064E+01  0.65992857709E+00  0.10023931749E+02  0.10570000000E+00 0.  1.
<mgrwt>
<rscale>  0 0.20004394E+02</rscale>
<asrwt>0</asrwt>
<pdfrwt beam="2">  1        4 0.14428786E-02 0.20004394E+02</pdfrwt>
<pdfrwt beam="1">  1       -4 0.16410973E-02 0.20004394E+02</pdfrwt>
<totfact> 0.13005489E+06</totfact>
</mgrwt>
</event>
<event>
 5    1  0.4710515E-007  0.2000619E+02  0.7818608E-02  0.1745205E+00
         -4   -1    0    0    0  501 -0.00000000000E+00  0.00000000000E+00  0.27697657496E+02  0.27734033799E+02  0.14200000000E+01 0.  1.
          4   -1    0    0  501    0  0.00000000000E+00 -0.00000000000E+00 -0.34327560162E+01  0.37148639096E+01  0.14200000000E+01 0. -1.
       1023    2    1    2    0    0  0.00000000000E+00  0.00000000000E+00  0.24264901480E+02  0.31448897708E+02  0.20006192123E+02 0.  0.
        -13    1    3    3    0    0 -0.99682290436E+01 -0.82667141192E+00  0.12066084390E+02  0.15673242832E+02  0.10570000000E+00 0.  1.
         13    1    3    3    0    0  0.99682290436E+01  0.82667141192E+00  0.12198817090E+02  0.15775654876E+02  0.10570000000E+00 0. -1.
<mgrwt>
<rscale>  0 0.20006192E+02</rscale>
<asrwt>0</asrwt>
<pdfrwt beam="2">  1        4 0.55261509E-03 0.20006192E+02</pdfrwt>
<pdfrwt beam="1">  1       -4 0.42856769E-02 0.20006192E+02</pdfrwt>
<totfact> 0.12372925E+06</totfact>
</mgrwt>
</event>
<event>
 5    1  0.4710515E-007  0.2000117E+02  0.7818608E-02  0.1745305E+00
         -4   -1    0    0    0  501 -0.00000000000E+00  0.00000000000E+00  0.24545676886E+01  0.28357190513E+01  0.14200000000E+01 0. -1.
          4   -1    0    0  501    0  0.00000000000E+00 -0.00000000000E+00 -0.37413985146E+02  0.37440922591E+02  0.14200000000E+01 0.  1.
       1023    2    1    2    0    0  0.00000000000E+00  0.00000000000E+00 -0.34959417457E+02  0.40276641642E+02  0.20001174792E+02 0.  0.
        -13    1    3    3    0    0 -0.99174886238E+01 -0.12820819233E+01 -0.17512248379E+02  0.20166564667E+02  0.10570000000E+00 0. -1.
         13    1    3    3    0    0  0.99174886238E+01  0.12820819233E+01 -0.17447169078E+02  0.20110076976E+02  0.10570000000E+00 0.  1.
<mgrwt>
<rscale>  0 0.20001175E+02</rscale>
<asrwt>0</asrwt>
<pdfrwt beam="2">  1        4 0.57873888E-02 0.20001175E+02</pdfrwt>
<pdfrwt beam="1">  1       -4 0.40901727E-03 0.20001175E+02</pdfrwt>
<totfact> 0.11948332E+06</totfact>
</mgrwt>
</event>
<event>
 5    1  0.4710515E-007  0.2000275E+02  0.7818608E-02  0.1745273E+00
         -4   -1    0    0    0  501 -0.00000000000E+00  0.00000000000E+00  0.57135671356E+01  0.58873805222E+01  0.14200000000E+01 0.  1.
          4   -1    0    0  501    0  0.00000000000E+00 -0.00000000000E+00 -0.17040923792E+02  0.17099984903E+02  0.14200000000E+01 0. -1.
       1023    2    1    2    0    0  0.00000000000E+00  0.00000000000E+00 -0.11327356657E+02  0.22987365425E+02  0.20002748821E+02 0.  0.
        -13    1    3    3    0    0  0.95477745089E+01 -0.29736780760E+01 -0.55298644827E+01  0.11427744006E+02  0.10570000000E+00 0. -1.
         13    1    3    3    0    0 -0.95477745089E+01  0.29736780760E+01 -0.57974921738E+01  0.11559621420E+02  0.10570000000E+00 0.  1.
<mgrwt>
<rscale>  0 0.20002749E+02</rscale>
<asrwt>0</asrwt>
<pdfrwt beam="2">  1        4 0.26395940E-02 0.20002749E+02</pdfrwt>
<pdfrwt beam="1">  1       -4 0.89692376E-03 0.20002749E+02</pdfrwt>
<totfact> 0.12835703E+06</totfact>
</mgrwt>
</event>
<event>
 5    1  0.4769326E-007  0.2000166E+02  0.7818608E-02  0.1745295E+00
         -4   -1    0    0    0  501 -0.00000000000E+00  0.00000000000E+00  0.20246464171E+01  0.24729725260E+01  0.14200000000E+01 0.  1.
          4   -1    0    0  501    0  0.00000000000E+00 -0.00000000000E+00 -0.44014421826E+02  0.44037321997E+02  0.14200000000E+01 0. -1.
       1023    2    1    2    0    0  0.00000000000E+00  0.00000000000E+00 -0.41989775409E+02  0.46510294523E+02  0.20001656375E+02 0.  0.
        -13    1    3    3    0    0  0.39989682445E+00  0.99922485583E+01 -0.21043842474E+02  0.23299343924E+02  0.10570000000E+00 0. -1.
         13    1    3    3    0    0 -0.39989682445E+00 -0.99922485583E+01 -0.20945932935E+02  0.23210950600E+02  0.10570000000E+00 0.  1.
<mgrwt>
<rscale>  0 0.20001656E+02</rscale>
<asrwt>0</asrwt>
<pdfrwt beam="2">  1        4 0.68076970E-02 0.20001656E+02</pdfrwt>
<pdfrwt beam="1">  1       -4 0.34773227E-03 0.20001656E+02</pdfrwt>
<totfact> 0.11667587E+06</totfact>
</mgrwt>
</event>
<event>
 5    1  0.5026030E-007  0.2000317E+02  0.7818608E-02  0.1745265E+00
         -4   -1    0    0    0  501 -0.00000000000E+00  0.00000000000E+00  0.87080142139E+01  0.88230330131E+01  0.14200000000E+01 0. -1.
          4   -1    0    0  501    0  0.00000000000E+00 -0.00000000000E+00 -0.11252012869E+02  0.11341260671E+02  0.14200000000E+01 0.  1.
       1023    2    1    2    0    0  0.00000000000E+00  0.00000000000E+00 -0.25439986548E+01  0.20164293684E+02  0.20003170014E+02 0.  0.
        -13    1    3    3    0    0  0.43187833075E+01 -0.90203936900E+01 -0.13060140149E+01  0.10086438255E+02  0.10570000000E+00 0.  1.
         13    1    3    3    0    0 -0.43187833075E+01  0.90203936900E+01 -0.12379846399E+01  0.10077855428E+02  0.10570000000E+00 0. -1.
<mgrwt>
<rscale>  0 0.20003170E+02</rscale>
<asrwt>0</asrwt>
<pdfrwt beam="2">  1        4 0.17467917E-02 0.20003170E+02</pdfrwt>
<pdfrwt beam="1">  1       -4 0.13554073E-02 0.20003170E+02</pdfrwt>
<totfact> 0.13000068E+06</totfact>
</mgrwt>
</event>
<event>
 5    1  0.4710515E-007  0.2000208E+02  0.7818608E-02  0.1745287E+00
          4   -1    0    0  501    0  0.00000000000E+00  0.00000000000E+00  0.58389874410E+00  0.15353624143E+01  0.14200000000E+01 0.  1.
         -4   -1    0    0    0  501 -0.00000000000E+00 -0.00000000000E+00 -0.93432828118E+02  0.93443618135E+02  0.14200000000E+01 0. -1.
       1023    2    1    2    0    0  0.00000000000E+00  0.00000000000E+00 -0.92848929374E+02  0.94978980550E+02  0.20002076399E+02 0.  0.
        -13    1    3    3    0    0 -0.59653345911E+01 -0.80264503447E+01 -0.46321448169E+02  0.47388784062E+02  0.10570000000E+00 0.  1.
         13    1    3    3    0    0  0.59653345911E+01  0.80264503447E+01 -0.46527481205E+02  0.47590196487E+02  0.10570000000E+00 0. -1.
<mgrwt>
<rscale>  0 0.20002076E+02</rscale>
<asrwt>0</asrwt>
<pdfrwt beam="1">  1        4 0.16385016E-03 0.20002076E+02</pdfrwt>
<pdfrwt beam="2">  1       -4 0.14448294E-01 0.20002076E+02</pdfrwt>
<totfact> 0.99445569E+05</totfact>
</mgrwt>
</event>
<event>
 5    1  0.4710515E-007  0.2000175E+02  0.7818608E-02  0.1745293E+00
         -4   -1    0    0    0  501 -0.00000000000E+00  0.00000000000E+00  0.42282972259E+01  0.44603696518E+01  0.14200000000E+01 0.  1.
          4   -1    0    0  501    0  0.00000000000E+00 -0.00000000000E+00 -0.22767725209E+02  0.22811964211E+02  0.14200000000E+01 0. -1.
       1023    2    1    2    0    0  0.00000000000E+00  0.00000000000E+00 -0.18539427983E+02  0.27272333863E+02  0.20001745034E+02 0.  0.
        -13    1    3    3    0    0  0.89922645112E+01  0.43749241709E+01 -0.93707975670E+01  0.13704882417E+02  0.10570000000E+00 0.  1.
         13    1    3    3    0    0 -0.89922645112E+01 -0.43749241709E+01 -0.91686304158E+01  0.13567451446E+02  0.10570000000E+00 0. -1.
<mgrwt>
<rscale>  0 0.20001745E+02</rscale>
<asrwt>0</asrwt>
<pdfrwt beam="2">  1        4 0.35239816E-02 0.20001745E+02</pdfrwt>
<pdfrwt beam="1">  1       -4 0.67176200E-03 0.20001745E+02</pdfrwt>
<totfact> 0.12598498E+06</totfact>
</mgrwt>
</event>
<event>
 5    1  0.5216612E-007  0.2000168E+02  0.7818608E-02  0.1745295E+00
          4   -1    0    0  501    0  0.00000000000E+00  0.00000000000E+00  0.74655892317E+00  0.16042911911E+01  0.14200000000E+01 0. -1.
         -4   -1    0    0    0  501 -0.00000000000E+00 -0.00000000000E+00 -0.84224009766E+02  0.84235979374E+02  0.14200000000E+01 0.  1.
       1023    2    1    2    0    0  0.00000000000E+00  0.00000000000E+00 -0.83477450843E+02  0.85840270565E+02  0.20001681215E+02 0.  0.
        -13    1    3    3    0    0 -0.99999541611E+01 -0.80956847990E-01 -0.41731128378E+02  0.42912747354E+02  0.10570000000E+00 0. -1.
         13    1    3    3    0    0  0.99999541611E+01  0.80956847990E-01 -0.41746322465E+02  0.42927523212E+02  0.10570000000E+00 0.  1.
<mgrwt>
<rscale>  0 0.20001681E+02</rscale>
<asrwt>0</asrwt>
<pdfrwt beam="1">  1        4 0.18175543E-03 0.20001681E+02</pdfrwt>
<pdfrwt beam="2">  1       -4 0.13024435E-01 0.20001681E+02</pdfrwt>
<totfact> 0.10222554E+06</totfact>
</mgrwt>
</event>
<event>
 5    1  0.4710515E-007  0.2000297E+02  0.7818608E-02  0.1745269E+00
         -4   -1    0    0    0  501 -0.00000000000E+00  0.00000000000E+00  0.92532099902E+01  0.93615327337E+01  0.14200000000E+01 0.  1.
          4   -1    0    0  501    0  0.00000000000E+00 -0.00000000000E+00 -0.10591381881E+02  0.10686148518E+02  0.14200000000E+01 0. -1.
       1023    2    1    2    0    0  0.00000000000E+00  0.00000000000E+00 -0.13381718910E+01  0.20047681252E+02  0.20002970269E+02 0.  0.
        -13    1    3    3    0    0 -0.91946536000E+01 -0.39340005314E+01 -0.69188316712E+00  0.10025362328E+02  0.10570000000E+00 0.  1.
         13    1    3    3    0    0  0.91946536000E+01  0.39340005314E+01 -0.64628872388E+00  0.10022318924E+02  0.10570000000E+00 0. -1.
<mgrwt>
<rscale>  0 0.20002970E+02</rscale>
<asrwt>0</asrwt>
<pdfrwt beam="2">  1        4 0.16450656E-02 0.20002970E+02</pdfrwt>
<pdfrwt beam="1">  1       -4 0.14391930E-02 0.20002970E+02</pdfrwt>
<totfact> 0.13007270E+06</totfact>
</mgrwt>
</event>
<event>
 4    1  0.4710515E-007  0.2002236E+02  0.7818608E-02  0.1744884E+00
          4   -1    0    0  501    0  0.00000000000E+00  0.00000000000E+00  0.33590799963E+02  0.33620800736E+02  0.14200000000E+01 0. -1.
         -4   -1    0    0    0  501 -0.00000000000E+00 -0.00000000000E+00 -0.27815072430E+01  0.31230085723E+01  0.14200000000E+01 0.  1.
        -13    1    1    2    0    0 -0.91266642342E+01 -0.40912748561E+01  0.14630294719E+02  0.17722619052E+02  0.10570000000E+00 0.  1.
         13    1    1    2    0    0  0.91266642342E+01  0.40912748561E+01  0.16178998001E+02  0.19021190257E+02  0.10570000000E+00 0. -1.
<mgrwt>
<rscale>  0 0.20022363E+02</rscale>
<asrwt>0</asrwt>
<pdfrwt beam="1">  1        4 0.51963922E-02 0.20022363E+02</pdfrwt>
<pdfrwt beam="2">  1       -4 0.45650130E-03 0.20022363E+02</pdfrwt>
<totfact> 0.12089534E+06</totfact>
</mgrwt>
</event>
<event>
 4    1  0.4710515E-007  0.2006476E+02  0.7818608E-02  0.1744043E+00
          4   -1    0    0  501    0  0.00000000000E+00  0.00000000000E+00  0.58481463047E+02  0.58498700158E+02  0.14200000000E+01 0. -1.
         -4   -1    0    0    0  501 -0.00000000000E+00 -0.00000000000E+00 -0.14075806197E+01  0.19994207163E+01  0.14200000000E+01 0.  1.
        -13    1    1    2    0    0  0.31641527302E+01 -0.95192893999E+01  0.28818785620E+02  0.30514952242E+02  0.10570000000E+00 0.  1.
         13    1    1    2    0    0 -0.31641527302E+01  0.95192893999E+01  0.28255096807E+02  0.29983168633E+02  0.10570000000E+00 0. -1.
<mgrwt>
<rscale>  0 0.20064760E+02</rscale>
<asrwt>0</asrwt>
<pdfrwt beam="1">  1        4 0.90440013E-02 0.20064760E+02</pdfrwt>
<pdfrwt beam="2">  1       -4 0.26340293E-03 0.20064760E+02</pdfrwt>
<totfact> 0.11027794E+06</totfact>
</mgrwt>
</event>
<event>
 5    1  0.4710515E-007  0.2000135E+02  0.7818608E-02  0.1745301E+00
          4   -1    0    0  501    0  0.00000000000E+00  0.00000000000E+00  0.78067367545E+02  0.78080280964E+02  0.14200000000E+01 0. -1.
         -4   -1    0    0    0  501 -0.00000000000E+00 -0.00000000000E+00 -0.87053098427E+00  0.16656002505E+01  0.14200000000E+01 0.  1.
       1023    2    1    2    0    0  0.00000000000E+00  0.00000000000E+00  0.77196836561E+02  0.79745881215E+02  0.20001349847E+02 0.  0.
        -13    1    3    3    0    0  0.84495533889E+01 -0.53483952034E+01  0.38778617209E+02  0.40047379550E+02  0.10570000000E+00 0. -1.
         13    1    3    3    0    0 -0.84495533889E+01  0.53483952034E+01  0.38418219352E+02  0.39698501664E+02  0.10570000000E+00 0.  1.
<mgrwt>
<rscale>  0 0.20001350E+02</rscale>
<asrwt>0</asrwt>
<pdfrwt beam="1">  1        4 0.12072517E-01 0.20001350E+02</pdfrwt>
<pdfrwt beam="2">  1       -4 0.19608035E-03 0.20001350E+02</pdfrwt>
<totfact> 0.10418066E+06</totfact>
</mgrwt>
</event>
<event>
 4    1  0.4710515E-007  0.2002318E+02  0.7818608E-02  0.1744868E+00
         -4   -1    0    0    0  501 -0.00000000000E+00  0.00000000000E+00  0.97891948503E+02  0.97902247072E+02  0.14200000000E+01 0. -1.
          4   -1    0    0  501    0  0.00000000000E+00 -0.00000000000E+00 -0.51615210864E+00  0.15108980771E+01  0.14200000000E+01 0.  1.
        -13    1    1    2    0    0  0.23405166282E+01  0.97285567303E+01  0.50241521088E+02  0.51228355897E+02  0.10570000000E+00 0. -1.
         13    1    1    2    0    0 -0.23405166282E+01 -0.97285567303E+01  0.47134275306E+02  0.48184789252E+02  0.10570000000E+00 0.  1.
<mgrwt>
<rscale>  0 0.20023179E+02</rscale>
<asrwt>0</asrwt>
<pdfrwt beam="2">  1        4 0.15671918E-03 0.20023179E+02</pdfrwt>
<pdfrwt beam="1">  1       -4 0.15137606E-01 0.20023179E+02</pdfrwt>
<totfact> 0.97953255E+05</totfact>
</mgrwt>
</event>
<event>
 5    1  0.4710515E-007  0.2001102E+02  0.7818608E-02  0.1745109E+00
          4   -1    0    0  501    0  0.00000000000E+00  0.00000000000E+00  0.11447629600E+03  0.11448510272E+03  0.14200000000E+01 0.  1.
         -4   -1    0    0    0  501 -0.00000000000E+00 -0.00000000000E+00 -0.28330140831E+00  0.14479846988E+01  0.14200000000E+01 0. -1.
       1023    2    1    2    0    0  0.00000000000E+00  0.00000000000E+00  0.11419299459E+03  0.11593308742E+03  0.20011015609E+02 0.  0.
        -13    1    3    3    0    0  0.22678574949E+00 -0.99999753200E+01  0.58366782837E+02  0.59217762955E+02  0.10570000000E+00 0.  1.
         13    1    3    3    0    0 -0.22678574949E+00  0.99999753200E+01  0.55826211752E+02  0.56715324466E+02  0.10570000000E+00 0. -1.
<mgrwt>
<rscale>  0 0.20011016E+02</rscale>
<asrwt>0</asrwt>
<pdfrwt beam="1">  1        4 0.17702013E-01 0.20011016E+02</pdfrwt>
<pdfrwt beam="2">  1       -4 0.13385324E-03 0.20011016E+02</pdfrwt>
<totfact> 0.93591991E+05</totfact>
</mgrwt>
</event>
<event>
 5    1  0.4710515E-007  0.2000131E+02  0.7818608E-02  0.1745302E+00
         -4   -1    0    0    0  501 -0.00000000000E+00  0.00000000000E+00  0.23618307911E+02  0.23660956629E+02  0.14200000000E+01 0.  1.
          4   -1    0    0  501    0  0.00000000000E+00 -0.00000000000E+00 -0.40676110455E+01  0.43083476667E+01  0.14200000000E+01 0. -1.
       1023    2    1    2    0    0  0.00000000000E+00  0.00000000000E+00  0.19550696866E+02  0.27969304296E+02  0.20001305828E+02 0.  0.
        -13    1    3    3    0    0  0.65501421188E+01  0.75562376855E+01  0.97358834447E+01  0.13957065905E+02  0.10570000000E+00 0. -1.
         13    1    3    3    0    0 -0.65501421188E+01 -0.75562376855E+01  0.98148134211E+01  0.14012238391E+02  0.10570000000E+00 0.  1.
<mgrwt>
<rscale>  0 0.20001306E+02</rscale>
<asrwt>0</asrwt>
<pdfrwt beam="2">  1        4 0.64758521E-03 0.20001306E+02</pdfrwt>
<pdfrwt beam="1">  1       -4 0.36553846E-02 0.20001306E+02</pdfrwt>
<totfact> 0.12561528E+06</totfact>
</mgrwt>
</event>
<event>
 5    1  0.4710515E-007  0.2000518E+02  0.7818608E-02  0.1745225E+00
          4   -1    0    0  501    0  0.00000000000E+00  0.00000000000E+00  0.39166870026E+01  0.41661537509E+01  0.14200000000E+01 0. -1.
         -4   -1    0    0    0  501 -0.00000000000E+00 -0.00000000000E+00 -0.24485930420E+02  0.24527070525E+02  0.14200000000E+01 0.  1.
       1023    2    1    2    0    0  0.00000000000E+00  0.00000000000E+00 -0.20569243417E+02  0.28693224276E+02  0.20005182943E+02 0.  0.
        -13    1    3    3    0    0 -0.98551697357E+01  0.16984625673E+01 -0.10539255736E+02  0.14529151027E+02  0.10570000000E+00 0. -1.
         13    1    3    3    0    0  0.98551697357E+01 -0.16984625673E+01 -0.10029987681E+02  0.14164073248E+02  0.10570000000E+00 0.  1.
<mgrwt>
<rscale>  0 0.20005183E+02</rscale>
<asrwt>0</asrwt>
<pdfrwt beam="1">  1        4 0.62492162E-03 0.20005183E+02</pdfrwt>
<pdfrwt beam="2">  1       -4 0.37894205E-02 0.20005183E+02</pdfrwt>
<totfact> 0.12517969E+06</totfact>
</mgrwt>
</event>
<event>
 5    1  0.4710515E-007  0.2000563E+02  0.7818608E-02  0.1745216E+00
         -4   -1    0    0    0  501 -0.00000000000E+00  0.00000000000E+00  0.39761591177E+02  0.39786939225E+02  0.14200000000E+01 0.  1.
          4   -1    0    0  501    0  0.00000000000E+00 -0.00000000000E+00 -0.22877585308E+01  0.26926268020E+01  0.14200000000E+01 0. -1.
       1023    2    1    2    0    0  0.00000000000E+00  0.00000000000E+00  0.37473832646E+02  0.42479566027E+02  0.20005634123E+02 0.  0.
        -13    1    3    3    0    0 -0.93975660587E+01 -0.34244950848E+01  0.18606673864E+02  0.21124888146E+02  0.10570000000E+00 0. -1.
         13    1    3    3    0    0  0.93975660587E+01  0.34244950848E+01  0.18867158782E+02  0.21354677881E+02  0.10570000000E+00 0.  1.
<mgrwt>
<rscale>  0 0.20005634E+02</rscale>
<asrwt>0</asrwt>
<pdfrwt beam="2">  1        4 0.38505645E-03 0.20005634E+02</pdfrwt>
<pdfrwt beam="1">  1       -4 0.61502608E-02 0.20005634E+02</pdfrwt>
<totfact> 0.11841981E+06</totfact>
</mgrwt>
</event>
<event>
 4    1  0.4710515E-007  0.2002467E+02  0.7818608E-02  0.1744838E+00
         -4   -1    0    0    0  501 -0.00000000000E+00  0.00000000000E+00  0.30381610277E+01  0.33536282487E+01  0.14200000000E+01 0.  1.
          4   -1    0    0  501    0  0.00000000000E+00 -0.00000000000E+00 -0.31034893867E+02  0.31067362897E+02  0.14200000000E+01 0. -1.
        -13    1    1    2    0    0 -0.99342204749E+01  0.12192856930E+01 -0.14420568736E+02  0.17553898974E+02  0.10570000000E+00 0.  1.
         13    1    1    2    0    0  0.99342204749E+01 -0.12192856930E+01 -0.13576164104E+02  0.16867092171E+02  0.10570000000E+00 0. -1.
<mgrwt>
<rscale>  0 0.20024674E+02</rscale>
<asrwt>0</asrwt>
<pdfrwt beam="2">  1        4 0.48013632E-02 0.20024674E+02</pdfrwt>
<pdfrwt beam="1">  1       -4 0.49417374E-03 0.20024674E+02</pdfrwt>
<totfact> 0.12200059E+06</totfact>
</mgrwt>
</event>
<event>
 5    1  0.4710515E-007  0.2000924E+02  0.7818608E-02  0.1745144E+00
         -4   -1    0    0    0  501 -0.00000000000E+00  0.00000000000E+00  0.17789530348E+02  0.17846114143E+02  0.14200000000E+01 0. -1.
          4   -1    0    0  501    0  0.00000000000E+00 -0.00000000000E+00 -0.54701674573E+01  0.56514716677E+01  0.14200000000E+01 0.  1.
       1023    2    1    2    0    0  0.00000000000E+00  0.00000000000E+00  0.12319362890E+02  0.23497585810E+02  0.20009243786E+02 0.  0.
        -13    1    3    3    0    0 -0.10530756438E+01 -0.99464299925E+01  0.63970276851E+01  0.11873229283E+02  0.10570000000E+00 0.  1.
         13    1    3    3    0    0  0.10530756438E+01  0.99464299925E+01  0.59223352054E+01  0.11624356528E+02  0.10570000000E+00 0. -1.
<mgrwt>
<rscale>  0 0.20009244E+02</rscale>
<asrwt>0</asrwt>
<pdfrwt beam="2">  1        4 0.85986331E-03 0.20009244E+02</pdfrwt>
<pdfrwt beam="1">  1       -4 0.27551499E-02 0.20009244E+02</pdfrwt>
<totfact> 0.12798145E+06</totfact>
</mgrwt>
</event>
<event>
 5    1  0.4983245E-007  0.2000136E+02  0.7818608E-02  0.1745301E+00
          4   -1    0    0  501    0  0.00000000000E+00  0.00000000000E+00  0.22298707759E+01  0.26436194274E+01  0.14200000000E+01 0.  1.
         -4   -1    0    0    0  501 -0.00000000000E+00 -0.00000000000E+00 -0.40616719002E+02  0.40641533712E+02  0.14200000000E+01 0. -1.
       1023    2    1    2    0    0  0.00000000000E+00  0.00000000000E+00 -0.38386848226E+02  0.43285153140E+02  0.20001359094E+02 0.  0.
        -13    1    3    3    0    0 -0.88125067058E+01 -0.47267380492E+01 -0.19172679874E+02  0.21624179824E+02  0.10570000000E+00 0.  1.
         13    1    3    3    0    0  0.88125067058E+01  0.47267380492E+01 -0.19214168352E+02  0.21660973315E+02  0.10570000000E+00 0. -1.
<mgrwt>
<rscale>  0 0.20001359E+02</rscale>
<asrwt>0</asrwt>
<pdfrwt beam="1">  1        4 0.37679271E-03 0.20001359E+02</pdfrwt>
<pdfrwt beam="2">  1       -4 0.62824612E-02 0.20001359E+02</pdfrwt>
<totfact> 0.11810690E+06</totfact>
</mgrwt>
</event>
<event>
 5    1  0.4710515E-007  0.2000236E+02  0.7818608E-02  0.1745281E+00
          4   -1    0    0  501    0  0.00000000000E+00  0.00000000000E+00  0.50929328502E+00  0.15085687423E+01  0.14200000000E+01 0. -1.
         -4   -1    0    0    0  501 -0.00000000000E+00 -0.00000000000E+00 -0.98131289207E+02  0.98141562661E+02  0.14200000000E+01 0.  1.
       1023    2    1    2    0    0  0.00000000000E+00  0.00000000000E+00 -0.97621995922E+02  0.99650131403E+02  0.20002364880E+02 0.  0.
        -13    1    3    3    0    0  0.98235738130E+01  0.18734548572E+01 -0.48778655655E+02  0.49793381644E+02  0.10570000000E+00 0.  1.
         13    1    3    3    0    0 -0.98235738130E+01 -0.18734548572E+01 -0.48843340267E+02  0.49856749759E+02  0.10570000000E+00 0. -1.
<mgrwt>
<rscale>  0 0.20002365E+02</rscale>
<asrwt>0</asrwt>
<pdfrwt beam="1">  1        4 0.15601050E-03 0.20002365E+02</pdfrwt>
<pdfrwt beam="2">  1       -4 0.15174771E-01 0.20002365E+02</pdfrwt>
<totfact> 0.98089097E+05</totfact>
</mgrwt>
</event>
<event>
 5    1  0.4997807E-007  0.2000181E+02  0.7818608E-02  0.1745292E+00
         -4   -1    0    0    0  501 -0.00000000000E+00  0.00000000000E+00  0.55606241491E+02  0.55624369595E+02  0.14200000000E+01 0.  1.
          4   -1    0    0  501    0  0.00000000000E+00 -0.00000000000E+00 -0.14970501688E+01  0.20633853755E+01  0.14200000000E+01 0. -1.
       1023    2    1    2    0    0  0.00000000000E+00  0.00000000000E+00  0.54109191322E+02  0.57687754970E+02  0.20001812116E+02 0.  0.
        -13    1    3    3    0    0  0.30544978638E+01 -0.95224455553E+01  0.27040783579E+02  0.28830922212E+02  0.10570000000E+00 0.  1.
         13    1    3    3    0    0 -0.30544978638E+01  0.95224455553E+01  0.27068407743E+02  0.28856832758E+02  0.10570000000E+00 0. -1.
<mgrwt>
<rscale>  0 0.20001812E+02</rscale>
<asrwt>0</asrwt>
<pdfrwt beam="2">  1        4 0.27527415E-03 0.20001812E+02</pdfrwt>
<pdfrwt beam="1">  1       -4 0.85997645E-02 0.20001812E+02</pdfrwt>
<totfact> 0.11206394E+06</totfact>
</mgrwt>
</event>
<event>
 4    1  0.4710515E-007  0.2001242E+02  0.7818608E-02  0.1745081E+00
          4   -1    0    0  501    0  0.00000000000E+00  0.00000000000E+00  0.31778274611E+02  0.31809984868E+02  0.14200000000E+01 0. -1.
         -4   -1    0    0    0  501 -0.00000000000E+00 -0.00000000000E+00 -0.29556449830E+01  0.32790604242E+01  0.14200000000E+01 0.  1.
        -13    1    1    2    0    0 -0.99325233029E-02  0.10001789874E+02  0.14898511159E+02  0.17944712497E+02  0.10570000000E+00 0. -1.
         13    1    1    2    0    0  0.99325233029E-02 -0.10001789874E+02  0.13924118469E+02  0.17144332795E+02  0.10570000000E+00 0.  1.
<mgrwt>
<rscale>  0 0.20012424E+02</rscale>
<asrwt>0</asrwt>
<pdfrwt beam="1">  1        4 0.49162826E-02 0.20012424E+02</pdfrwt>
<pdfrwt beam="2">  1       -4 0.48203198E-03 0.20012424E+02</pdfrwt>
<totfact> 0.12182252E+06</totfact>
</mgrwt>
</event>
<event>
 4    1  0.4710515E-007  0.2003947E+02  0.7818608E-02  0.1744544E+00
          4   -1    0    0  501    0  0.00000000000E+00  0.00000000000E+00  0.75231777802E+01  0.76560174968E+01  0.14200000000E+01 0. -1.
         -4   -1    0    0    0  501 -0.00000000000E+00 -0.00000000000E+00 -0.13056309249E+02  0.13133301611E+02  0.14200000000E+01 0.  1.
        -13    1    1    2    0    0 -0.52909367781E+01 -0.85079405425E+01 -0.26945078924E+01  0.10375481171E+02  0.10570000000E+00 0. -1.
         13    1    1    2    0    0  0.52909367781E+01  0.85079405425E+01 -0.28386235762E+01  0.10413837936E+02  0.10570000000E+00 0.  1.
<mgrwt>
<rscale>  0 0.20039467E+02</rscale>
<asrwt>0</asrwt>
<pdfrwt beam="1">  1        4 0.11735529E-02 0.20039467E+02</pdfrwt>
<pdfrwt beam="2">  1       -4 0.20248039E-02 0.20039467E+02</pdfrwt>
<totfact> 0.12915142E+06</totfact>
</mgrwt>
</event>
<event>
 5    1  0.4710515E-007  0.2001223E+02  0.7818608E-02  0.1745085E+00
         -4   -1    0    0    0  501 -0.00000000000E+00  0.00000000000E+00  0.36891351351E+01  0.39529884955E+01  0.14200000000E+01 0.  1.
          4   -1    0    0  501    0  0.00000000000E+00 -0.00000000000E+00 -0.25918780725E+02  0.25957650015E+02  0.14200000000E+01 0. -1.
       1023    2    1    2    0    0  0.00000000000E+00  0.00000000000E+00 -0.22229645590E+02  0.29910638510E+02  0.20012225089E+02 0.  0.
        -13    1    3    3    0    0 -0.47517387957E+01 -0.88025330582E+01 -0.11440587687E+02  0.15197428366E+02  0.10570000000E+00 0.  1.
         13    1    3    3    0    0  0.47517387957E+01  0.88025330582E+01 -0.10789057903E+02  0.14713210144E+02  0.10570000000E+00 0. -1.
<mgrwt>
<rscale>  0 0.20012225E+02</rscale>
<asrwt>0</asrwt>
<pdfrwt beam="2">  1        4 0.40107910E-02 0.20012225E+02</pdfrwt>
<pdfrwt beam="1">  1       -4 0.59084562E-03 0.20012225E+02</pdfrwt>
<totfact> 0.12444947E+06</totfact>
</mgrwt>
</event>
<event>
 5    1  0.4710515E-007  0.2000271E+02  0.7818608E-02  0.1745274E+00
          4   -1    0    0  501    0  0.00000000000E+00  0.00000000000E+00  0.72818059755E+01  0.74189688141E+01  0.14200000000E+01 0.  1.
         -4   -1    0    0    0  501 -0.00000000000E+00 -0.00000000000E+00 -0.13433482513E+02  0.13508325301E+02  0.14200000000E+01 0. -1.
       1023    2    1    2    0    0  0.00000000000E+00  0.00000000000E+00 -0.61516765380E+01  0.20927294115E+02  0.20002712685E+02 0.  0.
        -13    1    3    3    0    0 -0.85871543327E+01  0.51245906169E+01 -0.32052813344E+01  0.10501697455E+02  0.10570000000E+00 0.  1.
         13    1    3    3    0    0  0.85871543327E+01 -0.51245906169E+01 -0.29463952036E+01  0.10425596660E+02  0.10570000000E+00 0. -1.
<mgrwt>
<rscale>  0 0.20002713E+02</rscale>
<asrwt>0</asrwt>
<pdfrwt beam="1">  1        4 0.11365860E-02 0.20002713E+02</pdfrwt>
<pdfrwt beam="2">  1       -4 0.20829977E-02 0.20002713E+02</pdfrwt>
<totfact> 0.12955459E+06</totfact>
</mgrwt>
</event>
<event>
 5    1  0.4710515E-007  0.2000131E+02  0.7818608E-02  0.1745302E+00
         -4   -1    0    0    0  501 -0.00000000000E+00  0.00000000000E+00  0.28360813886E+01  0.31717120996E+01  0.14200000000E+01 0. -1.
          4   -1    0    0  501    0  0.00000000000E+00 -0.00000000000E+00 -0.32942674103E+02  0.32973264580E+02  0.14200000000E+01 0.  1.
       1023    2    1    2    0    0  0.00000000000E+00  0.00000000000E+00 -0.30106592714E+02  0.36144976679E+02  0.20001310314E+02 0.  0.
        -13    1    3    3    0    0 -0.36765337087E+01  0.92997140806E+01 -0.15019536895E+02  0.18044368737E+02  0.10570000000E+00 0.  1.
         13    1    3    3    0    0  0.36765337087E+01 -0.92997140806E+01 -0.15087055819E+02  0.18100607942E+02  0.10570000000E+00 0. -1.
<mgrwt>
<rscale>  0 0.20001310E+02</rscale>
<asrwt>0</asrwt>
<pdfrwt beam="2">  1        4 0.50962743E-02 0.20001310E+02</pdfrwt>
<pdfrwt beam="1">  1       -4 0.46449110E-03 0.20001310E+02</pdfrwt>
<totfact> 0.12144344E+06</totfact>
</mgrwt>
</event>
<event>
 5    1  0.5340814E-007  0.2000153E+02  0.7818608E-02  0.1745298E+00
          4   -1    0    0  501    0  0.00000000000E+00  0.00000000000E+00  0.78172952557E+01  0.79452190099E+01  0.14200000000E+01 0.  1.
         -4   -1    0    0    0  501 -0.00000000000E+00 -0.00000000000E+00 -0.12521895988E+02  0.12602153750E+02  0.14200000000E+01 0. -1.
       1023    2    1    2    0    0  0.00000000000E+00  0.00000000000E+00 -0.47046007323E+01  0.20547372760E+02  0.20001531423E+02 0.  0.
        -13    1    3    3    0    0 -0.95873774306E+01  0.28433306569E+01 -0.23086301806E+01  0.10263687496E+02  0.10570000000E+00 0. -1.
         13    1    3    3    0    0  0.95873774306E+01 -0.28433306569E+01 -0.23959705517E+01  0.10283685263E+02  0.10570000000E+00 0.  1.
<mgrwt>
<rscale>  0 0.20001531E+02</rscale>
<asrwt>0</asrwt>
<pdfrwt beam="1">  1        4 0.12186748E-02 0.20001531E+02</pdfrwt>
<pdfrwt beam="2">  1       -4 0.19424595E-02 0.20001531E+02</pdfrwt>
<totfact> 0.12979490E+06</totfact>
</mgrwt>
</event>
<event>
 5    1  0.4779498E-007  0.2000145E+02  0.7818608E-02  0.1745299E+00
          4   -1    0    0  501    0  0.00000000000E+00  0.00000000000E+00  0.38352584070E+01  0.40896952268E+01  0.14200000000E+01 0.  1.
         -4   -1    0    0    0  501 -0.00000000000E+00 -0.00000000000E+00 -0.24965144278E+02  0.25005495972E+02  0.14200000000E+01 0. -1.
       1023    2    1    2    0    0  0.00000000000E+00  0.00000000000E+00 -0.21129885871E+02  0.29095191199E+02  0.20001451797E+02 0.  0.
        -13    1    3    3    0    0  0.99949932813E+01 -0.31696772044E+00 -0.10644441854E+02  0.14605330332E+02  0.10570000000E+00 0.  1.
         13    1    3    3    0    0 -0.99949932813E+01  0.31696772044E+00 -0.10485444017E+02  0.14489860867E+02  0.10570000000E+00 0. -1.
<mgrwt>
<rscale>  0 0.20001452E+02</rscale>
<asrwt>0</asrwt>
<pdfrwt beam="1">  1        4 0.61271581E-03 0.20001452E+02</pdfrwt>
<pdfrwt beam="2">  1       -4 0.38634674E-02 0.20001452E+02</pdfrwt>
<totfact> 0.12501427E+06</totfact>
</mgrwt>
</event>
<event>
 4    1  0.4878465E-007  0.2027272E+02  0.7818608E-02  0.1739958E+00
         -4   -1    0    0    0  501 -0.00000000000E+00  0.00000000000E+00  0.14205679241E+02  0.14276474449E+02  0.14200000000E+01 0.  1.
          4   -1    0    0  501    0  0.00000000000E+00 -0.00000000000E+00 -0.70732166500E+01  0.72143463860E+01  0.14200000000E+01 0. -1.
        -13    1    1    2    0    0  0.92493749125E+01  0.39685073327E+01  0.22964806723E+01  0.10324000324E+02  0.10570000000E+00 0.  1.
         13    1    1    2    0    0 -0.92493749125E+01 -0.39685073327E+01  0.48359819185E+01  0.11166820511E+02  0.10570000000E+00 0. -1.
<mgrwt>
<rscale>  0 0.20272724E+02</rscale>
<asrwt>0</asrwt>
<pdfrwt beam="2">  1        4 0.11044891E-02 0.20272724E+02</pdfrwt>
<pdfrwt beam="1">  1       -4 0.22017910E-02 0.20272724E+02</pdfrwt>
<totfact> 0.12572798E+06</totfact>
</mgrwt>
</event>
<event>
 5    1  0.5135919E-007  0.2000123E+02  0.7818608E-02  0.1745304E+00
          4   -1    0    0  501    0  0.00000000000E+00  0.00000000000E+00  0.53233276954E+01  0.55094661949E+01  0.14200000000E+01 0. -1.
         -4   -1    0    0    0  501 -0.00000000000E+00 -0.00000000000E+00 -0.18250532630E+02  0.18305691499E+02  0.14200000000E+01 0.  1.
       1023    2    1    2    0    0  0.00000000000E+00  0.00000000000E+00 -0.12927204934E+02  0.23815157694E+02  0.20001227677E+02 0.  0.
        -13    1    3    3    0    0 -0.99091864210E+01 -0.13450249060E+01 -0.64708580761E+01  0.11911517294E+02  0.10570000000E+00 0.  1.
         13    1    3    3    0    0  0.99091864210E+01  0.13450249060E+01 -0.64563468581E+01  0.11903640400E+02  0.10570000000E+00 0. -1.
<mgrwt>
<rscale>  0 0.20001228E+02</rscale>
<asrwt>0</asrwt>
<pdfrwt beam="1">  1        4 0.83753483E-03 0.20001228E+02</pdfrwt>
<pdfrwt beam="2">  1       -4 0.28263356E-02 0.20001228E+02</pdfrwt>
<totfact> 0.12790601E+06</totfact>
</mgrwt>
</event>
<event>
 4    1  0.4710515E-007  0.2002918E+02  0.7818608E-02  0.1744748E+00
         -4   -1    0    0    0  501 -0.00000000000E+00  0.00000000000E+00  0.57518184264E+02  0.57535709964E+02  0.14200000000E+01 0. -1.
          4   -1    0    0  501    0  0.00000000000E+00 -0.00000000000E+00 -0.14337286904E+01  0.20179142592E+01  0.14200000000E+01 0.  1.
        -13    1    1    2    0    0 -0.53181916541E+01 -0.84767155240E+01  0.26918008144E+02  0.28718081473E+02  0.10570000000E+00 0.  1.
         13    1    1    2    0    0  0.53181916541E+01  0.84767155240E+01  0.29166447430E+02  0.30835542750E+02  0.10570000000E+00 0. -1.
<mgrwt>
<rscale>  0 0.20029179E+02</rscale>
<asrwt>0</asrwt>
<pdfrwt beam="2">  1        4 0.26685919E-03 0.20029179E+02</pdfrwt>
<pdfrwt beam="1">  1       -4 0.88952349E-02 0.20029179E+02</pdfrwt>
<totfact> 0.11103401E+06</totfact>
</mgrwt>
</event>
<event>
 5    1  0.4710515E-007  0.2000615E+02  0.7818608E-02  0.1745206E+00
          4   -1    0    0  501    0  0.00000000000E+00  0.00000000000E+00  0.37438735500E+02  0.37465655151E+02  0.14200000000E+01 0.  1.
         -4   -1    0    0    0  501 -0.00000000000E+00 -0.00000000000E+00 -0.24541195020E+01  0.28353311147E+01  0.14200000000E+01 0. -1.
       1023    2    1    2    0    0  0.00000000000E+00  0.00000000000E+00  0.34984615998E+02  0.40300986265E+02  0.20006152489E+02 0.  0.
        -13    1    3    3    0    0  0.64098441294E+00 -0.99815535167E+01  0.17673497388E+02  0.20307780628E+02  0.10570000000E+00 0. -1.
         13    1    3    3    0    0 -0.64098441294E+00  0.99815535167E+01  0.17311118610E+02  0.19993205637E+02  0.10570000000E+00 0.  1.
<mgrwt>
<rscale>  0 0.20006152E+02</rscale>
<asrwt>0</asrwt>
<pdfrwt beam="1">  1        4 0.57911996E-02 0.20006152E+02</pdfrwt>
<pdfrwt beam="2">  1       -4 0.40895160E-03 0.20006152E+02</pdfrwt>
<totfact> 0.11941187E+06</totfact>
</mgrwt>
</event>
<event>
 4    1  0.4710515E-007  0.2002075E+02  0.7818608E-02  0.1744916E+00
         -4   -1    0    0    0  501 -0.00000000000E+00  0.00000000000E+00  0.41061365366E+01  0.43447390321E+01  0.14200000000E+01 0.  1.
          4   -1    0    0  501    0  0.00000000000E+00 -0.00000000000E+00 -0.23454633856E+02  0.23497579649E+02  0.14200000000E+01 0. -1.
        -13    1    1    2    0    0  0.79896334419E+01  0.60150230179E+01 -0.10266997433E+02  0.14333078986E+02  0.10570000000E+00 0. -1.
         13    1    1    2    0    0 -0.79896334419E+01 -0.60150230179E+01 -0.90814998865E+01  0.13509239694E+02  0.10570000000E+00 0.  1.
<mgrwt>
<rscale>  0 0.20020748E+02</rscale>
<asrwt>0</asrwt>
<pdfrwt beam="2">  1        4 0.36300627E-02 0.20020748E+02</pdfrwt>
<pdfrwt beam="1">  1       -4 0.65337088E-03 0.20020748E+02</pdfrwt>
<totfact> 0.12543527E+06</totfact>
</mgrwt>
</event>
<event>
 4    1  0.4710515E-007  0.2009153E+02  0.7818608E-02  0.1743514E+00
         -4   -1    0    0    0  501 -0.00000000000E+00  0.00000000000E+00  0.43631189633E+02  0.43654290841E+02  0.14200000000E+01 0. -1.
          4   -1    0    0  501    0  0.00000000000E+00 -0.00000000000E+00 -0.20689834154E+01  0.25094007997E+01  0.14200000000E+01 0.  1.
        -13    1    1    2    0    0  0.69177206764E+01  0.72788374778E+01  0.20173834742E+02  0.22535108499E+02  0.10570000000E+00 0. -1.
         13    1    1    2    0    0 -0.69177206764E+01 -0.72788374778E+01  0.21388371476E+02  0.23628583142E+02  0.10570000000E+00 0.  1.
<mgrwt>
<rscale>  0 0.20091527E+02</rscale>
<asrwt>0</asrwt>
<pdfrwt beam="2">  1        4 0.35396042E-03 0.20091527E+02</pdfrwt>
<pdfrwt beam="1">  1       -4 0.67481458E-02 0.20091527E+02</pdfrwt>
<totfact> 0.11577323E+06</totfact>
</mgrwt>
</event>
<event>
 5    1  0.4710515E-007  0.2000721E+02  0.7818608E-02  0.1745185E+00
         -4   -1    0    0    0  501 -0.00000000000E+00  0.00000000000E+00  0.27716764970E+01  0.31142560274E+01  0.14200000000E+01 0. -1.
          4   -1    0    0  501    0  0.00000000000E+00 -0.00000000000E+00 -0.33645408908E+02  0.33675361031E+02  0.14200000000E+01 0.  1.
       1023    2    1    2    0    0  0.00000000000E+00  0.00000000000E+00 -0.30873732411E+02  0.36789617059E+02  0.20007212958E+02 0.  0.
        -13    1    3    3    0    0  0.87485349556E+01  0.48489995573E+01 -0.15241314899E+02  0.18230702480E+02  0.10570000000E+00 0.  1.
         13    1    3    3    0    0 -0.87485349556E+01 -0.48489995573E+01 -0.15632417512E+02  0.18558914579E+02  0.10570000000E+00 0. -1.
<mgrwt>
<rscale>  0 0.20007213E+02</rscale>
<asrwt>0</asrwt>
<pdfrwt beam="2">  1        4 0.52048728E-02 0.20007213E+02</pdfrwt>
<pdfrwt beam="1">  1       -4 0.45506807E-03 0.20007213E+02</pdfrwt>
<totfact> 0.12105887E+06</totfact>
</mgrwt>
</event>
<event>
 5    1  0.4710515E-007  0.2000228E+02  0.7818608E-02  0.1745283E+00
          4   -1    0    0  501    0  0.00000000000E+00  0.00000000000E+00  0.26968275100E+00  0.14453818825E+01  0.14200000000E+01 0.  1.
         -4   -1    0    0    0  501 -0.00000000000E+00 -0.00000000000E+00 -0.11545721966E+03  0.11546595157E+03  0.14200000000E+01 0. -1.
       1023    2    1    2    0    0  0.00000000000E+00  0.00000000000E+00 -0.11518753691E+03  0.11691133345E+03  0.20002280623E+02 0.  0.
        -13    1    3    3    0    0 -0.95073071350E+01  0.31018660469E+01 -0.57793960154E+02  0.58652906703E+02  0.10570000000E+00 0. -1.
         13    1    3    3    0    0  0.95073071350E+01 -0.31018660469E+01 -0.57393576754E+02  0.58258426747E+02  0.10570000000E+00 0.  1.
<mgrwt>
<rscale>  0 0.20002281E+02</rscale>
<asrwt>0</asrwt>
<pdfrwt beam="1">  1        4 0.13259983E-03 0.20002281E+02</pdfrwt>
<pdfrwt beam="2">  1       -4 0.17853747E-01 0.20002281E+02</pdfrwt>
<totfact> 0.93421825E+05</totfact>
</mgrwt>
</event>
<event>
 5    1  0.4710515E-007  0.2000413E+02  0.7818608E-02  0.1745246E+00
         -4   -1    0    0    0  501 -0.00000000000E+00  0.00000000000E+00  0.53500248183E+01  0.55352656265E+01  0.14200000000E+01 0. -1.
          4   -1    0    0  501    0  0.00000000000E+00 -0.00000000000E+00 -0.18167591038E+02  0.18223000964E+02  0.14200000000E+01 0.  1.
       1023    2    1    2    0    0  0.00000000000E+00  0.00000000000E+00 -0.12817566220E+02  0.23758266590E+02  0.20004130263E+02 0.  0.
        -13    1    3    3    0    0 -0.19371651432E+01  0.98120743295E+01 -0.64407170968E+01  0.11896361656E+02  0.10570000000E+00 0. -1.
         13    1    3    3    0    0  0.19371651432E+01 -0.98120743295E+01 -0.63768491228E+01  0.11861904934E+02  0.10570000000E+00 0.  1.
<mgrwt>
<rscale>  0 0.20004130E+02</rscale>
<asrwt>0</asrwt>
<pdfrwt beam="2">  1        4 0.28135256E-02 0.20004130E+02</pdfrwt>
<pdfrwt beam="1">  1       -4 0.84159234E-03 0.20004130E+02</pdfrwt>
<totfact> 0.12790037E+06</totfact>
</mgrwt>
</event>
<event>
 5    1  0.4800767E-007  0.2000215E+02  0.7818608E-02  0.1745285E+00
          4   -1    0    0  501    0  0.00000000000E+00  0.00000000000E+00  0.61581522629E+01  0.63197499392E+01  0.14200000000E+01 0. -1.
         -4   -1    0    0    0  501 -0.00000000000E+00 -0.00000000000E+00 -0.15838011614E+02  0.15901541179E+02  0.14200000000E+01 0.  1.
       1023    2    1    2    0    0  0.00000000000E+00  0.00000000000E+00 -0.96798593508E+01  0.22221291119E+02  0.20002152432E+02 0.  0.
        -13    1    3    3    0    0  0.19225302098E+01 -0.98137946553E+01 -0.49071858766E+01  0.11139943162E+02  0.10570000000E+00 0.  1.
         13    1    3    3    0    0 -0.19225302098E+01  0.98137946553E+01 -0.47726734742E+01  0.11081347956E+02  0.10570000000E+00 0. -1.
<mgrwt>
<rscale>  0 0.20002152E+02</rscale>
<asrwt>0</asrwt>
<pdfrwt beam="1">  1        4 0.96472552E-03 0.20002152E+02</pdfrwt>
<pdfrwt beam="2">  1       -4 0.24539346E-02 0.20002152E+02</pdfrwt>
<totfact> 0.12880573E+06</totfact>
</mgrwt>
</event>
<event>
 5    1  0.4710515E-007  0.2000247E+02  0.7818608E-02  0.1745279E+00
         -4   -1    0    0    0  501 -0.00000000000E+00  0.00000000000E+00  0.10642927982E+01  0.17745757691E+01  0.14200000000E+01 0.  1.
          4   -1    0    0  501    0  0.00000000000E+00 -0.00000000000E+00 -0.69748675759E+02  0.69763129017E+02  0.14200000000E+01 0. -1.
       1023    2    1    2    0    0  0.00000000000E+00  0.00000000000E+00 -0.68684382961E+02  0.71537704786E+02  0.20002468429E+02 0.  0.
        -13    1    3    3    0    0  0.99899383905E+01  0.45812492687E+00 -0.34589091161E+02  0.36005904339E+02  0.10570000000E+00 0.  1.
         13    1    3    3    0    0 -0.99899383905E+01 -0.45812492687E+00 -0.34095291801E+02  0.35531800446E+02  0.10570000000E+00 0. -1.
<mgrwt>
<rscale>  0 0.20002468E+02</rscale>
<asrwt>0</asrwt>
<pdfrwt beam="2">  1        4 0.10786312E-01 0.20002468E+02</pdfrwt>
<pdfrwt beam="1">  1       -4 0.21948635E-03 0.20002468E+02</pdfrwt>
<totfact> 0.10694200E+06</totfact>
</mgrwt>
</event>
<event>
 4    1  0.4710515E-007  0.2027390E+02  0.7818608E-02  0.1739936E+00
         -4   -1    0    0    0  501 -0.00000000000E+00  0.00000000000E+00  0.10057278131E+02  0.10157029261E+02  0.14200000000E+01 0. -1.
          4   -1    0    0  501    0  0.00000000000E+00 -0.00000000000E+00 -0.10016757004E+02  0.10116907674E+02  0.14200000000E+01 0.  1.
        -13    1    1    2    0    0  0.98947326786E+01 -0.21301508006E+01  0.57096077754E+00  0.10138069141E+02  0.10570000000E+00 0. -1.
         13    1    1    2    0    0 -0.98947326786E+01  0.21301508006E+01 -0.53043965119E+00  0.10135867793E+02  0.10570000000E+00 0.  1.
<mgrwt>
<rscale>  0 0.20273896E+02</rscale>
<asrwt>0</asrwt>
<pdfrwt beam="2">  1        4 0.15564166E-02 0.20273896E+02</pdfrwt>
<pdfrwt beam="1">  1       -4 0.15626506E-02 0.20273896E+02</pdfrwt>
<totfact> 0.12640906E+06</totfact>
</mgrwt>
</event>
<event>
 5    1  0.4710515E-007  0.2001129E+02  0.7818608E-02  0.1745104E+00
         -4   -1    0    0    0  501 -0.00000000000E+00  0.00000000000E+00  0.40392671070E+00  0.14763322077E+01  0.14200000000E+01 0.  1.
          4   -1    0    0  501    0  0.00000000000E+00 -0.00000000000E+00 -0.10540855083E+03  0.10541811508E+03  0.14200000000E+01 0. -1.
       1023    2    1    2    0    0  0.00000000000E+00  0.00000000000E+00 -0.10500462412E+03  0.10689444729E+03  0.20011291202E+02 0.  0.
        -13    1    3    3    0    0 -0.91945958353E+01 -0.39434555509E+01 -0.53045412882E+02  0.53980722805E+02  0.10570000000E+00 0. -1.
         13    1    3    3    0    0  0.91945958353E+01  0.39434555509E+01 -0.51959211237E+02  0.52913724487E+02  0.10570000000E+00 0.  1.
<mgrwt>
<rscale>  0 0.20011291E+02</rscale>
<asrwt>0</asrwt>
<pdfrwt beam="2">  1        4 0.16299919E-01 0.20011291E+02</pdfrwt>
<pdfrwt beam="1">  1       -4 0.14537110E-03 0.20011291E+02</pdfrwt>
<totfact> 0.95983705E+05</totfact>
</mgrwt>
</event>
<event>
 4    1  0.4710515E-007  0.2007692E+02  0.7818608E-02  0.1743803E+00
         -4   -1    0    0    0  501 -0.00000000000E+00  0.00000000000E+00  0.31750855047E+02  0.31782592661E+02  0.14200000000E+01 0.  1.
          4   -1    0    0  501    0  0.00000000000E+00 -0.00000000000E+00 -0.29798700523E+01  0.33009128326E+01  0.14200000000E+01 0. -1.
        -13    1    1    2    0    0 -0.29244932841E+01  0.95746678413E+01  0.15660771879E+02  0.18587573095E+02  0.10570000000E+00 0. -1.
         13    1    1    2    0    0  0.29244932841E+01 -0.95746678413E+01  0.13110213116E+02  0.16495932398E+02  0.10570000000E+00 0.  1.
<mgrwt>
<rscale>  0 0.20076922E+02</rscale>
<asrwt>0</asrwt>
<pdfrwt beam="2">  1        4 0.48557853E-03 0.20076922E+02</pdfrwt>
<pdfrwt beam="1">  1       -4 0.49118836E-02 0.20076922E+02</pdfrwt>
<totfact> 0.12103249E+06</totfact>
</mgrwt>
</event>
<event>
 5    1  0.4710515E-007  0.2000598E+02  0.7818608E-02  0.1745209E+00
         -4   -1    0    0    0  501 -0.00000000000E+00  0.00000000000E+00  0.45758212192E+02  0.45780240094E+02  0.14200000000E+01 0.  1.
          4   -1    0    0  501    0  0.00000000000E+00 -0.00000000000E+00 -0.19311579538E+01  0.23970338009E+01  0.14200000000E+01 0. -1.
       1023    2    1    2    0    0  0.00000000000E+00  0.00000000000E+00  0.43827054238E+02  0.48177273895E+02  0.20005975025E+02 0.  0.
        -13    1    3    3    0    0  0.96804923285E+01  0.25079504006E+01  0.22434709558E+02  0.24562758648E+02  0.10570000000E+00 0.  1.
         13    1    3    3    0    0 -0.96804923285E+01 -0.25079504006E+01  0.21392344680E+02  0.23614515247E+02  0.10570000000E+00 0. -1.
<mgrwt>
<rscale>  0 0.20005975E+02</rscale>
<asrwt>0</asrwt>
<pdfrwt beam="2">  1        4 0.33463229E-03 0.20005975E+02</pdfrwt>
<pdfrwt beam="1">  1       -4 0.70772557E-02 0.20005975E+02</pdfrwt>
<totfact> 0.11590572E+06</totfact>
</mgrwt>
</event>
<event>
 5    1  0.4762782E-007  0.2000216E+02  0.7818608E-02  0.1745285E+00
          4   -1    0    0  501    0  0.00000000000E+00  0.00000000000E+00  0.92653713442E+00  0.16955444735E+01  0.14200000000E+01 0.  1.
         -4   -1    0    0    0  501 -0.00000000000E+00 -0.00000000000E+00 -0.75514125478E+02  0.75527475442E+02  0.14200000000E+01 0. -1.
       1023    2    1    2    0    0  0.00000000000E+00  0.00000000000E+00 -0.74587588344E+02  0.77223019916E+02  0.20002161634E+02 0.  0.
        -13    1    3    3    0    0 -0.96731830199E+01  0.25372654814E+01 -0.37110291300E+02  0.38434269588E+02  0.10570000000E+00 0. -1.
         13    1    3    3    0    0  0.96731830199E+01 -0.25372654814E+01 -0.37477297043E+02  0.38788750328E+02  0.10570000000E+00 0.  1.
<mgrwt>
<rscale>  0 0.20002162E+02</rscale>
<asrwt>0</asrwt>
<pdfrwt beam="1">  1        4 0.20272557E-03 0.20002162E+02</pdfrwt>
<pdfrwt beam="2">  1       -4 0.11677736E-01 0.20002162E+02</pdfrwt>
<totfact> 0.10500608E+06</totfact>
</mgrwt>
</event>
<event>
 5    1  0.4710515E-007  0.2000325E+02  0.7818608E-02  0.1745263E+00
         -4   -1    0    0    0  501 -0.00000000000E+00  0.00000000000E+00  0.50090578892E+01  0.52064441740E+01  0.14200000000E+01 0. -1.
          4   -1    0    0  501    0  0.00000000000E+00 -0.00000000000E+00 -0.19360569999E+02  0.19412575066E+02  0.14200000000E+01 0.  1.
       1023    2    1    2    0    0  0.00000000000E+00  0.00000000000E+00 -0.14351512110E+02  0.24619019240E+02  0.20003254948E+02 0.  0.
        -13    1    3    3    0    0  0.54409265278E+01 -0.83915031001E+01 -0.71995536823E+01  0.12323382307E+02  0.10570000000E+00 0.  1.
         13    1    3    3    0    0 -0.54409265278E+01  0.83915031001E+01 -0.71519584280E+01  0.12295636934E+02  0.10570000000E+00 0. -1.
<mgrwt>
<rscale>  0 0.20003255E+02</rscale>
<asrwt>0</asrwt>
<pdfrwt beam="2">  1        4 0.29977332E-02 0.20003255E+02</pdfrwt>
<pdfrwt beam="1">  1       -4 0.78980825E-03 0.20003255E+02</pdfrwt>
<totfact> 0.12742692E+06</totfact>
</mgrwt>
</event>
<event>
 4    1  0.4710515E-007  0.2001425E+02  0.7818608E-02  0.1745045E+00
         -4   -1    0    0    0  501 -0.00000000000E+00  0.00000000000E+00  0.19436661153E+02  0.19488463171E+02  0.14200000000E+01 0. -1.
          4   -1    0    0  501    0  0.00000000000E+00 -0.00000000000E+00 -0.49944909854E+01  0.51924310494E+01  0.14200000000E+01 0.  1.
        -13    1    1    2    0    0  0.69739314601E+01 -0.71754889619E+01  0.71105755807E+01  0.12275781826E+02  0.10570000000E+00 0. -1.
         13    1    1    2    0    0 -0.69739314601E+01  0.71754889619E+01  0.73315945864E+01  0.12405112395E+02  0.10570000000E+00 0.  1.
<mgrwt>
<rscale>  0 0.20014251E+02</rscale>
<asrwt>0</asrwt>
<pdfrwt beam="2">  1        4 0.78759416E-03 0.20014251E+02</pdfrwt>
<pdfrwt beam="1">  1       -4 0.30094665E-02 0.20014251E+02</pdfrwt>
<totfact> 0.12724970E+06</totfact>
</mgrwt>
</event>
<event>
 5    1  0.4710515E-007  0.2000154E+02  0.7818608E-02  0.1745297E+00
         -4   -1    0    0    0  501 -0.00000000000E+00  0.00000000000E+00  0.57576753235E+02  0.57594261112E+02  0.14200000000E+01 0. -1.
          4   -1    0    0  501    0  0.00000000000E+00 -0.00000000000E+00 -0.14260560790E+01  0.20124701092E+01  0.14200000000E+01 0.  1.
       1023    2    1    2    0    0  0.00000000000E+00  0.00000000000E+00  0.56150697156E+02  0.59606731221E+02  0.20001540336E+02 0.  0.
        -13    1    3    3    0    0 -0.21669186001E+01 -0.97624862281E+01  0.28226069239E+02  0.29945347397E+02  0.10570000000E+00 0. -1.
         13    1    3    3    0    0  0.21669186001E+01  0.97624862281E+01  0.27924627917E+02  0.29661383825E+02  0.10570000000E+00 0.  1.
<mgrwt>
<rscale>  0 0.20001540E+02</rscale>
<asrwt>0</asrwt>
<pdfrwt beam="2">  1        4 0.26584883E-03 0.20001540E+02</pdfrwt>
<pdfrwt beam="1">  1       -4 0.89044157E-02 0.20001540E+02</pdfrwt>
<totfact> 0.11132255E+06</totfact>
</mgrwt>
</event>
<event>
 5    1  0.4710515E-007  0.2000249E+02  0.7818608E-02  0.1745279E+00
          4   -1    0    0  501    0  0.00000000000E+00  0.00000000000E+00  0.39685267863E+02  0.39710664630E+02  0.14200000000E+01 0. -1.
         -4   -1    0    0    0  501 -0.00000000000E+00 -0.00000000000E+00 -0.22920770023E+01  0.26962969021E+01  0.14200000000E+01 0.  1.
       1023    2    1    2    0    0  0.00000000000E+00  0.00000000000E+00  0.37393190860E+02  0.42406961532E+02  0.20002491436E+02 0.  0.
        -13    1    3    3    0    0 -0.95553578811E+01 -0.29509906669E+01  0.18647637233E+02  0.21160310891E+02  0.10570000000E+00 0.  1.
         13    1    3    3    0    0  0.95553578811E+01  0.29509906669E+01  0.18745553627E+02  0.21246650640E+02  0.10570000000E+00 0. -1.
<mgrwt>
<rscale>  0 0.20002491E+02</rscale>
<asrwt>0</asrwt>
<pdfrwt beam="1">  1        4 0.61384732E-02 0.20002491E+02</pdfrwt>
<pdfrwt beam="2">  1       -4 0.38567467E-03 0.20002491E+02</pdfrwt>
<totfact> 0.11849040E+06</totfact>
</mgrwt>
</event>
<event>
 5    1  0.4710515E-007  0.2000699E+02  0.7818608E-02  0.1745189E+00
         -4   -1    0    0    0  501 -0.00000000000E+00  0.00000000000E+00  0.46475238843E+02  0.46496927054E+02  0.14200000000E+01 0.  1.
          4   -1    0    0  501    0  0.00000000000E+00 -0.00000000000E+00 -0.18943794698E+01  0.23675036591E+01  0.14200000000E+01 0. -1.
       1023    2    1    2    0    0  0.00000000000E+00  0.00000000000E+00  0.44580859373E+02  0.48864430713E+02  0.20006987942E+02 0.  0.
        -13    1    3    3    0    0 -0.87079750091E+01  0.49175555901E+01  0.21757918389E+02  0.23946385256E+02  0.10570000000E+00 0. -1.
         13    1    3    3    0    0  0.87079750091E+01 -0.49175555901E+01  0.22822940984E+02  0.24918045457E+02  0.10570000000E+00 0.  1.
<mgrwt>
<rscale>  0 0.20006988E+02</rscale>
<asrwt>0</asrwt>
<pdfrwt beam="2">  1        4 0.32950553E-03 0.20006988E+02</pdfrwt>
<pdfrwt beam="1">  1       -4 0.71880983E-02 0.20006988E+02</pdfrwt>
<totfact> 0.11560087E+06</totfact>
</mgrwt>
</event>
<event>
 5    1  0.4994972E-007  0.2000129E+02  0.7818608E-02  0.1745302E+00
         -4   -1    0    0    0  501 -0.00000000000E+00  0.00000000000E+00  0.14251720457E+02  0.14322288085E+02  0.14200000000E+01 0.  1.
          4   -1    0    0  501    0  0.00000000000E+00 -0.00000000000E+00 -0.68567760443E+01  0.70022694694E+01  0.14200000000E+01 0. -1.
       1023    2    1    2    0    0  0.00000000000E+00  0.00000000000E+00  0.73949444128E+01  0.21324557554E+02  0.20001288759E+02 0.  0.
        -13    1    3    3    0    0 -0.25368256267E+01 -0.96729266303E+01  0.36688312196E+01  0.10652346636E+02  0.10570000000E+00 0.  1.
         13    1    3    3    0    0  0.25368256267E+01  0.96729266303E+01  0.37261131931E+01  0.10672210918E+02  0.10570000000E+00 0. -1.
<mgrwt>
<rscale>  0 0.20001289E+02</rscale>
<asrwt>0</asrwt>
<pdfrwt beam="2">  1        4 0.10715087E-02 0.20001289E+02</pdfrwt>
<pdfrwt beam="1">  1       -4 0.22091924E-02 0.20001289E+02</pdfrwt>
<totfact> 0.12933947E+06</totfact>
</mgrwt>
</event>
<event>
 4    1  0.4710515E-007  0.2002360E+02  0.7818608E-02  0.1744859E+00
          4   -1    0    0  501    0  0.00000000000E+00  0.00000000000E+00  0.13127643545E+02  0.13204219971E+02  0.14200000000E+01 0.  1.
         -4   -1    0    0    0  501 -0.00000000000E+00 -0.00000000000E+00 -0.74696385071E+01  0.76034136694E+01  0.14200000000E+01 0. -1.
        -13    1    1    2    0    0  0.50255476650E+01  0.86551279190E+01  0.25795877712E+01  0.10335996042E+02  0.10570000000E+00 0.  1.
         13    1    1    2    0    0 -0.50255476650E+01 -0.86551279190E+01  0.30784172666E+01  0.10471637598E+02  0.10570000000E+00 0. -1.
<mgrwt>
<rscale>  0 0.20023601E+02</rscale>
<asrwt>0</asrwt>
<pdfrwt beam="1">  1        4 0.20358184E-02 0.20023601E+02</pdfrwt>
<pdfrwt beam="2">  1       -4 0.11653560E-02 0.20023601E+02</pdfrwt>
<totfact> 0.12934957E+06</totfact>
</mgrwt>
</event>
<event>
 5    1  0.4710515E-007  0.2000288E+02  0.7818608E-02  0.1745271E+00
          4   -1    0    0  501    0  0.00000000000E+00  0.00000000000E+00  0.39750523503E+01  0.42210710948E+01  0.14200000000E+01 0. -1.
         -4   -1    0    0    0  501 -0.00000000000E+00 -0.00000000000E+00 -0.24141311911E+02  0.24183038287E+02  0.14200000000E+01 0.  1.
       1023    2    1    2    0    0  0.00000000000E+00  0.00000000000E+00 -0.20166259560E+02  0.28404109381E+02  0.20002884919E+02 0.  0.
        -13    1    3    3    0    0 -0.98470194100E+01  0.17461324956E+01 -0.10182619345E+02  0.14272689977E+02  0.10570000000E+00 0.  1.
         13    1    3    3    0    0  0.98470194100E+01 -0.17461324956E+01 -0.99836402155E+01  0.14131419405E+02  0.10570000000E+00 0. -1.
<mgrwt>
<rscale>  0 0.20002885E+02</rscale>
<asrwt>0</asrwt>
<pdfrwt beam="1">  1        4 0.63368077E-03 0.20002885E+02</pdfrwt>
<pdfrwt beam="2">  1       -4 0.37361821E-02 0.20002885E+02</pdfrwt>
<totfact> 0.12536272E+06</totfact>
</mgrwt>
</event>
<event>
 4    1  0.4710515E-007  0.2001393E+02  0.7818608E-02  0.1745051E+00
          4   -1    0    0  501    0  0.00000000000E+00  0.00000000000E+00  0.63146134438E+00  0.15540731738E+01  0.14200000000E+01 0. -1.
         -4   -1    0    0    0  501 -0.00000000000E+00 -0.00000000000E+00 -0.90707821858E+02  0.90718935985E+02  0.14200000000E+01 0.  1.
        -13    1    1    2    0    0 -0.89103032701E+01 -0.45527684076E+01 -0.44652528043E+02  0.45760033192E+02  0.10570000000E+00 0.  1.
         13    1    1    2    0    0  0.89103032701E+01  0.45527684076E+01 -0.45423832471E+02  0.46512975967E+02  0.10570000000E+00 0. -1.
<mgrwt>
<rscale>  0 0.20013933E+02</rscale>
<asrwt>0</asrwt>
<pdfrwt beam="1">  1        4 0.16897304E-03 0.20013933E+02</pdfrwt>
<pdfrwt beam="2">  1       -4 0.14026869E-01 0.20013933E+02</pdfrwt>
<totfact> 0.10013075E+06</totfact>
</mgrwt>
</event>
<event>
 5    1  0.4721831E-007  0.2000338E+02  0.7818608E-02  0.1745261E+00
         -4   -1    0    0    0  501 -0.00000000000E+00  0.00000000000E+00  0.17664785133E+02  0.17721767231E+02  0.14200000000E+01 0. -1.
          4   -1    0    0  501    0  0.00000000000E+00 -0.00000000000E+00 -0.55065753214E+01  0.56867188932E+01  0.14200000000E+01 0.  1.
       1023    2    1    2    0    0  0.00000000000E+00  0.00000000000E+00  0.12158209812E+02  0.23408486125E+02  0.20003378635E+02 0.  0.
        -13    1    3    3    0    0 -0.45781516934E+01 -0.88913960356E+01  0.61713995500E+01  0.11752180278E+02  0.10570000000E+00 0.  1.
         13    1    3    3    0    0  0.45781516934E+01  0.88913960356E+01  0.59868102619E+01  0.11656305847E+02  0.10570000000E+00 0. -1.
<mgrwt>
<rscale>  0 0.20003379E+02</rscale>
<asrwt>0</asrwt>
<pdfrwt beam="2">  1        4 0.86540587E-03 0.20003379E+02</pdfrwt>
<pdfrwt beam="1">  1       -4 0.27358997E-02 0.20003379E+02</pdfrwt>
<totfact> 0.12810857E+06</totfact>
</mgrwt>
</event>
<event>
 5    1  0.4710515E-007  0.2000206E+02  0.7818608E-02  0.1745287E+00
         -4   -1    0    0    0  501 -0.00000000000E+00  0.00000000000E+00  0.15431754297E+01  0.20970909391E+01  0.14200000000E+01 0.  1.
          4   -1    0    0  501    0  0.00000000000E+00 -0.00000000000E+00 -0.54387750776E+02  0.54406284881E+02  0.14200000000E+01 0. -1.
       1023    2    1    2    0    0  0.00000000000E+00  0.00000000000E+00 -0.52844575347E+02  0.56503375820E+02  0.20002058280E+02 0.  0.
        -13    1    3    3    0    0  0.97401798811E+01 -0.22666101056E+01 -0.26501479316E+02  0.28325751603E+02  0.10570000000E+00 0. -1.
         13    1    3    3    0    0 -0.97401798811E+01  0.22666101056E+01 -0.26343096031E+02  0.28177624216E+02  0.10570000000E+00 0.  1.
<mgrwt>
<rscale>  0 0.20002058E+02</rscale>
<asrwt>0</asrwt>
<pdfrwt beam="2">  1        4 0.84113796E-02 0.20002058E+02</pdfrwt>
<pdfrwt beam="1">  1       -4 0.28144623E-03 0.20002058E+02</pdfrwt>
<totfact> 0.11252703E+06</totfact>
</mgrwt>
</event>
<event>
 5    1  0.4744834E-007  0.2000149E+02  0.7818608E-02  0.1745298E+00
         -4   -1    0    0    0  501 -0.00000000000E+00  0.00000000000E+00  0.55421850434E+02  0.55440038830E+02  0.14200000000E+01 0.  1.
          4   -1    0    0  501    0  0.00000000000E+00 -0.00000000000E+00 -0.15038428019E+01  0.20683189244E+01  0.14200000000E+01 0. -1.
       1023    2    1    2    0    0  0.00000000000E+00  0.00000000000E+00  0.53918007632E+02  0.57508357754E+02  0.20001491561E+02 0.  0.
        -13    1    3    3    0    0 -0.86436678966E+01  0.50289243031E+01  0.27033388770E+02  0.28823919846E+02  0.10570000000E+00 0. -1.
         13    1    3    3    0    0  0.86436678966E+01 -0.50289243031E+01  0.26884618861E+02  0.28684437909E+02  0.10570000000E+00 0.  1.
<mgrwt>
<rscale>  0 0.20001492E+02</rscale>
<asrwt>0</asrwt>
<pdfrwt beam="2">  1        4 0.27618079E-03 0.20001492E+02</pdfrwt>
<pdfrwt beam="1">  1       -4 0.85712587E-02 0.20001492E+02</pdfrwt>
<totfact> 0.11213781E+06</totfact>
</mgrwt>
</event>
<event>
 4    1  0.4710515E-007  0.2002611E+02  0.7818608E-02  0.1744809E+00
          4   -1    0    0  501    0  0.00000000000E+00  0.00000000000E+00  0.20484816568E+02  0.20533974526E+02  0.14200000000E+01 0. -1.
         -4   -1    0    0    0  501 -0.00000000000E+00 -0.00000000000E+00 -0.47351022797E+01  0.49434394503E+01  0.14200000000E+01 0.  1.
        -13    1    1    2    0    0  0.65018425741E+01 -0.76137429543E+01  0.77678888493E+01  0.12672580964E+02  0.10570000000E+00 0. -1.
         13    1    1    2    0    0 -0.65018425741E+01  0.76137429543E+01  0.79818254393E+01  0.12804833012E+02  0.10570000000E+00 0.  1.
<mgrwt>
<rscale>  0 0.20026111E+02</rscale>
<asrwt>0</asrwt>
<pdfrwt beam="1">  1        4 0.31713176E-02 0.20026111E+02</pdfrwt>
<pdfrwt beam="2">  1       -4 0.74828459E-03 0.20026111E+02</pdfrwt>
<totfact> 0.12665345E+06</totfact>
</mgrwt>
</event>
<event>
 4    1  0.4710515E-007  0.2007753E+02  0.7818608E-02  0.1743791E+00
          4   -1    0    0  501    0  0.00000000000E+00  0.00000000000E+00  0.58813808941E+00  0.15369796395E+01  0.14200000000E+01 0. -1.
         -4   -1    0    0    0  501 -0.00000000000E+00 -0.00000000000E+00 -0.93886886898E+02  0.93897624738E+02  0.14200000000E+01 0.  1.
        -13    1    1    2    0    0 -0.99758025650E+01 -0.89663579416E+00 -0.43478415294E+02  0.44617310111E+02  0.10570000000E+00 0.  1.
         13    1    1    2    0    0  0.99758025650E+01  0.89663579416E+00 -0.49820333514E+02  0.50817294266E+02  0.10570000000E+00 0. -1.
<mgrwt>
<rscale>  0 0.20077529E+02</rscale>
<asrwt>0</asrwt>
<pdfrwt beam="1">  1        4 0.16429666E-03 0.20077529E+02</pdfrwt>
<pdfrwt beam="2">  1       -4 0.14517944E-01 0.20077529E+02</pdfrwt>
<totfact> 0.98567521E+05</totfact>
</mgrwt>
</event>
<event>
 5    1  0.4710515E-007  0.2000431E+02  0.7818608E-02  0.1745242E+00
         -4   -1    0    0    0  501 -0.00000000000E+00  0.00000000000E+00  0.25376718815E+00  0.14424970661E+01  0.14200000000E+01 0. -1.
          4   -1    0    0  501    0  0.00000000000E+00 -0.00000000000E+00 -0.11676091250E+03  0.11676954692E+03  0.14200000000E+01 0.  1.
       1023    2    1    2    0    0  0.00000000000E+00  0.00000000000E+00 -0.11650714531E+03  0.11821204399E+03  0.20004310400E+02 0.  0.
        -13    1    3    3    0    0  0.68741312491E+01  0.72643097741E+01 -0.57723073137E+02  0.58583173538E+02  0.10570000000E+00 0. -1.
         13    1    3    3    0    0 -0.68741312491E+01 -0.72643097741E+01 -0.58784072175E+02  0.59628870448E+02  0.10570000000E+00 0.  1.
<mgrwt>
<rscale>  0 0.20004310E+02</rscale>
<asrwt>0</asrwt>
<pdfrwt beam="2">  1        4 0.18055309E-01 0.20004310E+02</pdfrwt>
<pdfrwt beam="1">  1       -4 0.13114615E-03 0.20004310E+02</pdfrwt>
<totfact> 0.93070825E+05</totfact>
</mgrwt>
</event>
<event>
 5    1  0.4710515E-007  0.2000340E+02  0.7818608E-02  0.1745260E+00
          4   -1    0    0  501    0  0.00000000000E+00  0.00000000000E+00  0.13537246981E+02  0.13611519233E+02  0.14200000000E+01 0.  1.
         -4   -1    0    0    0  501 -0.00000000000E+00 -0.00000000000E+00 -0.72257570881E+01  0.73639639798E+01  0.14200000000E+01 0. -1.
       1023    2    1    2    0    0  0.00000000000E+00  0.00000000000E+00  0.63114898932E+01  0.20975483213E+02  0.20003399495E+02 0.  0.
        -13    1    3    3    0    0  0.59448467898E+01  0.80422699928E+01  0.32179166590E+01  0.10506448977E+02  0.10570000000E+00 0. -1.
         13    1    3    3    0    0 -0.59448467898E+01 -0.80422699928E+01  0.30935732342E+01  0.10469034236E+02  0.10570000000E+00 0.  1.
<mgrwt>
<rscale>  0 0.20003399E+02</rscale>
<asrwt>0</asrwt>
<pdfrwt beam="1">  1        4 0.20989979E-02 0.20003399E+02</pdfrwt>
<pdfrwt beam="2">  1       -4 0.11279995E-02 0.20003399E+02</pdfrwt>
<totfact> 0.12951705E+06</totfact>
</mgrwt>
</event>
<event>
 5    1  0.4710515E-007  0.2000320E+02  0.7818608E-02  0.1745264E+00
         -4   -1    0    0    0  501 -0.00000000000E+00  0.00000000000E+00  0.35281291267E+01  0.38031690910E+01  0.14200000000E+01 0.  1.
          4   -1    0    0  501    0  0.00000000000E+00 -0.00000000000E+00 -0.26994634130E+02  0.27031956492E+02  0.14200000000E+01 0. -1.
       1023    2    1    2    0    0  0.00000000000E+00  0.00000000000E+00 -0.23466505003E+02  0.30835125583E+02  0.20003202560E+02 0.  0.
        -13    1    3    3    0    0 -0.95211765724E+01  0.30590127794E+01 -0.11575346170E+02  0.15297391083E+02  0.10570000000E+00 0. -1.
         13    1    3    3    0    0  0.95211765724E+01 -0.30590127794E+01 -0.11891158833E+02  0.15537734500E+02  0.10570000000E+00 0.  1.
<mgrwt>
<rscale>  0 0.20003203E+02</rscale>
<asrwt>0</asrwt>
<pdfrwt beam="2">  1        4 0.41770484E-02 0.20003203E+02</pdfrwt>
<pdfrwt beam="1">  1       -4 0.56681699E-03 0.20003203E+02</pdfrwt>
<totfact> 0.12408313E+06</totfact>
</mgrwt>
</event>
<event>
 5    1  0.4710515E-007  0.2000174E+02  0.7818608E-02  0.1745293E+00
          4   -1    0    0  501    0  0.00000000000E+00  0.00000000000E+00  0.61231559512E+00  0.15463927018E+01  0.14200000000E+01 0. -1.
         -4   -1    0    0    0  501 -0.00000000000E+00 -0.00000000000E+00 -0.91722211528E+02  0.91733202755E+02  0.14200000000E+01 0.  1.
       1023    2    1    2    0    0  0.00000000000E+00  0.00000000000E+00 -0.91109895933E+02  0.93279595456E+02  0.20001744713E+02 0.  0.
        -13    1    3    3    0    0  0.32417012463E+01  0.94601281878E+01 -0.45274237127E+02  0.46365616271E+02  0.10570000000E+00 0. -1.
         13    1    3    3    0    0 -0.32417012463E+01 -0.94601281878E+01 -0.45835658806E+02  0.46913979185E+02  0.10570000000E+00 0.  1.
<mgrwt>
<rscale>  0 0.20001745E+02</rscale>
<asrwt>0</asrwt>
<pdfrwt beam="1">  1        4 0.16690004E-03 0.20001745E+02</pdfrwt>
<pdfrwt beam="2">  1       -4 0.14183801E-01 0.20001745E+02</pdfrwt>
<totfact> 0.99951939E+05</totfact>
</mgrwt>
</event>
<event>
 4    1  0.4710515E-007  0.2003322E+02  0.7818608E-02  0.1744668E+00
         -4   -1    0    0    0  501 -0.00000000000E+00  0.00000000000E+00  0.45428265674E+01  0.47595875054E+01  0.14200000000E+01 0.  1.
          4   -1    0    0  501    0  0.00000000000E+00 -0.00000000000E+00 -0.21330349083E+02  0.21377562818E+02  0.14200000000E+01 0. -1.
        -13    1    1    2    0    0 -0.85108862254E+01  0.52783455301E+01 -0.81868933830E+01  0.12935706847E+02  0.10570000000E+00 0.  1.
         13    1    1    2    0    0  0.85108862254E+01 -0.52783455301E+01 -0.86006291329E+01  0.13201443476E+02  0.10570000000E+00 0. -1.
<mgrwt>
<rscale>  0 0.20033215E+02</rscale>
<asrwt>0</asrwt>
<pdfrwt beam="2">  1        4 0.33018979E-02 0.20033215E+02</pdfrwt>
<pdfrwt beam="1">  1       -4 0.71920215E-03 0.20033215E+02</pdfrwt>
<totfact> 0.12619921E+06</totfact>
</mgrwt>
</event>
<event>
 5    1  0.4710515E-007  0.2000331E+02  0.7818608E-02  0.1745262E+00
          4   -1    0    0  501    0  0.00000000000E+00  0.00000000000E+00  0.89080762858E+02  0.89092079958E+02  0.14200000000E+01 0.  1.
         -4   -1    0    0    0  501 -0.00000000000E+00 -0.00000000000E+00 -0.65801199522E+00  0.15650494516E+01  0.14200000000E+01 0. -1.
       1023    2    1    2    0    0  0.00000000000E+00  0.00000000000E+00  0.88422750862E+02  0.90657129410E+02  0.20003305796E+02 0.  0.
        -13    1    3    3    0    0 -0.82200057655E+00 -0.99666328170E+01  0.43706019167E+02  0.44835663691E+02  0.10570000000E+00 0.  1.
         13    1    3    3    0    0  0.82200057655E+00  0.99666328170E+01  0.44716731695E+02  0.45821465719E+02  0.10570000000E+00 0. -1.
<mgrwt>
<rscale>  0 0.20003306E+02</rscale>
<asrwt>0</asrwt>
<pdfrwt beam="1">  1        4 0.13775377E-01 0.20003306E+02</pdfrwt>
<pdfrwt beam="2">  1       -4 0.17187525E-03 0.20003306E+02</pdfrwt>
<totfact> 0.10072409E+06</totfact>
</mgrwt>
</event>
<event>
 4    1  0.4710515E-007  0.2003138E+02  0.7818608E-02  0.1744705E+00
          4   -1    0    0  501    0  0.00000000000E+00  0.00000000000E+00  0.71579207509E+02  0.71593291220E+02  0.14200000000E+01 0. -1.
         -4   -1    0    0    0  501 -0.00000000000E+00 -0.00000000000E+00 -0.10237858422E+01  0.17505820320E+01  0.14200000000E+01 0.  1.
        -13    1    1    2    0    0  0.90638381292E+01 -0.42599858515E+01  0.35104394053E+02  0.36505209154E+02  0.10570000000E+00 0.  1.
         13    1    1    2    0    0 -0.90638381292E+01  0.42599858515E+01  0.35451027614E+02  0.36838664097E+02  0.10570000000E+00 0. -1.
<mgrwt>
<rscale>  0 0.20031381E+02</rscale>
<asrwt>0</asrwt>
<pdfrwt beam="1">  1        4 0.11069182E-01 0.20031381E+02</pdfrwt>
<pdfrwt beam="2">  1       -4 0.21449617E-03 0.20031381E+02</pdfrwt>
<totfact> 0.10600918E+06</totfact>
</mgrwt>
</event>
<event>
 5    1  0.4710515E-007  0.2000310E+02  0.7818608E-02  0.1745266E+00
         -4   -1    0    0    0  501 -0.00000000000E+00  0.00000000000E+00  0.29451207277E+02  0.29485420297E+02  0.14200000000E+01 0.  1.
          4   -1    0    0  501    0  0.00000000000E+00 -0.00000000000E+00 -0.32102087537E+01  0.35102478890E+01  0.14200000000E+01 0. -1.
       1023    2    1    2    0    0  0.00000000000E+00  0.00000000000E+00  0.26240998523E+02  0.32995668186E+02  0.20003102647E+02 0.  0.
        -13    1    3    3    0    0  0.36462613915E+01  0.93122038487E+01  0.12977705653E+02  0.16384272311E+02  0.10570000000E+00 0.  1.
         13    1    3    3    0    0 -0.36462613915E+01 -0.93122038487E+01  0.13263292870E+02  0.16611395875E+02  0.10570000000E+00 0. -1.
<mgrwt>
<rscale>  0 0.20003103E+02</rscale>
<asrwt>0</asrwt>
<pdfrwt beam="2">  1        4 0.51958996E-03 0.20003103E+02</pdfrwt>
<pdfrwt beam="1">  1       -4 0.45566668E-02 0.20003103E+02</pdfrwt>
<totfact> 0.12298047E+06</totfact>
</mgrwt>
</event>
<event>
 5    1  0.4710515E-007  0.2000247E+02  0.7818608E-02  0.1745279E+00
          4   -1    0    0  501    0  0.00000000000E+00  0.00000000000E+00  0.74941739241E+01  0.76275187843E+01  0.14200000000E+01 0.  1.
         -4   -1    0    0    0  501 -0.00000000000E+00 -0.00000000000E+00 -0.13057119527E+02  0.13134107139E+02  0.14200000000E+01 0. -1.
       1023    2    1    2    0    0  0.00000000000E+00  0.00000000000E+00 -0.55629456026E+01  0.20761625923E+02  0.20002468528E+02 0.  0.
        -13    1    3    3    0    0 -0.33692954265E+01 -0.94155270758E+01 -0.26818480989E+01  0.10354119156E+02  0.10570000000E+00 0.  1.
         13    1    3    3    0    0  0.33692954265E+01  0.94155270758E+01 -0.28810975037E+01  0.10407506767E+02  0.10570000000E+00 0. -1.
<mgrwt>
<rscale>  0 0.20002469E+02</rscale>
<asrwt>0</asrwt>
<pdfrwt beam="1">  1        4 0.11691292E-02 0.20002469E+02</pdfrwt>
<pdfrwt beam="2">  1       -4 0.20249671E-02 0.20002469E+02</pdfrwt>
<totfact> 0.12965586E+06</totfact>
</mgrwt>
</event>
<event>
 4    1  0.4710515E-007  0.2001303E+02  0.7818608E-02  0.1745069E+00
         -4   -1    0    0    0  501 -0.00000000000E+00  0.00000000000E+00  0.34675987452E+02  0.34705050148E+02  0.14200000000E+01 0.  1.
          4   -1    0    0  501    0  0.00000000000E+00 -0.00000000000E+00 -0.26808238614E+01  0.30336803681E+01  0.14200000000E+01 0. -1.
        -13    1    1    2    0    0 -0.90976333843E+01 -0.41600840635E+01  0.16401655414E+02  0.19211941740E+02  0.10570000000E+00 0.  1.
         13    1    1    2    0    0  0.90976333843E+01  0.41600840635E+01  0.15593508176E+02  0.18526788776E+02  0.10570000000E+00 0. -1.
<mgrwt>
<rscale>  0 0.20013028E+02</rscale>
<asrwt>0</asrwt>
<pdfrwt beam="2">  1        4 0.44181285E-03 0.20013028E+02</pdfrwt>
<pdfrwt beam="1">  1       -4 0.53641455E-02 0.20013028E+02</pdfrwt>
<totfact> 0.12053276E+06</totfact>
</mgrwt>
</event>
<event>
 5    1  0.4710515E-007  0.2000137E+02  0.7818608E-02  0.1745301E+00
         -4   -1    0    0    0  501 -0.00000000000E+00  0.00000000000E+00  0.10186459196E+03  0.10187448893E+03  0.14200000000E+01 0.  1.
          4   -1    0    0  501    0  0.00000000000E+00 -0.00000000000E+00 -0.45316460599E+00  0.14905563257E+01  0.14200000000E+01 0. -1.
       1023    2    1    2    0    0  0.00000000000E+00  0.00000000000E+00  0.10141142736E+03  0.10336504526E+03  0.20001374532E+02 0.  0.
        -13    1    3    3    0    0  0.17133727307E+00  0.99986380456E+01  0.50595590441E+02  0.51574480742E+02  0.10570000000E+00 0.  1.
         13    1    3    3    0    0 -0.17133727307E+00 -0.99986380456E+01  0.50815836915E+02  0.51790564518E+02  0.10570000000E+00 0. -1.
<mgrwt>
<rscale>  0 0.20001375E+02</rscale>
<asrwt>0</asrwt>
<pdfrwt beam="2">  1        4 0.15027842E-03 0.20001375E+02</pdfrwt>
<pdfrwt beam="1">  1       -4 0.15752024E-01 0.20001375E+02</pdfrwt>
<totfact> 0.97051395E+05</totfact>
</mgrwt>
</event>
<event>
 5    1  0.4710515E-007  0.2000151E+02  0.7818608E-02  0.1745298E+00
          4   -1    0    0  501    0  0.00000000000E+00  0.00000000000E+00  0.99575625832E+00  0.17343386422E+01  0.14200000000E+01 0. -1.
         -4   -1    0    0    0  501 -0.00000000000E+00 -0.00000000000E+00 -0.72521144472E+02  0.72535045293E+02  0.14200000000E+01 0.  1.
       1023    2    1    2    0    0  0.00000000000E+00  0.00000000000E+00 -0.71525388214E+02  0.74269383935E+02  0.20001505715E+02 0.  0.
        -13    1    3    3    0    0  0.27592103712E+01 -0.96119201862E+01 -0.35612610912E+02  0.36990153825E+02  0.10570000000E+00 0.  1.
         13    1    3    3    0    0 -0.27592103712E+01  0.96119201862E+01 -0.35912777302E+02  0.37279230110E+02  0.10570000000E+00 0. -1.
<mgrwt>
<rscale>  0 0.20001506E+02</rscale>
<asrwt>0</asrwt>
<pdfrwt beam="1">  1        4 0.21107665E-03 0.20001506E+02</pdfrwt>
<pdfrwt beam="2">  1       -4 0.11214979E-01 0.20001506E+02</pdfrwt>
<totfact> 0.10600989E+06</totfact>
</mgrwt>
</event>
<event>
 5    1  0.4710515E-007  0.2000770E+02  0.7818608E-02  0.1745175E+00
         -4   -1    0    0    0  501 -0.00000000000E+00  0.00000000000E+00  0.61749038151E+01  0.63360742677E+01  0.14200000000E+01 0.  1.
          4   -1    0    0  501    0  0.00000000000E+00 -0.00000000000E+00 -0.15804861878E+02  0.15868524159E+02  0.14200000000E+01 0. -1.
       1023    2    1    2    0    0  0.00000000000E+00  0.00000000000E+00 -0.96299580631E+01  0.22204598427E+02  0.20007700992E+02 0.  0.
        -13    1    3    3    0    0  0.81204639149E+01 -0.58384595255E+01 -0.50264493922E+01  0.11194012230E+02  0.10570000000E+00 0. -1.
         13    1    3    3    0    0 -0.81204639149E+01  0.58384595255E+01 -0.46035086709E+01  0.11010586197E+02  0.10570000000E+00 0.  1.
<mgrwt>
<rscale>  0 0.20007701E+02</rscale>
<asrwt>0</asrwt>
<pdfrwt beam="2">  1        4 0.24488120E-02 0.20007701E+02</pdfrwt>
<pdfrwt beam="1">  1       -4 0.96728003E-03 0.20007701E+02</pdfrwt>
<totfact> 0.12874254E+06</totfact>
</mgrwt>
</event>
<event>
 5    1  0.4975586E-007  0.2000249E+02  0.7818608E-02  0.1745279E+00
          4   -1    0    0  501    0  0.00000000000E+00  0.00000000000E+00  0.72708794695E+01  0.74082446139E+01  0.14200000000E+01 0.  1.
         -4   -1    0    0    0  501 -0.00000000000E+00 -0.00000000000E+00 -0.13453097674E+02  0.13527831941E+02  0.14200000000E+01 0. -1.
       1023    2    1    2    0    0  0.00000000000E+00  0.00000000000E+00 -0.61822182047E+01  0.20936076555E+02  0.20002486835E+02 0.  0.
        -13    1    3    3    0    0  0.99742097639E+01 -0.72346786425E+00 -0.31682457819E+01  0.10490815983E+02  0.10570000000E+00 0.  1.
         13    1    3    3    0    0 -0.99742097639E+01  0.72346786425E+00 -0.30139724228E+01  0.10445260572E+02  0.10570000000E+00 0. -1.
<mgrwt>
<rscale>  0 0.20002487E+02</rscale>
<asrwt>0</asrwt>
<pdfrwt beam="1">  1        4 0.11349122E-02 0.20002487E+02</pdfrwt>
<pdfrwt beam="2">  1       -4 0.20860227E-02 0.20002487E+02</pdfrwt>
<totfact> 0.12955238E+06</totfact>
</mgrwt>
</event>
<event>
 4    1  0.5219282E-007  0.2077819E+02  0.7818608E-02  0.1730281E+00
          4   -1    0    0  501    0  0.00000000000E+00  0.00000000000E+00  0.42485793650E+02  0.42509517311E+02  0.14200000000E+01 0.  1.
         -4   -1    0    0    0  501 -0.00000000000E+00 -0.00000000000E+00 -0.23156081321E+01  0.27163285923E+01  0.14200000000E+01 0. -1.
        -13    1    1    2    0    0  0.58393823680E+01  0.84182583875E+01  0.23827771457E+02  0.25937218930E+02  0.10570000000E+00 0. -1.
         13    1    1    2    0    0 -0.58393823680E+01 -0.84182583875E+01  0.16342414061E+02  0.19288626974E+02  0.10570000000E+00 0.  1.
<mgrwt>
<rscale>  0 0.20778194E+02</rscale>
<asrwt>0</asrwt>
<pdfrwt beam="1">  1        4 0.65689259E-02 0.20778194E+02</pdfrwt>
<pdfrwt beam="2">  1       -4 0.38889693E-03 0.20778194E+02</pdfrwt>
<totfact> 0.10848214E+06</totfact>
</mgrwt>
</event>
<event>
 5    1  0.5102419E-007  0.2000350E+02  0.7818608E-02  0.1745258E+00
         -4   -1    0    0    0  501 -0.00000000000E+00  0.00000000000E+00  0.13722856955E+02  0.13796130001E+02  0.14200000000E+01 0.  1.
          4   -1    0    0  501    0  0.00000000000E+00 -0.00000000000E+00 -0.71267504650E+01  0.72668405920E+01  0.14200000000E+01 0. -1.
       1023    2    1    2    0    0  0.00000000000E+00  0.00000000000E+00  0.65961064903E+01  0.21062970593E+02  0.20003502428E+02 0.  0.
        -13    1    3    3    0    0 -0.94782154251E+01 -0.31899897306E+01  0.34097505083E+01  0.10566464553E+02  0.10570000000E+00 0.  1.
         13    1    3    3    0    0  0.94782154251E+01  0.31899897306E+01  0.31863559820E+01  0.10496506041E+02  0.10570000000E+00 0. -1.
<mgrwt>
<rscale>  0 0.20003502E+02</rscale>
<asrwt>0</asrwt>
<pdfrwt beam="2">  1        4 0.11128357E-02 0.20003502E+02</pdfrwt>
<pdfrwt beam="1">  1       -4 0.21276213E-02 0.20003502E+02</pdfrwt>
<totfact> 0.12946409E+06</totfact>
</mgrwt>
</event>
<event>
 5    1  0.4808838E-007  0.2000228E+02  0.7818608E-02  0.1745283E+00
          4   -1    0    0  501    0  0.00000000000E+00  0.00000000000E+00  0.74349551926E+01  0.75693433478E+01  0.14200000000E+01 0.  1.
         -4   -1    0    0    0  501 -0.00000000000E+00 -0.00000000000E+00 -0.13159625452E+02  0.13236016850E+02  0.14200000000E+01 0. -1.
       1023    2    1    2    0    0  0.00000000000E+00  0.00000000000E+00 -0.57246702596E+01  0.20805360197E+02  0.20002278954E+02 0.  0.
        -13    1    3    3    0    0  0.63291198756E+01 -0.77426459696E+01 -0.27866586956E+01  0.10381857454E+02  0.10570000000E+00 0. -1.
         13    1    3    3    0    0 -0.63291198756E+01  0.77426459696E+01 -0.29380115640E+01  0.10423502744E+02  0.10570000000E+00 0.  1.
<mgrwt>
<rscale>  0 0.20002279E+02</rscale>
<asrwt>0</asrwt>
<pdfrwt beam="1">  1        4 0.11600531E-02 0.20002279E+02</pdfrwt>
<pdfrwt beam="2">  1       -4 0.20407716E-02 0.20002279E+02</pdfrwt>
<totfact> 0.12963245E+06</totfact>
</mgrwt>
</event>
<event>
 4    1  0.4710515E-007  0.2001548E+02  0.7818608E-02  0.1745020E+00
         -4   -1    0    0    0  501 -0.00000000000E+00  0.00000000000E+00  0.25486365538E+01  0.29175243416E+01  0.14200000000E+01 0.  1.
          4   -1    0    0  501    0  0.00000000000E+00 -0.00000000000E+00 -0.36261680011E+02  0.36289472815E+02  0.14200000000E+01 0. -1.
        -13    1    1    2    0    0 -0.85110103358E+01 -0.52627459636E+01 -0.16661943069E+02  0.19436185617E+02  0.10570000000E+00 0. -1.
         13    1    1    2    0    0  0.85110103358E+01  0.52627459636E+01 -0.17051100389E+02  0.19770811540E+02  0.10570000000E+00 0.  1.
<mgrwt>
<rscale>  0 0.20015477E+02</rscale>
<asrwt>0</asrwt>
<pdfrwt beam="2">  1        4 0.56092335E-02 0.20015477E+02</pdfrwt>
<pdfrwt beam="1">  1       -4 0.42261185E-03 0.20015477E+02</pdfrwt>
<totfact> 0.11980899E+06</totfact>
</mgrwt>
</event>
<event>
 5    1  0.5021762E-007  0.2000209E+02  0.7818608E-02  0.1745286E+00
         -4   -1    0    0    0  501 -0.00000000000E+00  0.00000000000E+00  0.12988461725E+02  0.13065853894E+02  0.14200000000E+01 0. -1.
          4   -1    0    0  501    0  0.00000000000E+00 -0.00000000000E+00 -0.75339614390E+01  0.76666143091E+01  0.14200000000E+01 0.  1.
       1023    2    1    2    0    0  0.00000000000E+00  0.00000000000E+00  0.54545002862E+01  0.20732468203E+02  0.20002091501E+02 0.  0.
        -13    1    3    3    0    0  0.98180895407E+01  0.18990946164E+01  0.26328132957E+01  0.10341388733E+02  0.10570000000E+00 0. -1.
         13    1    3    3    0    0 -0.98180895407E+01 -0.18990946164E+01  0.28216869905E+01  0.10391079470E+02  0.10570000000E+00 0.  1.
<mgrwt>
<rscale>  0 0.20002092E+02</rscale>
<asrwt>0</asrwt>
<pdfrwt beam="2">  1        4 0.11752283E-02 0.20002092E+02</pdfrwt>
<pdfrwt beam="1">  1       -4 0.20143822E-02 0.20002092E+02</pdfrwt>
<totfact> 0.12967813E+06</totfact>
</mgrwt>
</event>
<event>
 4    1  0.4710515E-007  0.2006756E+02  0.7818608E-02  0.1743988E+00
         -4   -1    0    0    0  501 -0.00000000000E+00  0.00000000000E+00  0.21321813111E+02  0.21369045705E+02  0.14200000000E+01 0. -1.
          4   -1    0    0  501    0  0.00000000000E+00 -0.00000000000E+00 -0.45612336690E+01  0.47771594681E+01  0.14200000000E+01 0.  1.
        -13    1    1    2    0    0  0.51533552707E+01 -0.85941954147E+01  0.90295484368E+01  0.13489298827E+02  0.10570000000E+00 0.  1.
         13    1    1    2    0    0 -0.51533552707E+01  0.85941954147E+01  0.77310310055E+01  0.12656906347E+02  0.10570000000E+00 0. -1.
<mgrwt>
<rscale>  0 0.20067561E+02</rscale>
<asrwt>0</asrwt>
<pdfrwt beam="2">  1        4 0.72197121E-03 0.20067561E+02</pdfrwt>
<pdfrwt beam="1">  1       -4 0.33005219E-02 0.20067561E+02</pdfrwt>
<totfact> 0.12575475E+06</totfact>
</mgrwt>
</event>
<event>
 4    1  0.4710515E-007  0.2001862E+02  0.7818608E-02  0.1744958E+00
         -4   -1    0    0    0  501 -0.00000000000E+00  0.00000000000E+00  0.56010546155E+02  0.56028543445E+02  0.14200000000E+01 0.  1.
          4   -1    0    0  501    0  0.00000000000E+00 -0.00000000000E+00 -0.14856323696E+01  0.20551164292E+01  0.14200000000E+01 0. -1.
        -13    1    1    2    0    0 -0.75583121035E+01  0.65522117269E+01  0.28248949422E+02  0.29967880744E+02  0.10570000000E+00 0.  1.
         13    1    1    2    0    0  0.75583121035E+01 -0.65522117269E+01  0.26275964363E+02  0.28115779130E+02  0.10570000000E+00 0. -1.
<mgrwt>
<rscale>  0 0.20018624E+02</rscale>
<asrwt>0</asrwt>
<pdfrwt beam="2">  1        4 0.27374971E-03 0.20018624E+02</pdfrwt>
<pdfrwt beam="1">  1       -4 0.86621975E-02 0.20018624E+02</pdfrwt>
<totfact> 0.11172020E+06</totfact>
</mgrwt>
</event>
<event>
 4    1  0.4710515E-007  0.2007549E+02  0.7818608E-02  0.1743831E+00
          4   -1    0    0  501    0  0.00000000000E+00  0.00000000000E+00  0.29675830773E+02  0.29709785123E+02  0.14200000000E+01 0.  1.
         -4   -1    0    0    0  501 -0.00000000000E+00 -0.00000000000E+00 -0.32091878264E+01  0.35093142500E+01  0.14200000000E+01 0. -1.
        -13    1    1    2    0    0  0.77192109884E+01 -0.64151155559E+01  0.13113481157E+02  0.16514069348E+02  0.10570000000E+00 0.  1.
         13    1    1    2    0    0 -0.77192109884E+01  0.64151155559E+01  0.13353161789E+02  0.16705030025E+02  0.10570000000E+00 0. -1.
<mgrwt>
<rscale>  0 0.20075492E+02</rscale>
<asrwt>0</asrwt>
<pdfrwt beam="1">  1        4 0.45912108E-02 0.20075492E+02</pdfrwt>
<pdfrwt beam="2">  1       -4 0.51941975E-03 0.20075492E+02</pdfrwt>
<totfact> 0.12197009E+06</totfact>
</mgrwt>
</event>
<event>
 5    1  0.4896629E-007  0.2000166E+02  0.7818608E-02  0.1745295E+00
         -4   -1    0    0    0  501 -0.00000000000E+00  0.00000000000E+00  0.16326456872E+01  0.21637772390E+01  0.14200000000E+01 0.  1.
          4   -1    0    0  501    0  0.00000000000E+00 -0.00000000000E+00 -0.52147752122E+02  0.52167082066E+02  0.14200000000E+01 0. -1.
       1023    2    1    2    0    0  0.00000000000E+00  0.00000000000E+00 -0.50515106434E+02  0.54330859305E+02  0.20001657301E+02 0.  0.
        -13    1    3    3    0    0 -0.86303674621E+01  0.50517393655E+01 -0.25381676137E+02  0.27280835199E+02  0.10570000000E+00 0. -1.
         13    1    3    3    0    0  0.86303674621E+01 -0.50517393655E+01 -0.25133430297E+02  0.27050024106E+02  0.10570000000E+00 0.  1.
<mgrwt>
<rscale>  0 0.20001657E+02</rscale>
<asrwt>0</asrwt>
<pdfrwt beam="2">  1        4 0.80650732E-02 0.20001657E+02</pdfrwt>
<pdfrwt beam="1">  1       -4 0.29351949E-03 0.20001657E+02</pdfrwt>
<totfact> 0.11339934E+06</totfact>
</mgrwt>
</event>
<event>
 5    1  0.4710515E-007  0.2000522E+02  0.7818608E-02  0.1745224E+00
          4   -1    0    0  501    0  0.00000000000E+00  0.00000000000E+00  0.33060147599E+01  0.35980735947E+01  0.14200000000E+01 0.  1.
         -4   -1    0    0    0  501 -0.00000000000E+00 -0.00000000000E+00 -0.28673091040E+02  0.28708231394E+02  0.14200000000E+01 0. -1.
       1023    2    1    2    0    0  0.00000000000E+00  0.00000000000E+00 -0.25367076280E+02  0.32306304989E+02  0.20005218895E+02 0.  0.
        -13    1    3    3    0    0  0.95111588061E+01 -0.30949764727E+01 -0.12681215780E+02  0.16151328966E+02  0.10570000000E+00 0.  1.
         13    1    3    3    0    0 -0.95111588061E+01  0.30949764727E+01 -0.12685860500E+02  0.16154976023E+02  0.10570000000E+00 0. -1.
<mgrwt>
<rscale>  0 0.20005219E+02</rscale>
<asrwt>0</asrwt>
<pdfrwt beam="1">  1        4 0.53378684E-03 0.20005219E+02</pdfrwt>
<pdfrwt beam="2">  1       -4 0.44364138E-02 0.20005219E+02</pdfrwt>
<totfact> 0.12330317E+06</totfact>
</mgrwt>
</event>
<event>
 5    1  0.4710515E-007  0.2000363E+02  0.7818608E-02  0.1745256E+00
         -4   -1    0    0    0  501 -0.00000000000E+00  0.00000000000E+00  0.43499832081E+02  0.43523003011E+02  0.14200000000E+01 0.  1.
          4   -1    0    0  501    0  0.00000000000E+00 -0.00000000000E+00 -0.20543532977E+01  0.24973520921E+01  0.14200000000E+01 0. -1.
       1023    2    1    2    0    0  0.00000000000E+00  0.00000000000E+00  0.41445478784E+02  0.46020355103E+02  0.20003633975E+02 0.  0.
        -13    1    3    3    0    0  0.71398806964E+01  0.70032375880E+01  0.20621473970E+02  0.22918978910E+02  0.10570000000E+00 0.  1.
         13    1    3    3    0    0 -0.71398806964E+01 -0.70032375880E+01  0.20824004813E+02  0.23101376193E+02  0.10570000000E+00 0. -1.
<mgrwt>
<rscale>  0 0.20003634E+02</rscale>
<asrwt>0</asrwt>
<pdfrwt beam="2">  1        4 0.35191359E-03 0.20003634E+02</pdfrwt>
<pdfrwt beam="1">  1       -4 0.67281406E-02 0.20003634E+02</pdfrwt>
<totfact> 0.11686635E+06</totfact>
</mgrwt>
</event>
<event>
 4    1  0.4710515E-007  0.2001557E+02  0.7818608E-02  0.1745019E+00
          4   -1    0    0  501    0  0.00000000000E+00  0.00000000000E+00  0.22770026259E+01  0.26834941696E+01  0.14200000000E+01 0.  1.
         -4   -1    0    0    0  501 -0.00000000000E+00 -0.00000000000E+00 -0.39961194261E+02  0.39986415778E+02  0.14200000000E+01 0. -1.
        -13    1    1    2    0    0 -0.15349345206E+01  0.98876781400E+01 -0.19160828242E+02  0.21616445462E+02  0.10570000000E+00 0.  1.
         13    1    1    2    0    0  0.15349345206E+01 -0.98876781400E+01 -0.18523363393E+02  0.21053464486E+02  0.10570000000E+00 0. -1.
<mgrwt>
<rscale>  0 0.20015567E+02</rscale>
<asrwt>0</asrwt>
<pdfrwt beam="1">  1        4 0.38351682E-03 0.20015567E+02</pdfrwt>
<pdfrwt beam="2">  1       -4 0.61810843E-02 0.20015567E+02</pdfrwt>
<totfact> 0.11821480E+06</totfact>
</mgrwt>
</event>
<event>
 5    1  0.4710515E-007  0.2000333E+02  0.7818608E-02  0.1745262E+00
         -4   -1    0    0    0  501 -0.00000000000E+00  0.00000000000E+00  0.13555978266E+02  0.13630148450E+02  0.14200000000E+01 0.  1.
          4   -1    0    0  501    0  0.00000000000E+00 -0.00000000000E+00 -0.72155877560E+01  0.73539857672E+01  0.14200000000E+01 0. -1.
       1023    2    1    2    0    0  0.00000000000E+00  0.00000000000E+00  0.63403905105E+01  0.20984134217E+02  0.20003333147E+02 0.  0.
        -13    1    3    3    0    0  0.53605300846E+01 -0.84424641690E+01  0.30568331576E+01  0.10457814565E+02  0.10570000000E+00 0. -1.
         13    1    3    3    0    0 -0.53605300846E+01  0.84424641690E+01  0.32835573529E+01  0.10526319652E+02  0.10570000000E+00 0.  1.
<mgrwt>
<rscale>  0 0.20003333E+02</rscale>
<asrwt>0</asrwt>
<pdfrwt beam="2">  1        4 0.11264418E-02 0.20003333E+02</pdfrwt>
<pdfrwt beam="1">  1       -4 0.21018865E-02 0.20003333E+02</pdfrwt>
<totfact> 0.12951282E+06</totfact>
</mgrwt>
</event>
<event>
 4    1  0.4710515E-007  0.2003013E+02  0.7818608E-02  0.1744730E+00
         -4   -1    0    0    0  501 -0.00000000000E+00  0.00000000000E+00  0.76958096562E+00  0.16151330789E+01  0.14200000000E+01 0.  1.
          4   -1    0    0  501    0  0.00000000000E+00 -0.00000000000E+00 -0.83266589254E+02  0.83278696471E+02  0.14200000000E+01 0. -1.
        -13    1    1    2    0    0  0.19255648312E+01 -0.98275035642E+01 -0.41467960439E+02  0.42660175124E+02  0.10570000000E+00 0. -1.
         13    1    1    2    0    0 -0.19255648312E+01  0.98275035642E+01 -0.41029047849E+02  0.42233654425E+02  0.10570000000E+00 0.  1.
<mgrwt>
<rscale>  0 0.20030125E+02</rscale>
<asrwt>0</asrwt>
<pdfrwt beam="2">  1        4 0.12876214E-01 0.20030125E+02</pdfrwt>
<pdfrwt beam="1">  1       -4 0.18437093E-03 0.20030125E+02</pdfrwt>
<totfact> 0.10223216E+06</totfact>
</mgrwt>
</event>
<event>
 5    1  0.4898053E-007  0.2000214E+02  0.7818608E-02  0.1745285E+00
          4   -1    0    0  501    0  0.00000000000E+00  0.00000000000E+00  0.10737283522E+02  0.10830773630E+02  0.14200000000E+01 0. -1.
         -4   -1    0    0    0  501 -0.00000000000E+00 -0.00000000000E+00 -0.91263247751E+01  0.92361357667E+01  0.14200000000E+01 0.  1.
       1023    2    1    2    0    0  0.00000000000E+00  0.00000000000E+00  0.16109587468E+01  0.20066909397E+02  0.20002141502E+02 0.  0.
        -13    1    3    3    0    0 -0.98359111542E+01 -0.18062055854E+01  0.75318743048E+00  0.10029256734E+02  0.10570000000E+00 0. -1.
         13    1    3    3    0    0  0.98359111542E+01  0.18062055854E+01  0.85777131633E+00  0.10037652662E+02  0.10570000000E+00 0.  1.
<mgrwt>
<rscale>  0 0.20002142E+02</rscale>
<asrwt>0</asrwt>
<pdfrwt beam="1">  1        4 0.16675283E-02 0.20002142E+02</pdfrwt>
<pdfrwt beam="2">  1       -4 0.14196885E-02 0.20002142E+02</pdfrwt>
<totfact> 0.13007231E+06</totfact>
</mgrwt>
</event>
<event>
 5    1  0.4710515E-007  0.2000298E+02  0.7818608E-02  0.1745269E+00
          4   -1    0    0  501    0  0.00000000000E+00  0.00000000000E+00  0.38307477723E+02  0.38333787309E+02  0.14200000000E+01 0.  1.
         -4   -1    0    0    0  501 -0.00000000000E+00 -0.00000000000E+00 -0.23888735500E+01  0.27790496286E+01  0.14200000000E+01 0. -1.
       1023    2    1    2    0    0  0.00000000000E+00  0.00000000000E+00  0.35918604173E+02  0.41112836938E+02  0.20002980662E+02 0.  0.
        -13    1    3    3    0    0 -0.98612542784E+01 -0.16653003917E+01  0.18026691231E+02  0.20615293609E+02  0.10570000000E+00 0.  1.
         13    1    3    3    0    0  0.98612542784E+01  0.16653003917E+01  0.17891912941E+02  0.20497543329E+02  0.10570000000E+00 0. -1.
<mgrwt>
<rscale>  0 0.20002981E+02</rscale>
<asrwt>0</asrwt>
<pdfrwt beam="1">  1        4 0.59254959E-02 0.20002981E+02</pdfrwt>
<pdfrwt beam="2">  1       -4 0.39955634E-03 0.20002981E+02</pdfrwt>
<totfact> 0.11907535E+06</totfact>
</mgrwt>
</event>
<event>
 4    1  0.4710515E-007  0.2006360E+02  0.7818608E-02  0.1744066E+00
         -4   -1    0    0    0  501 -0.00000000000E+00  0.00000000000E+00  0.16567239862E+01  0.21820023754E+01  0.14200000000E+01 0. -1.
          4   -1    0    0  501    0  0.00000000000E+00 -0.00000000000E+00 -0.51896163766E+02  0.51915587386E+02  0.14200000000E+01 0.  1.
        -13    1    1    2    0    0  0.91208077144E+01  0.41754640799E+01 -0.25245351984E+02  0.27165467103E+02  0.10570000000E+00 0.  1.
         13    1    1    2    0    0 -0.91208077144E+01 -0.41754640799E+01 -0.24994087797E+02  0.26932122659E+02  0.10570000000E+00 0. -1.
<mgrwt>
<rscale>  0 0.20063597E+02</rscale>
<asrwt>0</asrwt>
<pdfrwt beam="2">  1        4 0.80259243E-02 0.20063597E+02</pdfrwt>
<pdfrwt beam="1">  1       -4 0.29678081E-03 0.20063597E+02</pdfrwt>
<totfact> 0.11278832E+06</totfact>
</mgrwt>
</event>
<event>
 5    1  0.4723696E-007  0.2000147E+02  0.7818608E-02  0.1745299E+00
          4   -1    0    0  501    0  0.00000000000E+00  0.00000000000E+00  0.37707329312E+02  0.37734057347E+02  0.14200000000E+01 0.  1.
         -4   -1    0    0    0  501 -0.00000000000E+00 -0.00000000000E+00 -0.24325941372E+01  0.28167204754E+01  0.14200000000E+01 0. -1.
       1023    2    1    2    0    0  0.00000000000E+00  0.00000000000E+00  0.35274735175E+02  0.40550777822E+02  0.20001465954E+02 0.  0.
        -13    1    3    3    0    0 -0.96582728909E+01 -0.25920800779E+01  0.17538601712E+02  0.20189473417E+02  0.10570000000E+00 0.  1.
         13    1    3    3    0    0  0.96582728909E+01  0.25920800779E+01  0.17736133463E+02  0.20361304405E+02  0.10570000000E+00 0. -1.
<mgrwt>
<rscale>  0 0.20001466E+02</rscale>
<asrwt>0</asrwt>
<pdfrwt beam="1">  1        4 0.58327315E-02 0.20001466E+02</pdfrwt>
<pdfrwt beam="2">  1       -4 0.40584945E-03 0.20001466E+02</pdfrwt>
<totfact> 0.11935280E+06</totfact>
</mgrwt>
</event>
<event>
 4    1  0.4710515E-007  0.2002498E+02  0.7818608E-02  0.1744832E+00
         -4   -1    0    0    0  501 -0.00000000000E+00  0.00000000000E+00  0.11704468382E+02  0.11790291774E+02  0.14200000000E+01 0. -1.
          4   -1    0    0  501    0  0.00000000000E+00 -0.00000000000E+00 -0.83880957615E+01  0.85074408905E+01  0.14200000000E+01 0.  1.
        -13    1    1    2    0    0  0.14252094841E+01 -0.99091005239E+01  0.15251035297E+01  0.10127122421E+02  0.10570000000E+00 0.  1.
         13    1    1    2    0    0 -0.14252094841E+01  0.99091005239E+01  0.17912690908E+01  0.10170610243E+02  0.10570000000E+00 0. -1.
<mgrwt>
<rscale>  0 0.20024975E+02</rscale>
<asrwt>0</asrwt>
<pdfrwt beam="2">  1        4 0.13062585E-02 0.20024975E+02</pdfrwt>
<pdfrwt beam="1">  1       -4 0.18164696E-02 0.20024975E+02</pdfrwt>
<totfact> 0.12963256E+06</totfact>
</mgrwt>
</event>
<event>
 5    1  0.4710515E-007  0.2000959E+02  0.7818608E-02  0.1745137E+00
         -4   -1    0    0    0  501 -0.00000000000E+00  0.00000000000E+00  0.72625131235E+02  0.72639012155E+02  0.14200000000E+01 0.  1.
          4   -1    0    0  501    0  0.00000000000E+00 -0.00000000000E+00 -0.99468794219E+00  0.17337254980E+01  0.14200000000E+01 0. -1.
       1023    2    1    2    0    0  0.00000000000E+00  0.00000000000E+00  0.71630443292E+02  0.74372737653E+02  0.20009590194E+02 0.  0.
        -13    1    3    3    0    0  0.91142513046E+01 -0.41223831344E+01  0.36355546593E+02  0.37706770747E+02  0.10570000000E+00 0. -1.
         13    1    3    3    0    0 -0.91142513046E+01  0.41223831344E+01  0.35274896699E+02  0.36665966906E+02  0.10570000000E+00 0.  1.
<mgrwt>
<rscale>  0 0.20009590E+02</rscale>
<asrwt>0</asrwt>
<pdfrwt beam="2">  1        4 0.21094572E-03 0.20009590E+02</pdfrwt>
<pdfrwt beam="1">  1       -4 0.11231014E-01 0.20009590E+02</pdfrwt>
<totfact> 0.10588880E+06</totfact>
</mgrwt>
</event>
<event>
 4    1  0.4710515E-007  0.2007750E+02  0.7818608E-02  0.1743791E+00
          4   -1    0    0  501    0  0.00000000000E+00  0.00000000000E+00  0.10179950017E+02  0.10278510706E+02  0.14200000000E+01 0. -1.
         -4   -1    0    0    0  501 -0.00000000000E+00 -0.00000000000E+00 -0.97013216657E+01  0.98046948990E+01  0.14200000000E+01 0.  1.
        -13    1    1    2    0    0  0.75743975295E+01 -0.65805239319E+01  0.54031482053E+00  0.10048776331E+02  0.10570000000E+00 0.  1.
         13    1    1    2    0    0 -0.75743975295E+01  0.65805239319E+01 -0.61686469552E-01  0.10034429274E+02  0.10570000000E+00 0. -1.
<mgrwt>
<rscale>  0 0.20077501E+02</rscale>
<asrwt>0</asrwt>
<pdfrwt beam="1">  1        4 0.15816795E-02 0.20077501E+02</pdfrwt>
<pdfrwt beam="2">  1       -4 0.15080444E-02 0.20077501E+02</pdfrwt>
<totfact> 0.12906721E+06</totfact>
</mgrwt>
</event>
<event>
 4    1  0.4710515E-007  0.2005010E+02  0.7818608E-02  0.1744334E+00
         -4   -1    0    0    0  501 -0.00000000000E+00  0.00000000000E+00  0.11342996989E+02  0.11431534486E+02  0.14200000000E+01 0.  1.
          4   -1    0    0  501    0  0.00000000000E+00 -0.00000000000E+00 -0.86793299463E+01  0.87947238909E+01  0.14200000000E+01 0. -1.
        -13    1    1    2    0    0  0.96723832539E+01 -0.25965717116E+01  0.88837308726E+00  0.10054728325E+02  0.10570000000E+00 0. -1.
         13    1    1    2    0    0 -0.96723832539E+01  0.25965717116E+01  0.17752939557E+01  0.10171530051E+02  0.10570000000E+00 0.  1.
<mgrwt>
<rscale>  0 0.20050097E+02</rscale>
<asrwt>0</asrwt>
<pdfrwt beam="2">  1        4 0.13509686E-02 0.20050097E+02</pdfrwt>
<pdfrwt beam="1">  1       -4 0.17607635E-02 0.20050097E+02</pdfrwt>
<totfact> 0.12934342E+06</totfact>
</mgrwt>
</event>
<event>
 4    1  0.4710515E-007  0.2001264E+02  0.7818608E-02  0.1745077E+00
          4   -1    0    0  501    0  0.00000000000E+00  0.00000000000E+00  0.48537936673E+01  0.50572436133E+01  0.14200000000E+01 0.  1.
         -4   -1    0    0    0  501 -0.00000000000E+00 -0.00000000000E+00 -0.19975872899E+02  0.20026280186E+02  0.14200000000E+01 0. -1.
        -13    1    1    2    0    0  0.16844708676E+01  0.98608954128E+01 -0.78135849145E+01  0.12694013635E+02  0.10570000000E+00 0. -1.
         13    1    1    2    0    0 -0.16844708676E+01 -0.98608954128E+01 -0.73084943176E+01  0.12389510165E+02  0.10570000000E+00 0.  1.
<mgrwt>
<rscale>  0 0.20012643E+02</rscale>
<asrwt>0</asrwt>
<pdfrwt beam="1">  1        4 0.76626498E-03 0.20012643E+02</pdfrwt>
<pdfrwt beam="2">  1       -4 0.30927386E-02 0.20012643E+02</pdfrwt>
<totfact> 0.12704576E+06</totfact>
</mgrwt>
</event>
<event>
 4    1  0.4710515E-007  0.2002332E+02  0.7818608E-02  0.1744865E+00
          4   -1    0    0  501    0  0.00000000000E+00  0.00000000000E+00  0.14591242085E+02  0.14660175497E+02  0.14200000000E+01 0. -1.
         -4   -1    0    0    0  501 -0.00000000000E+00 -0.00000000000E+00 -0.67098130172E+01  0.68584247992E+01  0.14200000000E+01 0.  1.
        -13    1    1    2    0    0 -0.11529624480E+01 -0.99437227614E+01  0.40731720600E+01  0.10807814205E+02  0.10570000000E+00 0. -1.
         13    1    1    2    0    0  0.11529624480E+01  0.99437227614E+01  0.38082570081E+01  0.10710786091E+02  0.10570000000E+00 0.  1.
<mgrwt>
<rscale>  0 0.20023317E+02</rscale>
<asrwt>0</asrwt>
<pdfrwt beam="1">  1        4 0.22615407E-02 0.20023317E+02</pdfrwt>
<pdfrwt beam="2">  1       -4 0.10490132E-02 0.20023317E+02</pdfrwt>
<totfact> 0.12893590E+06</totfact>
</mgrwt>
</event>
<event>
 5    1  0.5039742E-007  0.2000158E+02  0.7818608E-02  0.1745297E+00
         -4   -1    0    0    0  501 -0.00000000000E+00  0.00000000000E+00  0.21420555049E+01  0.25699808921E+01  0.14200000000E+01 0.  1.
          4   -1    0    0  501    0  0.00000000000E+00 -0.00000000000E+00 -0.42010179569E+02  0.42034171663E+02  0.14200000000E+01 0. -1.
       1023    2    1    2    0    0  0.00000000000E+00  0.00000000000E+00 -0.39868124064E+02  0.44604152555E+02  0.20001577658E+02 0.  0.
        -13    1    3    3    0    0 -0.32577776109E+01 -0.94545943098E+01 -0.19830992491E+02  0.22209950567E+02  0.10570000000E+00 0.  1.
         13    1    3    3    0    0  0.32577776109E+01  0.94545943098E+01 -0.20037131573E+02  0.22394201988E+02  0.10570000000E+00 0. -1.
<mgrwt>
<rscale>  0 0.20001578E+02</rscale>
<asrwt>0</asrwt>
<pdfrwt beam="2">  1        4 0.64978669E-02 0.20001578E+02</pdfrwt>
<pdfrwt beam="1">  1       -4 0.36430992E-03 0.20001578E+02</pdfrwt>
<totfact> 0.11751474E+06</totfact>
</mgrwt>
</event>
<event>
 5    1  0.5207122E-007  0.2000182E+02  0.7818608E-02  0.1745292E+00
         -4   -1    0    0    0  501 -0.00000000000E+00  0.00000000000E+00  0.16480763580E+02  0.16541824814E+02  0.14200000000E+01 0.  1.
          4   -1    0    0  501    0  0.00000000000E+00 -0.00000000000E+00 -0.59122766620E+01  0.60804124308E+01  0.14200000000E+01 0. -1.
       1023    2    1    2    0    0  0.00000000000E+00  0.00000000000E+00  0.10568486918E+02  0.22622237245E+02  0.20001817473E+02 0.  0.
        -13    1    3    3    0    0 -0.87521553838E+01  0.48380127490E+01  0.52612908338E+01  0.11300395787E+02  0.10570000000E+00 0. -1.
         13    1    3    3    0    0  0.87521553838E+01 -0.48380127490E+01  0.53071960841E+01  0.11321841457E+02  0.10570000000E+00 0.  1.
<mgrwt>
<rscale>  0 0.20001817E+02</rscale>
<asrwt>0</asrwt>
<pdfrwt beam="2">  1        4 0.92721159E-03 0.20001817E+02</pdfrwt>
<pdfrwt beam="1">  1       -4 0.25531326E-02 0.20001817E+02</pdfrwt>
<totfact> 0.12857875E+06</totfact>
</mgrwt>
</event>
<event>
 4    1  0.4710515E-007  0.2011042E+02  0.7818608E-02  0.1743141E+00
         -4   -1    0    0    0  501 -0.00000000000E+00  0.00000000000E+00  0.64778069433E+02  0.64793631473E+02  0.14200000000E+01 0. -1.
          4   -1    0    0  501    0  0.00000000000E+00 -0.00000000000E+00 -0.12187660417E+01  0.18713072074E+01  0.14200000000E+01 0.  1.
        -13    1    1    2    0    0  0.23471660008E+01  0.97735397192E+01  0.30935732506E+02  0.32527864748E+02  0.10570000000E+00 0. -1.
         13    1    1    2    0    0 -0.23471660008E+01 -0.97735397192E+01  0.32623570885E+02  0.34137073932E+02  0.10570000000E+00 0.  1.
<mgrwt>
<rscale>  0 0.20110420E+02</rscale>
<asrwt>0</asrwt>
<pdfrwt beam="2">  1        4 0.23889505E-03 0.20110420E+02</pdfrwt>
<pdfrwt beam="1">  1       -4 0.10017248E-01 0.20110420E+02</pdfrwt>
<totfact> 0.10750518E+06</totfact>
</mgrwt>
</event>
<event>
 5    1  0.4735433E-007  0.2000154E+02  0.7818608E-02  0.1745297E+00
          4   -1    0    0  501    0  0.00000000000E+00  0.00000000000E+00  0.53227132073E+01  0.55088724696E+01  0.14200000000E+01 0. -1.
         -4   -1    0    0    0  501 -0.00000000000E+00 -0.00000000000E+00 -0.18253160849E+02  0.18308311800E+02  0.14200000000E+01 0.  1.
       1023    2    1    2    0    0  0.00000000000E+00  0.00000000000E+00 -0.12930447641E+02  0.23817184270E+02  0.20001544699E+02 0.  0.
        -13    1    3    3    0    0 -0.98105960587E+01 -0.19381637339E+01 -0.64638123593E+01  0.11907825847E+02  0.10570000000E+00 0. -1.
         13    1    3    3    0    0  0.98105960587E+01  0.19381637339E+01 -0.64666352821E+01  0.11909358423E+02  0.10570000000E+00 0.  1.
<mgrwt>
<rscale>  0 0.20001545E+02</rscale>
<asrwt>0</asrwt>
<pdfrwt beam="1">  1        4 0.83744129E-03 0.20001545E+02</pdfrwt>
<pdfrwt beam="2">  1       -4 0.28267409E-02 0.20001545E+02</pdfrwt>
<totfact> 0.12790073E+06</totfact>
</mgrwt>
</event>
<event>
 4    1  0.4710515E-007  0.2167960E+02  0.7818608E-02  0.1713853E+00
          4   -1    0    0  501    0  0.00000000000E+00  0.00000000000E+00  0.27512599505E+02  0.27549220161E+02  0.14200000000E+01 0. -1.
         -4   -1    0    0    0  501 -0.00000000000E+00 -0.00000000000E+00 -0.41121377948E+01  0.43504111579E+01  0.14200000000E+01 0.  1.
        -13    1    1    2    0    0 -0.64127417752E+01  0.87265049689E+01  0.11018125179E+02  0.15449446625E+02  0.10570000000E+00 0. -1.
         13    1    1    2    0    0  0.64127417752E+01 -0.87265049689E+01  0.12382336530E+02  0.16450184695E+02  0.10570000000E+00 0.  1.
<mgrwt>
<rscale>  0 0.21679596E+02</rscale>
<asrwt>0</asrwt>
<pdfrwt beam="1">  1        4 0.42538533E-02 0.21679596E+02</pdfrwt>
<pdfrwt beam="2">  1       -4 0.65378228E-03 0.21679596E+02</pdfrwt>
<totfact> 0.10465032E+06</totfact>
</mgrwt>
</event>
<event>
 5    1  0.5119308E-007  0.2001218E+02  0.7818608E-02  0.1745086E+00
         -4   -1    0    0    0  501 -0.00000000000E+00  0.00000000000E+00  0.89161078515E+01  0.90284760187E+01  0.14200000000E+01 0.  1.
          4   -1    0    0  501    0  0.00000000000E+00 -0.00000000000E+00 -0.11000715858E+02  0.11091985818E+02  0.14200000000E+01 0. -1.
       1023    2    1    2    0    0  0.00000000000E+00  0.00000000000E+00 -0.20846080063E+01  0.20120461837E+02  0.20012181140E+02 0.  0.
        -13    1    3    3    0    0 -0.99885114915E+01  0.48842481811E+00 -0.13630211812E+01  0.10093459261E+02  0.10570000000E+00 0. -1.
         13    1    3    3    0    0  0.99885114915E+01 -0.48842481811E+00 -0.72158682504E+00  0.10027002576E+02  0.10570000000E+00 0.  1.
<mgrwt>
<rscale>  0 0.20012181E+02</rscale>
<asrwt>0</asrwt>
<pdfrwt beam="2">  1        4 0.17080823E-02 0.20012181E+02</pdfrwt>
<pdfrwt beam="1">  1       -4 0.13873734E-02 0.20012181E+02</pdfrwt>
<totfact> 0.12990737E+06</totfact>
</mgrwt>
</event>
<event>
 5    1  0.4710515E-007  0.2000632E+02  0.7818608E-02  0.1745202E+00
          4   -1    0    0  501    0  0.00000000000E+00  0.00000000000E+00  0.39323622836E+01  0.41808938195E+01  0.14200000000E+01 0. -1.
         -4   -1    0    0    0  501 -0.00000000000E+00 -0.00000000000E+00 -0.24396794052E+02  0.24438084213E+02  0.14200000000E+01 0.  1.
       1023    2    1    2    0    0  0.00000000000E+00  0.00000000000E+00 -0.20464431768E+02  0.28618978033E+02  0.20006322402E+02 0.  0.
        -13    1    3    3    0    0 -0.97738323026E+01 -0.21254248125E+01 -0.10350463603E+02  0.14394043830E+02  0.10570000000E+00 0.  1.
         13    1    3    3    0    0  0.97738323026E+01  0.21254248125E+01 -0.10113968166E+02  0.14224934202E+02  0.10570000000E+00 0. -1.
<mgrwt>
<rscale>  0 0.20006322E+02</rscale>
<asrwt>0</asrwt>
<pdfrwt beam="1">  1        4 0.62727281E-03 0.20006322E+02</pdfrwt>
<pdfrwt beam="2">  1       -4 0.37756468E-02 0.20006322E+02</pdfrwt>
<totfact> 0.12520461E+06</totfact>
</mgrwt>
</event>
<event>
 5    1  0.4710515E-007  0.2000256E+02  0.7818608E-02  0.1745277E+00
         -4   -1    0    0    0  501 -0.00000000000E+00  0.00000000000E+00  0.41567182124E+02  0.41591429763E+02  0.14200000000E+01 0.  1.
          4   -1    0    0  501    0  0.00000000000E+00 -0.00000000000E+00 -0.21696633151E+01  0.25930366177E+01  0.14200000000E+01 0. -1.
       1023    2    1    2    0    0  0.00000000000E+00  0.00000000000E+00  0.39397518809E+02  0.44184466381E+02  0.20002564362E+02 0.  0.
        -13    1    3    3    0    0 -0.92751435651E+01  0.37389361888E+01  0.19877407829E+02  0.22251526835E+02  0.10570000000E+00 0.  1.
         13    1    3    3    0    0  0.92751435651E+01 -0.37389361888E+01  0.19520110980E+02  0.21932939546E+02  0.10570000000E+00 0. -1.
<mgrwt>
<rscale>  0 0.20002564E+02</rscale>
<asrwt>0</asrwt>
<pdfrwt beam="2">  1        4 0.36822678E-03 0.20002564E+02</pdfrwt>
<pdfrwt beam="1">  1       -4 0.64293827E-02 0.20002564E+02</pdfrwt>
<totfact> 0.11768971E+06</totfact>
</mgrwt>
</event>
<event>
 5    1  0.4710515E-007  0.2000239E+02  0.7818608E-02  0.1745280E+00
         -4   -1    0    0    0  501 -0.00000000000E+00  0.00000000000E+00  0.10852309472E+01  0.17872118533E+01  0.14200000000E+01 0. -1.
          4   -1    0    0  501    0  0.00000000000E+00 -0.00000000000E+00 -0.68932744564E+02  0.68947368863E+02  0.14200000000E+01 0.  1.
       1023    2    1    2    0    0  0.00000000000E+00  0.00000000000E+00 -0.67847513617E+02  0.70734580717E+02  0.20002394985E+02 0.  0.
        -13    1    3    3    0    0 -0.61631692876E+01 -0.78753779066E+01 -0.34209868878E+02  0.35641724622E+02  0.10570000000E+00 0. -1.
         13    1    3    3    0    0  0.61631692876E+01  0.78753779066E+01 -0.33637644739E+02  0.35092856095E+02  0.10570000000E+00 0.  1.
<mgrwt>
<rscale>  0 0.20002395E+02</rscale>
<asrwt>0</asrwt>
<pdfrwt beam="2">  1        4 0.10660158E-01 0.20002395E+02</pdfrwt>
<pdfrwt beam="1">  1       -4 0.22208214E-03 0.20002395E+02</pdfrwt>
<totfact> 0.10722368E+06</totfact>
</mgrwt>
</event>
<event>
 5    1  0.4710515E-007  0.2000228E+02  0.7818608E-02  0.1745283E+00
         -4   -1    0    0    0  501 -0.00000000000E+00  0.00000000000E+00  0.30409247226E+00  0.14521956589E+01  0.14200000000E+01 0. -1.
          4   -1    0    0  501    0  0.00000000000E+00 -0.00000000000E+00 -0.11274703261E+03  0.11275597440E+03  0.14200000000E+01 0.  1.
       1023    2    1    2    0    0  0.00000000000E+00  0.00000000000E+00 -0.11244294014E+03  0.11420817006E+03  0.20002282891E+02 0.  0.
        -13    1    3    3    0    0  0.88216196824E+01  0.47106946668E+01 -0.56185512834E+02  0.57068683557E+02  0.10570000000E+00 0. -1.
         13    1    3    3    0    0 -0.88216196824E+01 -0.47106946668E+01 -0.56257427308E+02  0.57139486503E+02  0.10570000000E+00 0.  1.
<mgrwt>
<rscale>  0 0.20002283E+02</rscale>
<asrwt>0</asrwt>
<pdfrwt beam="2">  1        4 0.17434689E-01 0.20002283E+02</pdfrwt>
<pdfrwt beam="1">  1       -4 0.13578701E-03 0.20002283E+02</pdfrwt>
<totfact> 0.94120534E+05</totfact>
</mgrwt>
</event>
<event>
 5    1  0.4710515E-007  0.2000391E+02  0.7818608E-02  0.1745250E+00
          4   -1    0    0  501    0  0.00000000000E+00  0.00000000000E+00  0.28180884255E+02  0.28216637599E+02  0.14200000000E+01 0. -1.
         -4   -1    0    0    0  501 -0.00000000000E+00 -0.00000000000E+00 -0.33682534533E+01  0.36553428465E+01  0.14200000000E+01 0.  1.
       1023    2    1    2    0    0  0.00000000000E+00  0.00000000000E+00  0.24812630801E+02  0.31871980445E+02  0.20003911873E+02 0.  0.
        -13    1    3    3    0    0  0.32905294705E+01 -0.94444404048E+01  0.12320347146E+02  0.15869063143E+02  0.10570000000E+00 0. -1.
         13    1    3    3    0    0 -0.32905294705E+01  0.94444404048E+01  0.12492283656E+02  0.16002917302E+02  0.10570000000E+00 0.  1.
<mgrwt>
<rscale>  0 0.20003912E+02</rscale>
<asrwt>0</asrwt>
<pdfrwt beam="1">  1        4 0.43603546E-02 0.20003912E+02</pdfrwt>
<pdfrwt beam="2">  1       -4 0.54302691E-03 0.20003912E+02</pdfrwt>
<totfact> 0.12354101E+06</totfact>
</mgrwt>
</event>
<event>
 4    1  0.4710515E-007  0.2001366E+02  0.7818608E-02  0.1745056E+00
          4   -1    0    0  501    0  0.00000000000E+00  0.00000000000E+00  0.25472243503E+02  0.25511793137E+02  0.14200000000E+01 0. -1.
         -4   -1    0    0    0  501 -0.00000000000E+00 -0.00000000000E+00 -0.37588698571E+01  0.40181466627E+01  0.14200000000E+01 0.  1.
        -13    1    1    2    0    0  0.51471165393E+01  0.85760762290E+01  0.11283362738E+02  0.15078704829E+02  0.10570000000E+00 0. -1.
         13    1    1    2    0    0 -0.51471165393E+01 -0.85760762290E+01  0.10430010908E+02  0.14451234971E+02  0.10570000000E+00 0.  1.
<mgrwt>
<rscale>  0 0.20013664E+02</rscale>
<asrwt>0</asrwt>
<pdfrwt beam="1">  1        4 0.39417934E-02 0.20013664E+02</pdfrwt>
<pdfrwt beam="2">  1       -4 0.60127431E-03 0.20013664E+02</pdfrwt>
<totfact> 0.12463052E+06</totfact>
</mgrwt>
</event>
<event>
 5    1  0.4710515E-007  0.2000149E+02  0.7818608E-02  0.1745299E+00
         -4   -1    0    0    0  501 -0.00000000000E+00  0.00000000000E+00  0.10617228551E+03  0.10618178097E+03  0.14200000000E+01 0. -1.
          4   -1    0    0  501    0  0.00000000000E+00 -0.00000000000E+00 -0.39182104208E+00  0.14730660980E+01  0.14200000000E+01 0.  1.
       1023    2    1    2    0    0  0.00000000000E+00  0.00000000000E+00  0.10578046446E+03  0.10765484707E+03  0.20001485811E+02 0.  0.
        -13    1    3    3    0    0 -0.90389236683E+01  0.42779366520E+01  0.53042761292E+02  0.53977296904E+02  0.10570000000E+00 0. -1.
         13    1    3    3    0    0  0.90389236683E+01 -0.42779366520E+01  0.52737703172E+02  0.53677550162E+02  0.10570000000E+00 0.  1.
<mgrwt>
<rscale>  0 0.20001486E+02</rscale>
<asrwt>0</asrwt>
<pdfrwt beam="2">  1        4 0.14418333E-03 0.20001486E+02</pdfrwt>
<pdfrwt beam="1">  1       -4 0.16418095E-01 0.20001486E+02</pdfrwt>
<totfact> 0.95870647E+05</totfact>
</mgrwt>
</event>
<event>
 4    1  0.4802370E-007  0.2028251E+02  0.7818608E-02  0.1739768E+00
          4   -1    0    0  501    0  0.00000000000E+00  0.00000000000E+00  0.19093589280E+02  0.19146319531E+02  0.14200000000E+01 0.  1.
         -4   -1    0    0    0  501 -0.00000000000E+00 -0.00000000000E+00 -0.52314273419E+01  0.54207224641E+01  0.14200000000E+01 0. -1.
        -13    1    1    2    0    0 -0.84213367828E+01 -0.55694929172E+01  0.80773979213E+01  0.12930340066E+02  0.10570000000E+00 0. -1.
         13    1    1    2    0    0  0.84213367828E+01  0.55694929172E+01  0.57847640170E+01  0.11636701929E+02  0.10570000000E+00 0.  1.
<mgrwt>
<rscale>  0 0.20282505E+02</rscale>
<asrwt>0</asrwt>
<pdfrwt beam="1">  1        4 0.29560926E-02 0.20282505E+02</pdfrwt>
<pdfrwt beam="2">  1       -4 0.82345233E-03 0.20282505E+02</pdfrwt>
<totfact> 0.12389770E+06</totfact>
</mgrwt>
</event>
<event>
 4    1  0.4710515E-007  0.2001879E+02  0.7818608E-02  0.1744955E+00
         -4   -1    0    0    0  501 -0.00000000000E+00  0.00000000000E+00  0.36338368823E+02  0.36366103018E+02  0.14200000000E+01 0.  1.
          4   -1    0    0  501    0  0.00000000000E+00 -0.00000000000E+00 -0.25434575734E+01  0.29130012749E+01  0.14200000000E+01 0. -1.
        -13    1    1    2    0    0 -0.99168659943E+01 -0.13518118427E+01  0.16755924595E+02  0.19517781839E+02  0.10570000000E+00 0. -1.
         13    1    1    2    0    0  0.99168659943E+01  0.13518118427E+01  0.17038986655E+02  0.19761322453E+02  0.10570000000E+00 0.  1.
<mgrwt>
<rscale>  0 0.20018791E+02</rscale>
<asrwt>0</asrwt>
<pdfrwt beam="2">  1        4 0.42186105E-03 0.20018791E+02</pdfrwt>
<pdfrwt beam="1">  1       -4 0.56210775E-02 0.20018791E+02</pdfrwt>
<totfact> 0.11973506E+06</totfact>
</mgrwt>
</event>
<event>
 5    1  0.4710515E-007  0.2000382E+02  0.7818608E-02  0.1745252E+00
          4   -1    0    0  501    0  0.00000000000E+00  0.00000000000E+00  0.32789674464E+01  0.35732376795E+01  0.14200000000E+01 0. -1.
         -4   -1    0    0    0  501 -0.00000000000E+00 -0.00000000000E+00 -0.28886368558E+02  0.28921249773E+02  0.14200000000E+01 0.  1.
       1023    2    1    2    0    0  0.00000000000E+00  0.00000000000E+00 -0.25607401111E+02  0.32494487453E+02  0.20003817714E+02 0.  0.
        -13    1    3    3    0    0  0.17426450156E+01 -0.98483448524E+01 -0.12831850922E+02  0.16269427727E+02  0.10570000000E+00 0.  1.
         13    1    3    3    0    0 -0.17426450156E+01  0.98483448524E+01 -0.12775550190E+02  0.16225059726E+02  0.10570000000E+00 0. -1.
<mgrwt>
<rscale>  0 0.20003818E+02</rscale>
<asrwt>0</asrwt>
<pdfrwt beam="1">  1        4 0.52977589E-03 0.20003818E+02</pdfrwt>
<pdfrwt beam="2">  1       -4 0.44693759E-02 0.20003818E+02</pdfrwt>
<totfact> 0.12322510E+06</totfact>
</mgrwt>
</event>
<event>
 5    1  0.4786165E-007  0.2000140E+02  0.7818608E-02  0.1745300E+00
         -4   -1    0    0    0  501 -0.00000000000E+00  0.00000000000E+00  0.52969299652E+01  0.54839645382E+01  0.14200000000E+01 0.  1.
          4   -1    0    0  501    0  0.00000000000E+00 -0.00000000000E+00 -0.18338969992E+02  0.18393863661E+02  0.14200000000E+01 0. -1.
       1023    2    1    2    0    0  0.00000000000E+00  0.00000000000E+00 -0.13042040027E+02  0.23877828199E+02  0.20001396737E+02 0.  0.
        -13    1    3    3    0    0  0.53561825636E+01  0.84447494379E+01 -0.65420610708E+01  0.11950406699E+02  0.10570000000E+00 0. -1.
         13    1    3    3    0    0 -0.53561825636E+01 -0.84447494379E+01 -0.64999789561E+01  0.11927421500E+02  0.10570000000E+00 0.  1.
<mgrwt>
<rscale>  0 0.20001397E+02</rscale>
<asrwt>0</asrwt>
<pdfrwt beam="2">  1        4 0.28399898E-02 0.20001397E+02</pdfrwt>
<pdfrwt beam="1">  1       -4 0.83352218E-03 0.20001397E+02</pdfrwt>
<totfact> 0.12786838E+06</totfact>
</mgrwt>
</event>
<event>
 5    1  0.4710515E-007  0.2000628E+02  0.7818608E-02  0.1745203E+00
         -4   -1    0    0    0  501 -0.00000000000E+00  0.00000000000E+00  0.29854695407E+02  0.29888446561E+02  0.14200000000E+01 0. -1.
          4   -1    0    0  501    0  0.00000000000E+00 -0.00000000000E+00 -0.31639077437E+01  0.34679550473E+01  0.14200000000E+01 0.  1.
       1023    2    1    2    0    0  0.00000000000E+00  0.00000000000E+00  0.26690787663E+02  0.33356401608E+02  0.20006283567E+02 0.  0.
        -13    1    3    3    0    0  0.58912910274E+01  0.80832601861E+01  0.13466406122E+02  0.16775031193E+02  0.10570000000E+00 0.  1.
         13    1    3    3    0    0 -0.58912910274E+01 -0.80832601861E+01  0.13224381541E+02  0.16581370415E+02  0.10570000000E+00 0. -1.
<mgrwt>
<rscale>  0 0.20006284E+02</rscale>
<asrwt>0</asrwt>
<pdfrwt beam="2">  1        4 0.51273953E-03 0.20006284E+02</pdfrwt>
<pdfrwt beam="1">  1       -4 0.46190146E-02 0.20006284E+02</pdfrwt>
<totfact> 0.12275929E+06</totfact>
</mgrwt>
</event>
<event>
 5    1  0.4911650E-007  0.2000219E+02  0.7818608E-02  0.1745285E+00
         -4   -1    0    0    0  501 -0.00000000000E+00  0.00000000000E+00  0.21718357167E+02  0.21764729221E+02  0.14200000000E+01 0. -1.
          4   -1    0    0  501    0  0.00000000000E+00 -0.00000000000E+00 -0.44433124948E+01  0.46646999825E+01  0.14200000000E+01 0.  1.
       1023    2    1    2    0    0  0.00000000000E+00  0.00000000000E+00  0.17275044672E+02  0.26429429203E+02  0.20002188869E+02 0.  0.
        -13    1    3    3    0    0 -0.51003797042E+01 -0.86021403781E+01  0.86308907131E+01  0.13210379980E+02  0.10570000000E+00 0.  1.
         13    1    3    3    0    0  0.51003797042E+01  0.86021403781E+01  0.86441539593E+01  0.13219049223E+02  0.10570000000E+00 0. -1.
<mgrwt>
<rscale>  0 0.20002189E+02</rscale>
<asrwt>0</asrwt>
<pdfrwt beam="2">  1        4 0.70418343E-03 0.20002189E+02</pdfrwt>
<pdfrwt beam="1">  1       -4 0.33618826E-02 0.20002189E+02</pdfrwt>
<totfact> 0.12643783E+06</totfact>
</mgrwt>
</event>
<event>
 5    1  0.4710515E-007  0.2000899E+02  0.7818608E-02  0.1745149E+00
          4   -1    0    0  501    0  0.00000000000E+00  0.00000000000E+00  0.10402172074E+01  0.17602419829E+01  0.14200000000E+01 0. -1.
         -4   -1    0    0    0  501 -0.00000000000E+00 -0.00000000000E+00 -0.70752079530E+02  0.70766327853E+02  0.14200000000E+01 0.  1.
       1023    2    1    2    0    0  0.00000000000E+00  0.00000000000E+00 -0.69711862323E+02  0.72526569836E+02  0.20008987573E+02 0.  0.
        -13    1    3    3    0    0  0.99532025961E+01  0.99878894357E+00 -0.34413448091E+02  0.35837974319E+02  0.10570000000E+00 0.  1.
         13    1    3    3    0    0 -0.99532025961E+01 -0.99878894357E+00 -0.35298414231E+02  0.36688595517E+02  0.10570000000E+00 0. -1.
<mgrwt>
<rscale>  0 0.20008988E+02</rscale>
<asrwt>0</asrwt>
<pdfrwt beam="1">  1        4 0.21651602E-03 0.20008988E+02</pdfrwt>
<pdfrwt beam="2">  1       -4 0.10941415E-01 0.20008988E+02</pdfrwt>
<totfact> 0.10652896E+06</totfact>
</mgrwt>
</event>
<event>
 4    1  0.4710515E-007  0.2002447E+02  0.7818608E-02  0.1744842E+00
         -4   -1    0    0    0  501 -0.00000000000E+00  0.00000000000E+00  0.18567517611E+02  0.18621737573E+02  0.14200000000E+01 0.  1.
          4   -1    0    0  501    0  0.00000000000E+00 -0.00000000000E+00 -0.52422471522E+01  0.54311651793E+01  0.14200000000E+01 0. -1.
        -13    1    1    2    0    0 -0.33193877690E+01  0.94361766495E+01  0.61617477367E+01  0.11748960489E+02  0.10570000000E+00 0. -1.
         13    1    1    2    0    0  0.33193877690E+01 -0.94361766495E+01  0.71635227220E+01  0.12303942263E+02  0.10570000000E+00 0.  1.
<mgrwt>
<rscale>  0 0.20024467E+02</rscale>
<asrwt>0</asrwt>
<pdfrwt beam="2">  1        4 0.82520247E-03 0.20024467E+02</pdfrwt>
<pdfrwt beam="1">  1       -4 0.28752441E-02 0.20024467E+02</pdfrwt>
<totfact> 0.12746979E+06</totfact>
</mgrwt>
</event>
<event>
 5    1  0.4710515E-007  0.2000227E+02  0.7818608E-02  0.1745283E+00
         -4   -1    0    0    0  501 -0.00000000000E+00  0.00000000000E+00  0.58767114949E+01  0.60458364181E+01  0.14200000000E+01 0. -1.
          4   -1    0    0  501    0  0.00000000000E+00 -0.00000000000E+00 -0.16578846645E+02  0.16639547953E+02  0.14200000000E+01 0.  1.
       1023    2    1    2    0    0  0.00000000000E+00  0.00000000000E+00 -0.10702135150E+02  0.22685384371E+02  0.20002274053E+02 0.  0.
        -13    1    3    3    0    0  0.16709807611E+01  0.98599832233E+01 -0.53384656776E+01  0.11336747071E+02  0.10570000000E+00 0.  1.
         13    1    3    3    0    0 -0.16709807611E+01 -0.98599832233E+01 -0.53636694721E+01  0.11348637300E+02  0.10570000000E+00 0. -1.
<mgrwt>
<rscale>  0 0.20002274E+02</rscale>
<asrwt>0</asrwt>
<pdfrwt beam="2">  1        4 0.25682707E-02 0.20002274E+02</pdfrwt>
<pdfrwt beam="1">  1       -4 0.92178841E-03 0.20002274E+02</pdfrwt>
<totfact> 0.12853645E+06</totfact>
</mgrwt>
</event>
<event>
 4    1  0.4710515E-007  0.2004298E+02  0.7818608E-02  0.1744475E+00
          4   -1    0    0  501    0  0.00000000000E+00  0.00000000000E+00  0.14390621951E+02  0.14460511752E+02  0.14200000000E+01 0.  1.
         -4   -1    0    0    0  501 -0.00000000000E+00 -0.00000000000E+00 -0.68187528759E+01  0.69650406160E+01  0.14200000000E+01 0. -1.
        -13    1    1    2    0    0  0.65396001493E+01 -0.75840522175E+01  0.41785321760E+01  0.10851521635E+02  0.10570000000E+00 0. -1.
         13    1    1    2    0    0 -0.65396001493E+01  0.75840522175E+01  0.33933368989E+01  0.10574030733E+02  0.10570000000E+00 0.  1.
<mgrwt>
<rscale>  0 0.20042981E+02</rscale>
<asrwt>0</asrwt>
<pdfrwt beam="1">  1        4 0.22305709E-02 0.20042981E+02</pdfrwt>
<pdfrwt beam="2">  1       -4 0.10656680E-02 0.20042981E+02</pdfrwt>
<totfact> 0.12873211E+06</totfact>
</mgrwt>
</event>
<event>
 4    1  0.4710515E-007  0.2001478E+02  0.7818608E-02  0.1745034E+00
          4   -1    0    0  501    0  0.00000000000E+00  0.00000000000E+00  0.12614918909E+02  0.12694588575E+02  0.14200000000E+01 0. -1.
         -4   -1    0    0    0  501 -0.00000000000E+00 -0.00000000000E+00 -0.77696357984E+01  0.78983314972E+01  0.14200000000E+01 0.  1.
        -13    1    1    2    0    0 -0.88935039275E+01 -0.45871513261E+01  0.24420349362E+01  0.10301023081E+02  0.10570000000E+00 0.  1.
         13    1    1    2    0    0  0.88935039275E+01  0.45871513261E+01  0.24032481747E+01  0.10291896991E+02  0.10570000000E+00 0. -1.
<mgrwt>
<rscale>  0 0.20014784E+02</rscale>
<asrwt>0</asrwt>
<pdfrwt beam="1">  1        4 0.19567848E-02 0.20014784E+02</pdfrwt>
<pdfrwt beam="2">  1       -4 0.12113567E-02 0.20014784E+02</pdfrwt>
<totfact> 0.12959264E+06</totfact>
</mgrwt>
</event>
<event>
 5    1  0.4710515E-007  0.2000245E+02  0.7818608E-02  0.1745279E+00
          4   -1    0    0  501    0  0.00000000000E+00  0.00000000000E+00  0.36395366445E+02  0.36423057239E+02  0.14200000000E+01 0. -1.
         -4   -1    0    0    0  501 -0.00000000000E+00 -0.00000000000E+00 -0.25341031512E+01  0.29048371350E+01  0.14200000000E+01 0.  1.
       1023    2    1    2    0    0  0.00000000000E+00  0.00000000000E+00  0.33861263294E+02  0.39327894374E+02  0.20002452951E+02 0.  0.
        -13    1    3    3    0    0  0.83274649914E+01  0.55368444180E+01  0.17127632355E+02  0.19833564528E+02  0.10570000000E+00 0.  1.
         13    1    3    3    0    0 -0.83274649914E+01 -0.55368444180E+01  0.16733630938E+02  0.19494329847E+02  0.10570000000E+00 0. -1.
<mgrwt>
<rscale>  0 0.20002453E+02</rscale>
<asrwt>0</asrwt>
<pdfrwt beam="1">  1        4 0.56299348E-02 0.20002453E+02</pdfrwt>
<pdfrwt beam="2">  1       -4 0.42051011E-03 0.20002453E+02</pdfrwt>
<totfact> 0.11991030E+06</totfact>
</mgrwt>
</event>
<event>
 5    1  0.4710515E-007  0.2000557E+02  0.7818608E-02  0.1745217E+00
          4   -1    0    0  501    0  0.00000000000E+00  0.00000000000E+00  0.19570281507E+02  0.19621730766E+02  0.14200000000E+01 0. -1.
         -4   -1    0    0    0  501 -0.00000000000E+00 -0.00000000000E+00 -0.49546090476E+01  0.51540809864E+01  0.14200000000E+01 0.  1.
       1023    2    1    2    0    0  0.00000000000E+00  0.00000000000E+00  0.14615672459E+02  0.24775811752E+02  0.20005573387E+02 0.  0.
        -13    1    3    3    0    0 -0.13189371342E+01 -0.99145227895E+01  0.74130081950E+01  0.12449948606E+02  0.10570000000E+00 0.  1.
         13    1    3    3    0    0  0.13189371342E+01  0.99145227895E+01  0.72026642642E+01  0.12325863146E+02  0.10570000000E+00 0. -1.
<mgrwt>
<rscale>  0 0.20005573E+02</rscale>
<asrwt>0</asrwt>
<pdfrwt beam="1">  1        4 0.30301141E-02 0.20005573E+02</pdfrwt>
<pdfrwt beam="2">  1       -4 0.78154918E-03 0.20005573E+02</pdfrwt>
<totfact> 0.12730902E+06</totfact>
</mgrwt>
</event>
<event>
 5    1  0.5187107E-007  0.2000184E+02  0.7818608E-02  0.1745292E+00
         -4   -1    0    0    0  501 -0.00000000000E+00  0.00000000000E+00  0.57707017800E+01  0.59428443555E+01  0.14200000000E+01 0.  1.
          4   -1    0    0  501    0  0.00000000000E+00 -0.00000000000E+00 -0.16874988108E+02  0.16934627945E+02  0.14200000000E+01 0. -1.
       1023    2    1    2    0    0  0.00000000000E+00  0.00000000000E+00 -0.11104286328E+02  0.22877472301E+02  0.20001839016E+02 0.  0.
        -13    1    3    3    0    0  0.35741239758E+01 -0.93396533717E+01 -0.56220087475E+01  0.11472647565E+02  0.10570000000E+00 0.  1.
         13    1    3    3    0    0 -0.35741239758E+01  0.93396533717E+01 -0.54822775803E+01  0.11404824736E+02  0.10570000000E+00 0. -1.
<mgrwt>
<rscale>  0 0.20001839E+02</rscale>
<asrwt>0</asrwt>
<pdfrwt beam="2">  1        4 0.26139814E-02 0.20001839E+02</pdfrwt>
<pdfrwt beam="1">  1       -4 0.90562970E-03 0.20001839E+02</pdfrwt>
<totfact> 0.12843188E+06</totfact>
</mgrwt>
</event>
<event>
 4    1  0.4710515E-007  0.2010103E+02  0.7818608E-02  0.1743326E+00
         -4   -1    0    0    0  501 -0.00000000000E+00  0.00000000000E+00  0.96389069424E+01  0.97429424223E+01  0.14200000000E+01 0.  1.
          4   -1    0    0  501    0  0.00000000000E+00 -0.00000000000E+00 -0.10270297119E+02  0.10367998983E+02  0.14200000000E+01 0. -1.
        -13    1    1    2    0    0  0.97139988532E+01  0.24794848841E+01  0.38610376027E+00  0.10033437477E+02  0.10570000000E+00 0. -1.
         13    1    1    2    0    0 -0.97139988532E+01 -0.24794848841E+01 -0.10174939365E+01  0.10077503928E+02  0.10570000000E+00 0.  1.
<mgrwt>
<rscale>  0 0.20101028E+02</rscale>
<asrwt>0</asrwt>
<pdfrwt beam="2">  1        4 0.15955640E-02 0.20101028E+02</pdfrwt>
<pdfrwt beam="1">  1       -4 0.14984270E-02 0.20101028E+02</pdfrwt>
<totfact> 0.12874232E+06</totfact>
</mgrwt>
</event>
<event>
 5    1  0.4710515E-007  0.2000631E+02  0.7818608E-02  0.1745203E+00
          4   -1    0    0  501    0  0.00000000000E+00  0.00000000000E+00  0.13841823698E+02  0.13914470284E+02  0.14200000000E+01 0. -1.
         -4   -1    0    0    0  501 -0.00000000000E+00 -0.00000000000E+00 -0.70666633050E+01  0.72079213555E+01  0.14200000000E+01 0.  1.
       1023    2    1    2    0    0  0.00000000000E+00  0.00000000000E+00  0.67751603929E+01  0.21122391639E+02  0.20006314759E+02 0.  0.
        -13    1    3    3    0    0 -0.57071548185E+00 -0.99862646067E+01  0.34172195705E+01  0.10570702864E+02  0.10570000000E+00 0. -1.
         13    1    3    3    0    0  0.57071548185E+00  0.99862646067E+01  0.33579408223E+01  0.10551688775E+02  0.10570000000E+00 0.  1.
<mgrwt>
<rscale>  0 0.20006315E+02</rscale>
<asrwt>0</asrwt>
<pdfrwt beam="1">  1        4 0.21459655E-02 0.20006315E+02</pdfrwt>
<pdfrwt beam="2">  1       -4 0.11036332E-02 0.20006315E+02</pdfrwt>
<totfact> 0.12939197E+06</totfact>
</mgrwt>
</event>
<event>
 5    1  0.4723706E-007  0.2000156E+02  0.7818608E-02  0.1745297E+00
          4   -1    0    0  501    0  0.00000000000E+00  0.00000000000E+00  0.33671152218E+02  0.33701081462E+02  0.14200000000E+01 0.  1.
         -4   -1    0    0    0  501 -0.00000000000E+00 -0.00000000000E+00 -0.27675225831E+01  0.31105596358E+01  0.14200000000E+01 0. -1.
       1023    2    1    2    0    0  0.00000000000E+00  0.00000000000E+00  0.30903629635E+02  0.36811641098E+02  0.20001564831E+02 0.  0.
        -13    1    3    3    0    0  0.64114831798E+01 -0.76744542301E+01  0.15471304015E+02  0.18422181866E+02  0.10570000000E+00 0.  1.
         13    1    3    3    0    0 -0.64114831798E+01  0.76744542301E+01  0.15432325620E+02  0.18389459232E+02  0.10570000000E+00 0. -1.
<mgrwt>
<rscale>  0 0.20001565E+02</rscale>
<asrwt>0</asrwt>
<pdfrwt beam="1">  1        4 0.52088669E-02 0.20001565E+02</pdfrwt>
<pdfrwt beam="2">  1       -4 0.45446243E-03 0.20001565E+02</pdfrwt>
<totfact> 0.12111753E+06</totfact>
</mgrwt>
</event>
<event>
 5    1  0.4710515E-007  0.2000503E+02  0.7818608E-02  0.1745228E+00
          4   -1    0    0  501    0  0.00000000000E+00  0.00000000000E+00  0.68516332009E+01  0.69972335619E+01  0.14200000000E+01 0. -1.
         -4   -1    0    0    0  501 -0.00000000000E+00 -0.00000000000E+00 -0.14267657565E+02  0.14338146755E+02  0.14200000000E+01 0.  1.
       1023    2    1    2    0    0  0.00000000000E+00  0.00000000000E+00 -0.74160243636E+01  0.21335380317E+02  0.20005025267E+02 0.  0.
        -13    1    3    3    0    0 -0.96566340526E+01 -0.26047127353E+01 -0.37752680084E+01  0.10691067799E+02  0.10570000000E+00 0. -1.
         13    1    3    3    0    0  0.96566340526E+01  0.26047127353E+01 -0.36407563552E+01  0.10644312518E+02  0.10570000000E+00 0.  1.
<mgrwt>
<rscale>  0 0.20005025E+02</rscale>
<asrwt>0</asrwt>
<pdfrwt beam="1">  1        4 0.10707197E-02 0.20005025E+02</pdfrwt>
<pdfrwt beam="2">  1       -4 0.22116465E-02 0.20005025E+02</pdfrwt>
<totfact> 0.12928384E+06</totfact>
</mgrwt>
</event>
<event>
 4    1  0.4710515E-007  0.2007120E+02  0.7818608E-02  0.1743916E+00
         -4   -1    0    0    0  501 -0.00000000000E+00  0.00000000000E+00  0.12493415144E+02  0.12573854698E+02  0.14200000000E+01 0.  1.
          4   -1    0    0  501    0  0.00000000000E+00 -0.00000000000E+00 -0.78914289664E+01  0.80181700613E+01  0.14200000000E+01 0. -1.
        -13    1    1    2    0    0 -0.42528312872E+01 -0.90706205798E+01  0.17032975574E+01  0.10162437046E+02  0.10570000000E+00 0. -1.
         13    1    1    2    0    0  0.42528312872E+01  0.90706205798E+01  0.28986886206E+01  0.10429587713E+02  0.10570000000E+00 0.  1.
<mgrwt>
<rscale>  0 0.20071203E+02</rscale>
<asrwt>0</asrwt>
<pdfrwt beam="2">  1        4 0.12300030E-02 0.20071203E+02</pdfrwt>
<pdfrwt beam="1">  1       -4 0.19380008E-02 0.20071203E+02</pdfrwt>
<totfact> 0.12885037E+06</totfact>
</mgrwt>
</event>
<event>
 5    1  0.4710515E-007  0.2000177E+02  0.7818608E-02  0.1745293E+00
         -4   -1    0    0    0  501 -0.00000000000E+00  0.00000000000E+00  0.27065035698E+02  0.27102261111E+02  0.14200000000E+01 0. -1.
          4   -1    0    0  501    0  0.00000000000E+00 -0.00000000000E+00 -0.35176988941E+01  0.37934951574E+01  0.14200000000E+01 0.  1.
       1023    2    1    2    0    0  0.00000000000E+00  0.00000000000E+00  0.23547336804E+02  0.30895756269E+02  0.20001767043E+02 0.  0.
        -13    1    3    3    0    0 -0.67759464955E+01  0.73543930957E+01  0.11892817070E+02  0.15538687816E+02  0.10570000000E+00 0. -1.
         13    1    3    3    0    0  0.67759464955E+01 -0.73543930957E+01  0.11654519735E+02  0.15357068452E+02  0.10570000000E+00 0.  1.
<mgrwt>
<rscale>  0 0.20001767E+02</rscale>
<asrwt>0</asrwt>
<pdfrwt beam="2">  1        4 0.56526306E-03 0.20001767E+02</pdfrwt>
<pdfrwt beam="1">  1       -4 0.41879301E-02 0.20001767E+02</pdfrwt>
<totfact> 0.12406989E+06</totfact>
</mgrwt>
</event>
<event>
 5    1  0.4710515E-007  0.2001152E+02  0.7818608E-02  0.1745099E+00
         -4   -1    0    0    0  501 -0.00000000000E+00  0.00000000000E+00  0.21910891676E+02  0.21956857107E+02  0.14200000000E+01 0. -1.
          4   -1    0    0  501    0  0.00000000000E+00 -0.00000000000E+00 -0.44067623035E+01  0.46298978390E+01  0.14200000000E+01 0.  1.
       1023    2    1    2    0    0  0.00000000000E+00  0.00000000000E+00  0.17504129372E+02  0.26586754946E+02  0.20011521519E+02 0.  0.
        -13    1    3    3    0    0  0.56245799750E+01 -0.82741929319E+01  0.86499518885E+01  0.13226148674E+02  0.10570000000E+00 0.  1.
         13    1    3    3    0    0 -0.56245799750E+01  0.82741929319E+01  0.88541774837E+01  0.13360606273E+02  0.10570000000E+00 0. -1.
<mgrwt>
<rscale>  0 0.20011522E+02</rscale>
<asrwt>0</asrwt>
<pdfrwt beam="2">  1        4 0.69866350E-03 0.20011522E+02</pdfrwt>
<pdfrwt beam="1">  1       -4 0.33916065E-02 0.20011522E+02</pdfrwt>
<totfact> 0.12623195E+06</totfact>
</mgrwt>
</event>
<event>
 5    1  0.4710515E-007  0.2000529E+02  0.7818608E-02  0.1745223E+00
          4   -1    0    0  501    0  0.00000000000E+00  0.00000000000E+00  0.34563669673E+02  0.34592826731E+02  0.14200000000E+01 0. -1.
         -4   -1    0    0    0  501 -0.00000000000E+00 -0.00000000000E+00 -0.26882957445E+01  0.30402851856E+01  0.14200000000E+01 0.  1.
       1023    2    1    2    0    0  0.00000000000E+00  0.00000000000E+00  0.31875373929E+02  0.37633111917E+02  0.20005290537E+02 0.  0.
        -13    1    3    3    0    0 -0.74381552728E+01  0.66869401924E+01  0.15899278117E+02  0.18784023534E+02  0.10570000000E+00 0. -1.
         13    1    3    3    0    0  0.74381552728E+01 -0.66869401924E+01  0.15976095811E+02  0.18849088383E+02  0.10570000000E+00 0.  1.
<mgrwt>
<rscale>  0 0.20005291E+02</rscale>
<asrwt>0</asrwt>
<pdfrwt beam="1">  1        4 0.53468066E-02 0.20005291E+02</pdfrwt>
<pdfrwt beam="2">  1       -4 0.44290293E-03 0.20005291E+02</pdfrwt>
<totfact> 0.12067764E+06</totfact>
</mgrwt>
</event>
<event>
 5    1  0.4710515E-007  0.2000505E+02  0.7818608E-02  0.1745228E+00
          4   -1    0    0  501    0  0.00000000000E+00  0.00000000000E+00  0.44713209887E+02  0.44735752351E+02  0.14200000000E+01 0.  1.
         -4   -1    0    0    0  501 -0.00000000000E+00 -0.00000000000E+00 -0.19867998227E+01  0.24420838511E+01  0.14200000000E+01 0. -1.
       1023    2    1    2    0    0  0.00000000000E+00  0.00000000000E+00  0.42726410064E+02  0.47177836202E+02  0.20005052155E+02 0.  0.
        -13    1    3    3    0    0 -0.88229291346E+01  0.47108487049E+01  0.21496222245E+02  0.23709384583E+02  0.10570000000E+00 0.  1.
         13    1    3    3    0    0  0.88229291346E+01 -0.47108487049E+01  0.21230187820E+02  0.23468451619E+02  0.10570000000E+00 0. -1.
<mgrwt>
<rscale>  0 0.20005052E+02</rscale>
<asrwt>0</asrwt>
<pdfrwt beam="1">  1        4 0.69157103E-02 0.20005052E+02</pdfrwt>
<pdfrwt beam="2">  1       -4 0.34241744E-03 0.20005052E+02</pdfrwt>
<totfact> 0.11634636E+06</totfact>
</mgrwt>
</event>
<event>
 4    1  0.4710515E-007  0.2004474E+02  0.7818608E-02  0.1744440E+00
          4   -1    0    0  501    0  0.00000000000E+00  0.00000000000E+00  0.59943596474E+00  0.15413382094E+01  0.14200000000E+01 0.  1.
         -4   -1    0    0    0  501 -0.00000000000E+00 -0.00000000000E+00 -0.92892845078E+02  0.92903697809E+02  0.14200000000E+01 0. -1.
        -13    1    1    2    0    0  0.99112512928E+01 -0.13785964562E+01 -0.43551997160E+02  0.44686922690E+02  0.10570000000E+00 0.  1.
         13    1    1    2    0    0 -0.99112512928E+01  0.13785964562E+01 -0.48741411952E+02  0.49758113328E+02  0.10570000000E+00 0. -1.
<mgrwt>
<rscale>  0 0.20044737E+02</rscale>
<asrwt>0</asrwt>
<pdfrwt beam="1">  1        4 0.16550984E-03 0.20044737E+02</pdfrwt>
<pdfrwt beam="2">  1       -4 0.14364489E-01 0.20044737E+02</pdfrwt>
<totfact> 0.99180033E+05</totfact>
</mgrwt>
</event>
<event>
 5    1  0.4710515E-007  0.2000146E+02  0.7818608E-02  0.1745299E+00
          4   -1    0    0  501    0  0.00000000000E+00  0.00000000000E+00  0.69426593608E+02  0.69441113903E+02  0.14200000000E+01 0. -1.
         -4   -1    0    0    0  501 -0.00000000000E+00 -0.00000000000E+00 -0.10723342247E+01  0.17794102083E+01  0.14200000000E+01 0.  1.
       1023    2    1    2    0    0  0.00000000000E+00  0.00000000000E+00  0.68354259384E+02  0.71220524111E+02  0.20001456916E+02 0.  0.
        -13    1    3    3    0    0 -0.83157478086E+01  0.55542460174E+01  0.34339789470E+02  0.35766375603E+02  0.10570000000E+00 0.  1.
         13    1    3    3    0    0  0.83157478086E+01 -0.55542460174E+01  0.34014469914E+02  0.35454148508E+02  0.10570000000E+00 0. -1.
<mgrwt>
<rscale>  0 0.20001457E+02</rscale>
<asrwt>0</asrwt>
<pdfrwt beam="1">  1        4 0.10736520E-01 0.20001457E+02</pdfrwt>
<pdfrwt beam="2">  1       -4 0.22048193E-03 0.20001457E+02</pdfrwt>
<totfact> 0.10706358E+06</totfact>
</mgrwt>
</event>
<event>
 5    1  0.4710515E-007  0.2000384E+02  0.7818608E-02  0.1745252E+00
         -4   -1    0    0    0  501 -0.00000000000E+00  0.00000000000E+00  0.35043666452E+01  0.37811354887E+01  0.14200000000E+01 0.  1.
          4   -1    0    0  501    0  0.00000000000E+00 -0.00000000000E+00 -0.27166310382E+02  0.27203397210E+02  0.14200000000E+01 0. -1.
       1023    2    1    2    0    0  0.00000000000E+00  0.00000000000E+00 -0.23661943737E+02  0.30984532699E+02  0.20003841760E+02 0.  0.
        -13    1    3    3    0    0  0.43748769017E+00  0.99917876366E+01 -0.11822054049E+02  0.15485456083E+02  0.10570000000E+00 0. -1.
         13    1    3    3    0    0 -0.43748769017E+00 -0.99917876366E+01 -0.11839889688E+02  0.15499076616E+02  0.10570000000E+00 0.  1.
<mgrwt>
<rscale>  0 0.20003842E+02</rscale>
<asrwt>0</asrwt>
<pdfrwt beam="2">  1        4 0.42035750E-02 0.20003842E+02</pdfrwt>
<pdfrwt beam="1">  1       -4 0.56327609E-03 0.20003842E+02</pdfrwt>
<totfact> 0.12399795E+06</totfact>
</mgrwt>
</event>
<event>
 5    1  0.4760377E-007  0.2000499E+02  0.7818608E-02  0.1745229E+00
         -4   -1    0    0    0  501 -0.00000000000E+00  0.00000000000E+00  0.40196466216E+01  0.42630926524E+01  0.14200000000E+01 0.  1.
          4   -1    0    0  501    0  0.00000000000E+00 -0.00000000000E+00 -0.23893506796E+02  0.23935665168E+02  0.14200000000E+01 0. -1.
       1023    2    1    2    0    0  0.00000000000E+00  0.00000000000E+00 -0.19873860175E+02  0.28198757820E+02  0.20004989987E+02 0.  0.
        -13    1    3    3    0    0 -0.99901747378E+01 -0.48041062336E+00 -0.10029876696E+02  0.14164885622E+02  0.10570000000E+00 0. -1.
         13    1    3    3    0    0  0.99901747378E+01  0.48041062336E+00 -0.98439834787E+01  0.14033872198E+02  0.10570000000E+00 0.  1.
<mgrwt>
<rscale>  0 0.20004990E+02</rscale>
<asrwt>0</asrwt>
<pdfrwt beam="2">  1        4 0.36978936E-02 0.20004990E+02</pdfrwt>
<pdfrwt beam="1">  1       -4 0.64037676E-03 0.20004990E+02</pdfrwt>
<totfact> 0.12544546E+06</totfact>
</mgrwt>
</event>
<event>
 5    1  0.4710515E-007  0.2000243E+02  0.7818608E-02  0.1745280E+00
          4   -1    0    0  501    0  0.00000000000E+00  0.00000000000E+00  0.74721032705E+02  0.74734524341E+02  0.14200000000E+01 0.  1.
         -4   -1    0    0    0  501 -0.00000000000E+00 -0.00000000000E+00 -0.94453333210E+00  0.17054451664E+01  0.14200000000E+01 0. -1.
       1023    2    1    2    0    0  0.00000000000E+00  0.00000000000E+00  0.73776499373E+02  0.76439969508E+02  0.20002426818E+02 0.  0.
        -13    1    3    3    0    0  0.23878644599E+01 -0.97110972570E+01  0.37179051803E+02  0.38500654177E+02  0.10570000000E+00 0. -1.
         13    1    3    3    0    0 -0.23878644599E+01  0.97110972570E+01  0.36597447570E+02  0.37939315330E+02  0.10570000000E+00 0.  1.
<mgrwt>
<rscale>  0 0.20002427E+02</rscale>
<asrwt>0</asrwt>
<pdfrwt beam="1">  1        4 0.11555113E-01 0.20002427E+02</pdfrwt>
<pdfrwt beam="2">  1       -4 0.20488231E-03 0.20002427E+02</pdfrwt>
<totfact> 0.10526535E+06</totfact>
</mgrwt>
</event>
<event>
 5    1  0.4710515E-007  0.2000535E+02  0.7818608E-02  0.1745222E+00
          4   -1    0    0  501    0  0.00000000000E+00  0.00000000000E+00  0.64206127727E+01  0.65757637105E+01  0.14200000000E+01 0.  1.
         -4   -1    0    0    0  501 -0.00000000000E+00 -0.00000000000E+00 -0.15208521395E+02  0.15274669326E+02  0.14200000000E+01 0. -1.
       1023    2    1    2    0    0  0.00000000000E+00  0.00000000000E+00 -0.87879086223E+01  0.21850433037E+02  0.20005351432E+02 0.  0.
        -13    1    3    3    0    0  0.97168737279E+01 -0.23687553024E+01 -0.45218537022E+01  0.10976655689E+02  0.10570000000E+00 0.  1.
         13    1    3    3    0    0 -0.97168737279E+01  0.23687553024E+01 -0.42660549201E+01  0.10873777347E+02  0.10570000000E+00 0. -1.
<mgrwt>
<rscale>  0 0.20005351E+02</rscale>
<asrwt>0</asrwt>
<pdfrwt beam="1">  1        4 0.10048096E-02 0.20005351E+02</pdfrwt>
<pdfrwt beam="2">  1       -4 0.23567955E-02 0.20005351E+02</pdfrwt>
<totfact> 0.12897877E+06</totfact>
</mgrwt>
</event>
<event>
 5    1  0.4710515E-007  0.2000984E+02  0.7818608E-02  0.1745133E+00
          4   -1    0    0  501    0  0.00000000000E+00  0.00000000000E+00  0.38260204599E+01  0.40810332711E+01  0.14200000000E+01 0.  1.
         -4   -1    0    0    0  501 -0.00000000000E+00 -0.00000000000E+00 -0.25042980231E+02  0.25083206709E+02  0.14200000000E+01 0. -1.
       1023    2    1    2    0    0  0.00000000000E+00  0.00000000000E+00 -0.21216959771E+02  0.29164239981E+02  0.20009835375E+02 0.  0.
        -13    1    3    3    0    0 -0.71786848753E+01 -0.69666615701E+01 -0.10811042740E+02  0.14729484295E+02  0.10570000000E+00 0. -1.
         13    1    3    3    0    0  0.71786848753E+01  0.69666615701E+01 -0.10405917031E+02  0.14434755686E+02  0.10570000000E+00 0.  1.
<mgrwt>
<rscale>  0 0.20009835E+02</rscale>
<asrwt>0</asrwt>
<pdfrwt beam="1">  1        4 0.61132926E-03 0.20009835E+02</pdfrwt>
<pdfrwt beam="2">  1       -4 0.38754768E-02 0.20009835E+02</pdfrwt>
<totfact> 0.12487139E+06</totfact>
</mgrwt>
</event>
<event>
 5    1  0.4710515E-007  0.2000771E+02  0.7818608E-02  0.1745175E+00
         -4   -1    0    0    0  501 -0.00000000000E+00  0.00000000000E+00  0.24148188409E+02  0.24189902924E+02  0.14200000000E+01 0.  1.
          4   -1    0    0  501    0  0.00000000000E+00 -0.00000000000E+00 -0.39759089618E+01  0.42218777899E+01  0.14200000000E+01 0. -1.
       1023    2    1    2    0    0  0.00000000000E+00  0.00000000000E+00  0.20172279448E+02  0.28411780714E+02  0.20007709144E+02 0.  0.
        -13    1    3    3    0    0  0.82356911546E+01  0.56757799437E+01  0.98622993196E+01  0.14046964338E+02  0.10570000000E+00 0.  1.
         13    1    3    3    0    0 -0.82356911546E+01 -0.56757799437E+01  0.10309980128E+02  0.14364816375E+02  0.10570000000E+00 0. -1.
<mgrwt>
<rscale>  0 0.20007709E+02</rscale>
<asrwt>0</asrwt>
<pdfrwt beam="2">  1        4 0.63380778E-03 0.20007709E+02</pdfrwt>
<pdfrwt beam="1">  1       -4 0.37372355E-02 0.20007709E+02</pdfrwt>
<totfact> 0.12529718E+06</totfact>
</mgrwt>
</event>
<event>
 5    1  0.4710515E-007  0.2000137E+02  0.7818608E-02  0.1745301E+00
          4   -1    0    0  501    0  0.00000000000E+00  0.00000000000E+00  0.26297224381E+00  0.14441448684E+01  0.14200000000E+01 0.  1.
         -4   -1    0    0    0  501 -0.00000000000E+00 -0.00000000000E+00 -0.11598408342E+03  0.11599277567E+03  0.14200000000E+01 0. -1.
       1023    2    1    2    0    0  0.00000000000E+00  0.00000000000E+00 -0.11572111118E+03  0.11743692054E+03  0.20001368274E+02 0.  0.
        -13    1    3    3    0    0 -0.99536399943E+01 -0.96204267923E+00 -0.57595658667E+02  0.58457433616E+02  0.10570000000E+00 0. -1.
         13    1    3    3    0    0  0.99536399943E+01  0.96204267923E+00 -0.58125452511E+02  0.58979486920E+02  0.10570000000E+00 0.  1.
<mgrwt>
<rscale>  0 0.20001368E+02</rscale>
<asrwt>0</asrwt>
<pdfrwt beam="1">  1        4 0.13198543E-03 0.20001368E+02</pdfrwt>
<pdfrwt beam="2">  1       -4 0.17935221E-01 0.20001368E+02</pdfrwt>
<totfact> 0.93295743E+05</totfact>
</mgrwt>
</event>
<event>
 5    1  0.4710515E-007  0.2000275E+02  0.7818608E-02  0.1745273E+00
          4   -1    0    0  501    0  0.00000000000E+00  0.00000000000E+00  0.64866311763E+02  0.64881852638E+02  0.14200000000E+01 0.  1.
         -4   -1    0    0    0  501 -0.00000000000E+00 -0.00000000000E+00 -0.11960138950E+01  0.18565692115E+01  0.14200000000E+01 0. -1.
       1023    2    1    2    0    0  0.00000000000E+00  0.00000000000E+00  0.63670297868E+02  0.66738421849E+02  0.20002752820E+02 0.  0.
        -13    1    3    3    0    0  0.89073758799E+01  0.45455613458E+01  0.31456426185E+02  0.33007898961E+02  0.10570000000E+00 0. -1.
         13    1    3    3    0    0 -0.89073758799E+01 -0.45455613458E+01  0.32213871683E+02  0.33730522888E+02  0.10570000000E+00 0.  1.
<mgrwt>
<rscale>  0 0.20002753E+02</rscale>
<asrwt>0</asrwt>
<pdfrwt beam="1">  1        4 0.10031438E-01 0.20002753E+02</pdfrwt>
<pdfrwt beam="2">  1       -4 0.23600957E-03 0.20002753E+02</pdfrwt>
<totfact> 0.10864479E+06</totfact>
</mgrwt>
</event>
<event>
 5    1  0.4710515E-007  0.2000386E+02  0.7818608E-02  0.1745251E+00
         -4   -1    0    0    0  501 -0.00000000000E+00  0.00000000000E+00  0.55969578871E+02  0.55987589330E+02  0.14200000000E+01 0.  1.
          4   -1    0    0  501    0  0.00000000000E+00 -0.00000000000E+00 -0.14840719638E+01  0.20539887034E+01  0.14200000000E+01 0. -1.
       1023    2    1    2    0    0  0.00000000000E+00  0.00000000000E+00  0.54485506907E+02  0.58041578033E+02  0.20003857570E+02 0.  0.
        -13    1    3    3    0    0 -0.10224315035E+01  0.99486413709E+01  0.27007468632E+02  0.28799919544E+02  0.10570000000E+00 0. -1.
         13    1    3    3    0    0  0.10224315035E+01 -0.99486413709E+01  0.27478038274E+02  0.29241658489E+02  0.10570000000E+00 0.  1.
<mgrwt>
<rscale>  0 0.20003858E+02</rscale>
<asrwt>0</asrwt>
<pdfrwt beam="2">  1        4 0.27354397E-03 0.20003858E+02</pdfrwt>
<pdfrwt beam="1">  1       -4 0.86559284E-02 0.20003858E+02</pdfrwt>
<totfact> 0.11190269E+06</totfact>
</mgrwt>
</event>
<event>
 5    1  0.4710515E-007  0.2000152E+02  0.7818608E-02  0.1745298E+00
         -4   -1    0    0    0  501 -0.00000000000E+00  0.00000000000E+00  0.12131598475E+01  0.18676607871E+01  0.14200000000E+01 0.  1.
          4   -1    0    0  501    0  0.00000000000E+00 -0.00000000000E+00 -0.64263601645E+02  0.64279288238E+02  0.14200000000E+01 0. -1.
       1023    2    1    2    0    0  0.00000000000E+00  0.00000000000E+00 -0.63050441797E+02  0.66146949025E+02  0.20001516304E+02 0.  0.
        -13    1    3    3    0    0  0.99491873636E+01  0.10077784279E+01 -0.31375684139E+02  0.32930937949E+02  0.10570000000E+00 0.  1.
         13    1    3    3    0    0 -0.99491873636E+01 -0.10077784279E+01 -0.31674757658E+02  0.33216011075E+02  0.10570000000E+00 0. -1.
<mgrwt>
<rscale>  0 0.20001516E+02</rscale>
<asrwt>0</asrwt>
<pdfrwt beam="2">  1        4 0.99382587E-02 0.20001516E+02</pdfrwt>
<pdfrwt beam="1">  1       -4 0.23819291E-03 0.20001516E+02</pdfrwt>
<totfact> 0.10887321E+06</totfact>
</mgrwt>
</event>
<event>
 5    1  0.4710515E-007  0.2000947E+02  0.7818608E-02  0.1745140E+00
          4   -1    0    0  501    0  0.00000000000E+00  0.00000000000E+00  0.11459120486E+01  0.18246957070E+01  0.14200000000E+01 0. -1.
         -4   -1    0    0    0  501 -0.00000000000E+00 -0.00000000000E+00 -0.66701991951E+02  0.66717105229E+02  0.14200000000E+01 0.  1.
       1023    2    1    2    0    0  0.00000000000E+00  0.00000000000E+00 -0.65556079902E+02  0.68541800936E+02  0.20009469345E+02 0.  0.
        -13    1    3    3    0    0  0.26744885482E+01  0.96399406727E+01 -0.32617436646E+02  0.34117293137E+02  0.10570000000E+00 0.  1.
         13    1    3    3    0    0 -0.26744885482E+01 -0.96399406727E+01 -0.32938643256E+02  0.34424507799E+02  0.10570000000E+00 0. -1.
<mgrwt>
<rscale>  0 0.20009469E+02</rscale>
<asrwt>0</asrwt>
<pdfrwt beam="1">  1        4 0.22967090E-03 0.20009469E+02</pdfrwt>
<pdfrwt beam="2">  1       -4 0.10315219E-01 0.20009469E+02</pdfrwt>
<totfact> 0.10792323E+06</totfact>
</mgrwt>
</event>
<event>
 5    1  0.4710515E-007  0.2001037E+02  0.7818608E-02  0.1745122E+00
         -4   -1    0    0    0  501 -0.00000000000E+00  0.00000000000E+00  0.80524496121E+02  0.80537015561E+02  0.14200000000E+01 0.  1.
          4   -1    0    0  501    0  0.00000000000E+00 -0.00000000000E+00 -0.82082687151E+00  0.16401697330E+01  0.14200000000E+01 0. -1.
       1023    2    1    2    0    0  0.00000000000E+00  0.00000000000E+00  0.79703669249E+02  0.82177185294E+02  0.20010369589E+02 0.  0.
        -13    1    3    3    0    0  0.97820858663E+01  0.20953190489E+01  0.40319794087E+02  0.41542466628E+02  0.10570000000E+00 0.  1.
         13    1    3    3    0    0 -0.97820858663E+01 -0.20953190489E+01  0.39383875163E+02  0.40634718667E+02  0.10570000000E+00 0. -1.
<mgrwt>
<rscale>  0 0.20010370E+02</rscale>
<asrwt>0</asrwt>
<pdfrwt beam="2">  1        4 0.19027043E-03 0.20010370E+02</pdfrwt>
<pdfrwt beam="1">  1       -4 0.12452376E-01 0.20010370E+02</pdfrwt>
<totfact> 0.10329845E+06</totfact>
</mgrwt>
</event>
<event>
 5    1  0.4710515E-007  0.2000248E+02  0.7818608E-02  0.1745279E+00
         -4   -1    0    0    0  501 -0.00000000000E+00  0.00000000000E+00  0.66196277030E+02  0.66211505742E+02  0.14200000000E+01 0. -1.
          4   -1    0    0  501    0  0.00000000000E+00 -0.00000000000E+00 -0.11585345480E+01  0.18326489841E+01  0.14200000000E+01 0.  1.
       1023    2    1    2    0    0  0.00000000000E+00  0.00000000000E+00  0.65037742482E+02  0.68044154726E+02  0.20002475978E+02 0.  0.
        -13    1    3    3    0    0 -0.52273993374E+01  0.85256133818E+01  0.32374487509E+02  0.33884072975E+02  0.10570000000E+00 0.  1.
         13    1    3    3    0    0  0.52273993374E+01 -0.85256133818E+01  0.32663254973E+02  0.34160081751E+02  0.10570000000E+00 0. -1.
<mgrwt>
<rscale>  0 0.20002476E+02</rscale>
<asrwt>0</asrwt>
<pdfrwt beam="2">  1        4 0.23126248E-03 0.20002476E+02</pdfrwt>
<pdfrwt beam="1">  1       -4 0.10237069E-01 0.20002476E+02</pdfrwt>
<totfact> 0.10817708E+06</totfact>
</mgrwt>
</event>
<event>
 5    1  0.4710515E-007  0.2000622E+02  0.7818608E-02  0.1745204E+00
          4   -1    0    0  501    0  0.00000000000E+00  0.00000000000E+00  0.46900355716E+02  0.46921847430E+02  0.14200000000E+01 0. -1.
         -4   -1    0    0    0  501 -0.00000000000E+00 -0.00000000000E+00 -0.18727274015E+01  0.23502144414E+01  0.14200000000E+01 0.  1.
       1023    2    1    2    0    0  0.00000000000E+00  0.00000000000E+00  0.45027628314E+02  0.49272061872E+02  0.20006218270E+02 0.  0.
        -13    1    3    3    0    0 -0.37823840119E+01 -0.92578420228E+01  0.22040384390E+02  0.24203383736E+02  0.10570000000E+00 0.  1.
         13    1    3    3    0    0  0.37823840119E+01  0.92578420228E+01  0.22987243924E+02  0.25068678135E+02  0.10570000000E+00 0. -1.
<mgrwt>
<rscale>  0 0.20006218E+02</rscale>
<asrwt>0</asrwt>
<pdfrwt beam="1">  1        4 0.72538219E-02 0.20006218E+02</pdfrwt>
<pdfrwt beam="2">  1       -4 0.32649491E-03 0.20006218E+02</pdfrwt>
<totfact> 0.11543696E+06</totfact>
</mgrwt>
</event>
<event>
 5    1  0.4710515E-007  0.2000594E+02  0.7818608E-02  0.1745210E+00
         -4   -1    0    0    0  501 -0.00000000000E+00  0.00000000000E+00  0.20908203500E+02  0.20956368330E+02  0.14200000000E+01 0.  1.
          4   -1    0    0  501    0  0.00000000000E+00 -0.00000000000E+00 -0.46253277096E+01  0.48383939919E+01  0.14200000000E+01 0. -1.
       1023    2    1    2    0    0  0.00000000000E+00  0.00000000000E+00  0.16282875790E+02  0.25794762322E+02  0.20005942099E+02 0.  0.
        -13    1    3    3    0    0 -0.90909393693E+01 -0.41668454404E+01  0.78820313770E+01  0.12733631480E+02  0.10570000000E+00 0. -1.
         13    1    3    3    0    0  0.90909393693E+01  0.41668454404E+01  0.84008444132E+01  0.13061130842E+02  0.10570000000E+00 0.  1.
<mgrwt>
<rscale>  0 0.20005942E+02</rscale>
<asrwt>0</asrwt>
<pdfrwt beam="2">  1        4 0.73168358E-03 0.20005942E+02</pdfrwt>
<pdfrwt beam="1">  1       -4 0.32367414E-02 0.20005942E+02</pdfrwt>
<totfact> 0.12673815E+06</totfact>
</mgrwt>
</event>
<event>
 5    1  0.4710515E-007  0.2000196E+02  0.7818608E-02  0.1745289E+00
          4   -1    0    0  501    0  0.00000000000E+00  0.00000000000E+00  0.36911364358E+02  0.36938668340E+02  0.14200000000E+01 0. -1.
         -4   -1    0    0    0  501 -0.00000000000E+00 -0.00000000000E+00 -0.24933457464E+01  0.28693506253E+01  0.14200000000E+01 0.  1.
       1023    2    1    2    0    0  0.00000000000E+00  0.00000000000E+00  0.34418018612E+02  0.39808018966E+02  0.20001959125E+02 0.  0.
        -13    1    3    3    0    0  0.70140924781E+01  0.71280514502E+01  0.17124362340E+02  0.19830823705E+02  0.10570000000E+00 0. -1.
         13    1    3    3    0    0 -0.70140924781E+01 -0.71280514502E+01  0.17293656272E+02  0.19977195261E+02  0.10570000000E+00 0.  1.
<mgrwt>
<rscale>  0 0.20001959E+02</rscale>
<asrwt>0</asrwt>
<pdfrwt beam="1">  1        4 0.57096954E-02 0.20001959E+02</pdfrwt>
<pdfrwt beam="2">  1       -4 0.41461539E-03 0.20001959E+02</pdfrwt>
<totfact> 0.11969181E+06</totfact>
</mgrwt>
</event>
<event>
 4    1  0.4710515E-007  0.2001603E+02  0.7818608E-02  0.1745010E+00
         -4   -1    0    0    0  501 -0.00000000000E+00  0.00000000000E+00  0.33120994533E+01  0.36036651882E+01  0.14200000000E+01 0. -1.
          4   -1    0    0  501    0  0.00000000000E+00 -0.00000000000E+00 -0.28655920561E+02  0.28691081945E+02  0.14200000000E+01 0.  1.
        -13    1    1    2    0    0  0.50379278368E+01 -0.86444064447E+01 -0.12338493714E+02  0.15885719351E+02  0.10570000000E+00 0. -1.
         13    1    1    2    0    0 -0.50379278368E+01  0.86444064447E+01 -0.13005327393E+02  0.16409027782E+02  0.10570000000E+00 0.  1.
<mgrwt>
<rscale>  0 0.20016029E+02</rscale>
<asrwt>0</asrwt>
<pdfrwt beam="2">  1        4 0.44337359E-02 0.20016029E+02</pdfrwt>
<pdfrwt beam="1">  1       -4 0.53468664E-03 0.20016029E+02</pdfrwt>
<totfact> 0.12317388E+06</totfact>
</mgrwt>
</event>
<event>
 5    1  0.5122788E-007  0.2000215E+02  0.7818608E-02  0.1745285E+00
         -4   -1    0    0    0  501 -0.00000000000E+00  0.00000000000E+00  0.39068556118E+01  0.41569124084E+01  0.14200000000E+01 0. -1.
          4   -1    0    0  501    0  0.00000000000E+00 -0.00000000000E+00 -0.24536409676E+02  0.24577465284E+02  0.14200000000E+01 0.  1.
       1023    2    1    2    0    0  0.00000000000E+00  0.00000000000E+00 -0.20629554064E+02  0.28734377692E+02  0.20002148896E+02 0.  0.
        -13    1    3    3    0    0 -0.43865831772E+01 -0.89867238861E+01 -0.10434963954E+02  0.14453475824E+02  0.10570000000E+00 0.  1.
         13    1    3    3    0    0  0.43865831772E+01  0.89867238861E+01 -0.10194590109E+02  0.14280901868E+02  0.10570000000E+00 0. -1.
<mgrwt>
<rscale>  0 0.20002149E+02</rscale>
<asrwt>0</asrwt>
<pdfrwt beam="2">  1        4 0.37972254E-02 0.20002149E+02</pdfrwt>
<pdfrwt beam="1">  1       -4 0.62344799E-03 0.20002149E+02</pdfrwt>
<totfact> 0.12519645E+06</totfact>
</mgrwt>
</event>
<event>
 4    1  0.4710515E-007  0.2001277E+02  0.7818608E-02  0.1745074E+00
          4   -1    0    0  501    0  0.00000000000E+00  0.00000000000E+00  0.23635966834E+02  0.23678583745E+02  0.14200000000E+01 0. -1.
         -4   -1    0    0    0  501 -0.00000000000E+00 -0.00000000000E+00 -0.40693852655E+01  0.43100227887E+01  0.14200000000E+01 0.  1.
        -13    1    1    2    0    0  0.86680203861E+01 -0.49878637571E+01  0.93339910053E+01  0.13680201857E+02  0.10570000000E+00 0. -1.
         13    1    1    2    0    0 -0.86680203861E+01  0.49878637571E+01  0.10232590563E+02  0.14308404677E+02  0.10570000000E+00 0.  1.
<mgrwt>
<rscale>  0 0.20012770E+02</rscale>
<asrwt>0</asrwt>
<pdfrwt beam="1">  1        4 0.36580913E-02 0.20012770E+02</pdfrwt>
<pdfrwt beam="2">  1       -4 0.64784810E-03 0.20012770E+02</pdfrwt>
<totfact> 0.12545863E+06</totfact>
</mgrwt>
</event>
<event>
 5    1  0.4710515E-007  0.2000359E+02  0.7818608E-02  0.1745257E+00
          4   -1    0    0  501    0  0.00000000000E+00  0.00000000000E+00  0.88122747990E+02  0.88134188107E+02  0.14200000000E+01 0. -1.
         -4   -1    0    0    0  501 -0.00000000000E+00 -0.00000000000E+00 -0.67501536527E+00  0.15722740675E+01  0.14200000000E+01 0.  1.
       1023    2    1    2    0    0  0.00000000000E+00  0.00000000000E+00  0.87447732625E+02  0.89706462174E+02  0.20003585046E+02 0.  0.
        -13    1    3    3    0    0 -0.95375583400E+01  0.30099175536E+01  0.43689591441E+02  0.44819819226E+02  0.10570000000E+00 0. -1.
         13    1    3    3    0    0  0.95375583400E+01 -0.30099175536E+01  0.43758141184E+02  0.44886642948E+02  0.10570000000E+00 0.  1.
<mgrwt>
<rscale>  0 0.20003585E+02</rscale>
<asrwt>0</asrwt>
<pdfrwt beam="1">  1        4 0.13627244E-01 0.20003585E+02</pdfrwt>
<pdfrwt beam="2">  1       -4 0.17374845E-03 0.20003585E+02</pdfrwt>
<totfact> 0.10101037E+06</totfact>
</mgrwt>
</event>
<event>
 5    1  0.4710515E-007  0.2000817E+02  0.7818608E-02  0.1745166E+00
         -4   -1    0    0    0  501 -0.00000000000E+00  0.00000000000E+00  0.33918587874E+00  0.14599476225E+01  0.14200000000E+01 0. -1.
          4   -1    0    0  501    0  0.00000000000E+00 -0.00000000000E+00 -0.11012731539E+03  0.11013646987E+03  0.14200000000E+01 0.  1.
       1023    2    1    2    0    0  0.00000000000E+00  0.00000000000E+00 -0.10978812952E+03  0.11159641749E+03  0.20008173709E+02 0.  0.
        -13    1    3    3    0    0  0.72555456095E+01  0.68865412134E+01 -0.55209051471E+02  0.56108091473E+02  0.10570000000E+00 0.  1.
         13    1    3    3    0    0 -0.72555456095E+01 -0.68865412134E+01 -0.54579078045E+02  0.55488326022E+02  0.10570000000E+00 0. -1.
<mgrwt>
<rscale>  0 0.20008174E+02</rscale>
<asrwt>0</asrwt>
<pdfrwt beam="2">  1        4 0.17029570E-01 0.20008174E+02</pdfrwt>
<pdfrwt beam="1">  1       -4 0.13909916E-03 0.20008174E+02</pdfrwt>
<totfact> 0.94751010E+05</totfact>
</mgrwt>
</event>
<event>
 5    1  0.4710515E-007  0.2000240E+02  0.7818608E-02  0.1745280E+00
         -4   -1    0    0    0  501 -0.00000000000E+00  0.00000000000E+00  0.35325633054E+02  0.35354161716E+02  0.14200000000E+01 0. -1.
          4   -1    0    0  501    0  0.00000000000E+00 -0.00000000000E+00 -0.26218167448E+01  0.29816644753E+01  0.14200000000E+01 0.  1.
       1023    2    1    2    0    0  0.00000000000E+00  0.00000000000E+00  0.32703816309E+02  0.38335826192E+02  0.20002399071E+02 0.  0.
        -13    1    3    3    0    0 -0.18957389497E+01 -0.98193084020E+01  0.16326481895E+02  0.19146222270E+02  0.10570000000E+00 0. -1.
         13    1    3    3    0    0  0.18957389497E+01  0.98193084020E+01  0.16377334414E+02  0.19189603921E+02  0.10570000000E+00 0.  1.
<mgrwt>
<rscale>  0 0.20002399E+02</rscale>
<asrwt>0</asrwt>
<pdfrwt beam="2">  1        4 0.43323154E-03 0.20002399E+02</pdfrwt>
<pdfrwt beam="1">  1       -4 0.54645877E-02 0.20002399E+02</pdfrwt>
<totfact> 0.12037858E+06</totfact>
</mgrwt>
</event>
<event>
 5    1  0.4710515E-007  0.2000912E+02  0.7818608E-02  0.1745147E+00
          4   -1    0    0  501    0  0.00000000000E+00  0.00000000000E+00  0.47355597985E+01  0.49438776891E+01  0.14200000000E+01 0.  1.
         -4   -1    0    0    0  501 -0.00000000000E+00 -0.00000000000E+00 -0.20447739372E+02  0.20496986252E+02  0.14200000000E+01 0. -1.
       1023    2    1    2    0    0  0.00000000000E+00  0.00000000000E+00 -0.15712179573E+02  0.25440863941E+02  0.20009122198E+02 0.  0.
        -13    1    3    3    0    0  0.21092547946E+01 -0.97777570821E+01 -0.80633848974E+01  0.12848456632E+02  0.10570000000E+00 0.  1.
         13    1    3    3    0    0 -0.21092547946E+01  0.97777570821E+01 -0.76487946759E+01  0.12592407309E+02  0.10570000000E+00 0. -1.
<mgrwt>
<rscale>  0 0.20009122E+02</rscale>
<asrwt>0</asrwt>
<pdfrwt beam="1">  1        4 0.74836035E-03 0.20009122E+02</pdfrwt>
<pdfrwt beam="2">  1       -4 0.31656187E-02 0.20009122E+02</pdfrwt>
<totfact> 0.12689278E+06</totfact>
</mgrwt>
</event>
<event>
 5    1  0.4710515E-007  0.2000716E+02  0.7818608E-02  0.1745186E+00
         -4   -1    0    0    0  501 -0.00000000000E+00  0.00000000000E+00  0.91768405095E+01  0.92860541533E+01  0.14200000000E+01 0.  1.
          4   -1    0    0  501    0  0.00000000000E+00 -0.00000000000E+00 -0.10683829523E+02  0.10777783320E+02  0.14200000000E+01 0. -1.
       1023    2    1    2    0    0  0.00000000000E+00  0.00000000000E+00 -0.15069890138E+01  0.20063837473E+02  0.20007162674E+02 0.  0.
        -13    1    3    3    0    0  0.65591262064E+01 -0.75506203631E+01 -0.59036036425E+00  0.10019665778E+02  0.10570000000E+00 0.  1.
         13    1    3    3    0    0 -0.65591262064E+01  0.75506203631E+01 -0.91662864955E+00  0.10044171695E+02  0.10570000000E+00 0. -1.
<mgrwt>
<rscale>  0 0.20007163E+02</rscale>
<asrwt>0</asrwt>
<pdfrwt beam="2">  1        4 0.16592943E-02 0.20007163E+02</pdfrwt>
<pdfrwt beam="1">  1       -4 0.14274499E-02 0.20007163E+02</pdfrwt>
<totfact> 0.13000747E+06</totfact>
</mgrwt>
</event>
<event>
 5    1  0.4710515E-007  0.2000550E+02  0.7818608E-02  0.1745219E+00
         -4   -1    0    0    0  501 -0.00000000000E+00  0.00000000000E+00  0.83365539709E+01  0.84566265207E+01  0.14200000000E+01 0.  1.
          4   -1    0    0  501    0  0.00000000000E+00 -0.00000000000E+00 -0.11753039083E+02  0.11838510366E+02  0.14200000000E+01 0. -1.
       1023    2    1    2    0    0  0.00000000000E+00  0.00000000000E+00 -0.34164851117E+01  0.20295136886E+02  0.20005504510E+02 0.  0.
        -13    1    3    3    0    0  0.80906117820E+01  0.58804249134E+01 -0.17899317553E+01  0.10161320010E+02  0.10570000000E+00 0.  1.
         13    1    3    3    0    0 -0.80906117820E+01 -0.58804249134E+01 -0.16265533564E+01  0.10133816876E+02  0.10570000000E+00 0. -1.
<mgrwt>
<rscale>  0 0.20005505E+02</rscale>
<asrwt>0</asrwt>
<pdfrwt beam="2">  1        4 0.18239709E-02 0.20005505E+02</pdfrwt>
<pdfrwt beam="1">  1       -4 0.12983578E-02 0.20005505E+02</pdfrwt>
<totfact> 0.12989179E+06</totfact>
</mgrwt>
</event>
<event>
 4    1  0.4710515E-007  0.2004918E+02  0.7818608E-02  0.1744352E+00
          4   -1    0    0  501    0  0.00000000000E+00  0.00000000000E+00  0.34260328679E+01  0.37086522096E+01  0.14200000000E+01 0. -1.
         -4   -1    0    0    0  501 -0.00000000000E+00 -0.00000000000E+00 -0.27868687597E+02  0.27904840949E+02  0.14200000000E+01 0.  1.
        -13    1    1    2    0    0 -0.50040177533E+00 -0.99951100953E+01 -0.13125197672E+02  0.16505593421E+02  0.10570000000E+00 0. -1.
         13    1    1    2    0    0  0.50040177533E+00  0.99951100953E+01 -0.11317457058E+02  0.15107899738E+02  0.10570000000E+00 0.  1.
<mgrwt>
<rscale>  0 0.20049179E+02</rscale>
<asrwt>0</asrwt>
<pdfrwt beam="1">  1        4 0.55160297E-03 0.20049179E+02</pdfrwt>
<pdfrwt beam="2">  1       -4 0.43120112E-02 0.20049179E+02</pdfrwt>
<totfact> 0.12310686E+06</totfact>
</mgrwt>
</event>
<event>
 4    1  0.4710515E-007  0.2001382E+02  0.7818608E-02  0.1745053E+00
         -4   -1    0    0    0  501 -0.00000000000E+00  0.00000000000E+00  0.57511969606E+00  0.15320452555E+01  0.14200000000E+01 0.  1.
          4   -1    0    0  501    0  0.00000000000E+00 -0.00000000000E+00 -0.94080791193E+02  0.94091506904E+02  0.14200000000E+01 0. -1.
        -13    1    1    2    0    0  0.49756972506E+01  0.86801809664E+01 -0.47493085072E+02  0.48535630283E+02  0.10570000000E+00 0.  1.
         13    1    1    2    0    0 -0.49756972506E+01 -0.86801809664E+01 -0.46012586424E+02  0.47087921877E+02  0.10570000000E+00 0. -1.
<mgrwt>
<rscale>  0 0.20013823E+02</rscale>
<asrwt>0</asrwt>
<pdfrwt beam="2">  1        4 0.14548395E-01 0.20013823E+02</pdfrwt>
<pdfrwt beam="1">  1       -4 0.16291397E-03 0.20013823E+02</pdfrwt>
<totfact> 0.99139979E+05</totfact>
</mgrwt>
</event>
<event>
 5    1  0.4710515E-007  0.2000606E+02  0.7818608E-02  0.1745208E+00
          4   -1    0    0  501    0  0.00000000000E+00  0.00000000000E+00  0.14862652129E+02  0.14930332491E+02  0.14200000000E+01 0.  1.
         -4   -1    0    0    0  501 -0.00000000000E+00 -0.00000000000E+00 -0.65733907430E+01  0.67250179078E+01  0.14200000000E+01 0. -1.
       1023    2    1    2    0    0  0.00000000000E+00  0.00000000000E+00  0.82892613856E+01  0.21655350399E+02  0.20006057747E+02 0.  0.
        -13    1    3    3    0    0  0.88405196474E+01  0.46753241950E+01  0.43499241311E+01  0.10906257672E+02  0.10570000000E+00 0.  1.
         13    1    3    3    0    0 -0.88405196474E+01 -0.46753241950E+01  0.39393372545E+01  0.10749092727E+02  0.10570000000E+00 0. -1.
<mgrwt>
<rscale>  0 0.20006058E+02</rscale>
<asrwt>0</asrwt>
<pdfrwt beam="1">  1        4 0.23034316E-02 0.20006058E+02</pdfrwt>
<pdfrwt beam="2">  1       -4 0.10281607E-02 0.20006058E+02</pdfrwt>
<totfact> 0.12908309E+06</totfact>
</mgrwt>
</event>
<event>
 5    1  0.4710515E-007  0.2000168E+02  0.7818608E-02  0.1745295E+00
          4   -1    0    0  501    0  0.00000000000E+00  0.00000000000E+00  0.89207559734E+02  0.89218860751E+02  0.14200000000E+01 0.  1.
         -4   -1    0    0    0  501 -0.00000000000E+00 -0.00000000000E+00 -0.65553013433E+00  0.15640075949E+01  0.14200000000E+01 0. -1.
       1023    2    1    2    0    0  0.00000000000E+00  0.00000000000E+00  0.88552029600E+02  0.90782868346E+02  0.20001680901E+02 0.  0.
        -13    1    3    3    0    0 -0.86991946448E+01  0.49322794571E+01  0.44492220039E+02  0.45602326526E+02  0.10570000000E+00 0.  1.
         13    1    3    3    0    0  0.86991946448E+01 -0.49322794571E+01  0.44059809561E+02  0.45180541820E+02  0.10570000000E+00 0. -1.
<mgrwt>
<rscale>  0 0.20001681E+02</rscale>
<asrwt>0</asrwt>
<pdfrwt beam="1">  1        4 0.13794990E-01 0.20001681E+02</pdfrwt>
<pdfrwt beam="2">  1       -4 0.17160301E-03 0.20001681E+02</pdfrwt>
<totfact> 0.10070235E+06</totfact>
</mgrwt>
</event>
<event>
 5    1  0.4710515E-007  0.2000598E+02  0.7818608E-02  0.1745209E+00
          4   -1    0    0  501    0  0.00000000000E+00  0.00000000000E+00  0.10876671129E+01  0.17886921894E+01  0.14200000000E+01 0.  1.
         -4   -1    0    0    0  501 -0.00000000000E+00 -0.00000000000E+00 -0.68863810133E+02  0.68878449068E+02  0.14200000000E+01 0. -1.
       1023    2    1    2    0    0  0.00000000000E+00  0.00000000000E+00 -0.67776143020E+02  0.70667141258E+02  0.20005981376E+02 0.  0.
        -13    1    3    3    0    0  0.39735562343E+01 -0.91792216636E+01 -0.34019799382E+02  0.35459909503E+02  0.10570000000E+00 0. -1.
         13    1    3    3    0    0 -0.39735562343E+01  0.91792216636E+01 -0.33756343638E+02  0.35207231755E+02  0.10570000000E+00 0.  1.
<mgrwt>
<rscale>  0 0.20005981E+02</rscale>
<asrwt>0</asrwt>
<pdfrwt beam="1">  1        4 0.22238453E-03 0.20005981E+02</pdfrwt>
<pdfrwt beam="2">  1       -4 0.10649481E-01 0.20005981E+02</pdfrwt>
<totfact> 0.10720877E+06</totfact>
</mgrwt>
</event>
<event>
 4    1  0.4710515E-007  0.2002055E+02  0.7818608E-02  0.1744920E+00
          4   -1    0    0  501    0  0.00000000000E+00  0.00000000000E+00  0.23008904182E+01  0.27037930240E+01  0.14200000000E+01 0.  1.
         -4   -1    0    0    0  501 -0.00000000000E+00 -0.00000000000E+00 -0.39628069967E+02  0.39653503368E+02  0.14200000000E+01 0. -1.
        -13    1    1    2    0    0 -0.90787547412E+01 -0.41960287712E+01 -0.19520218957E+02  0.21933548863E+02  0.10570000000E+00 0. -1.
         13    1    1    2    0    0  0.90787547412E+01  0.41960287712E+01 -0.17806960592E+02  0.20423747528E+02  0.10570000000E+00 0.  1.
<mgrwt>
<rscale>  0 0.20020545E+02</rscale>
<asrwt>0</asrwt>
<pdfrwt beam="1">  1        4 0.38693209E-03 0.20020545E+02</pdfrwt>
<pdfrwt beam="2">  1       -4 0.61295746E-02 0.20020545E+02</pdfrwt>
<totfact> 0.11829687E+06</totfact>
</mgrwt>
</event>
<event>
 5    1  0.4710515E-007  0.2000678E+02  0.7818608E-02  0.1745193E+00
          4   -1    0    0  501    0  0.00000000000E+00  0.00000000000E+00  0.38679255790E+02  0.38705312664E+02  0.14200000000E+01 0.  1.
         -4   -1    0    0    0  501 -0.00000000000E+00 -0.00000000000E+00 -0.23632190635E+01  0.27570281722E+01  0.14200000000E+01 0.  1.
       1023    2    1    2    0    0  0.00000000000E+00  0.00000000000E+00  0.36316036726E+02  0.41462340836E+02  0.20006778455E+02 0.  0.
        -13    1    3    3    0    0  0.95936935668E+01 -0.28235989292E+01  0.18597430774E+02  0.21116042978E+02  0.10570000000E+00 0.  1.
         13    1    3    3    0    0 -0.95936935668E+01  0.28235989292E+01  0.17718605953E+02  0.20346297859E+02  0.10570000000E+00 0. -1.
<mgrwt>
<rscale>  0 0.20006778E+02</rscale>
<asrwt>0</asrwt>
<pdfrwt beam="1">  1        4 0.59829513E-02 0.20006778E+02</pdfrwt>
<pdfrwt beam="2">  1       -4 0.39586960E-03 0.20006778E+02</pdfrwt>
<totfact> 0.11886933E+06</totfact>
</mgrwt>
</event>
<event>
 5    1  0.4710515E-007  0.2000286E+02  0.7818608E-02  0.1745271E+00
         -4   -1    0    0    0  501 -0.00000000000E+00  0.00000000000E+00  0.23961269913E+01  0.27852871591E+01  0.14200000000E+01 0. -1.
          4   -1    0    0  501    0  0.00000000000E+00 -0.00000000000E+00 -0.38207184492E+02  0.38233563093E+02  0.14200000000E+01 0.  1.
       1023    2    1    2    0    0  0.00000000000E+00  0.00000000000E+00 -0.35811057500E+02  0.41018850252E+02  0.20002855714E+02 0.  0.
        -13    1    3    3    0    0 -0.79705621654E+01 -0.60403988922E+01 -0.17837310297E+02  0.20449867754E+02  0.10570000000E+00 0. -1.
         13    1    3    3    0    0  0.79705621654E+01  0.60403988922E+01 -0.17973747203E+02  0.20568982498E+02  0.10570000000E+00 0.  1.
<mgrwt>
<rscale>  0 0.20002856E+02</rscale>
<asrwt>0</asrwt>
<pdfrwt beam="2">  1        4 0.59099925E-02 0.20002856E+02</pdfrwt>
<pdfrwt beam="1">  1       -4 0.40059947E-03 0.20002856E+02</pdfrwt>
<totfact> 0.11912009E+06</totfact>
</mgrwt>
</event>
<event>
 5    1  0.4945840E-007  0.2000191E+02  0.7818608E-02  0.1745290E+00
         -4   -1    0    0    0  501 -0.00000000000E+00  0.00000000000E+00  0.35007502281E+01  0.37777840277E+01  0.14200000000E+01 0.  1.
          4   -1    0    0  501    0  0.00000000000E+00 -0.00000000000E+00 -0.27187043179E+02  0.27224101763E+02  0.14200000000E+01 0. -1.
       1023    2    1    2    0    0  0.00000000000E+00  0.00000000000E+00 -0.23686292951E+02  0.31001885791E+02  0.20001911130E+02 0.  0.
        -13    1    3    3    0    0 -0.85354719109E+01  0.52104477380E+01 -0.11734723934E+02  0.15418105094E+02  0.10570000000E+00 0.  1.
         13    1    3    3    0    0  0.85354719109E+01 -0.52104477380E+01 -0.11951569016E+02  0.15583780697E+02  0.10570000000E+00 0. -1.
<mgrwt>
<rscale>  0 0.20001911E+02</rscale>
<asrwt>0</asrwt>
<pdfrwt beam="2">  1        4 0.42067828E-02 0.20001911E+02</pdfrwt>
<pdfrwt beam="1">  1       -4 0.56273793E-03 0.20001911E+02</pdfrwt>
<totfact> 0.12401331E+06</totfact>
</mgrwt>
</event>
<event>
 5    1  0.4710515E-007  0.2000846E+02  0.7818608E-02  0.1745160E+00
          4   -1    0    0  501    0  0.00000000000E+00  0.00000000000E+00  0.80741298016E+02  0.80753783845E+02  0.14200000000E+01 0. -1.
         -4   -1    0    0    0  501 -0.00000000000E+00 -0.00000000000E+00 -0.81610481977E+00  0.16378116732E+01  0.14200000000E+01 0.  1.
       1023    2    1    2    0    0  0.00000000000E+00  0.00000000000E+00  0.79925193196E+02  0.82391595518E+02  0.20008460825E+02 0.  0.
        -13    1    3    3    0    0 -0.50895991729E+01  0.86103313025E+01  0.39230260459E+02  0.40485384190E+02  0.10570000000E+00 0.  1.
         13    1    3    3    0    0  0.50895991729E+01 -0.86103313025E+01  0.40694932737E+02  0.41906211328E+02  0.10570000000E+00 0. -1.
<mgrwt>
<rscale>  0 0.20008461E+02</rscale>
<asrwt>0</asrwt>
<pdfrwt beam="1">  1        4 0.12485910E-01 0.20008461E+02</pdfrwt>
<pdfrwt beam="2">  1       -4 0.18972321E-03 0.20008461E+02</pdfrwt>
<totfact> 0.10324932E+06</totfact>
</mgrwt>
</event>
<event>
 4    1  0.4710515E-007  0.2003782E+02  0.7818608E-02  0.1744577E+00
         -4   -1    0    0    0  501 -0.00000000000E+00  0.00000000000E+00  0.13148519656E+02  0.13224975204E+02  0.14200000000E+01 0.  1.
          4   -1    0    0  501    0  0.00000000000E+00 -0.00000000000E+00 -0.74685336285E+01  0.76023282328E+01  0.14200000000E+01 0. -1.
        -13    1    1    2    0    0 -0.27635209417E+01 -0.96136972214E+01  0.34160745654E+01  0.10570759679E+02  0.10570000000E+00 0.  1.
         13    1    1    2    0    0  0.27635209417E+01  0.96136972214E+01  0.22639114621E+01  0.10256543758E+02  0.10570000000E+00 0. -1.
<mgrwt>
<rscale>  0 0.20037822E+02</rscale>
<asrwt>0</asrwt>
<pdfrwt beam="2">  1        4 0.11651783E-02 0.20037822E+02</pdfrwt>
<pdfrwt beam="1">  1       -4 0.20390223E-02 0.20037822E+02</pdfrwt>
<totfact> 0.12915065E+06</totfact>
</mgrwt>
</event>
<event>
 4    1  0.5300390E-007  0.2313332E+02  0.7818608E-02  0.1689358E+00
          4   -1    0    0  501    0  0.00000000000E+00  0.00000000000E+00  0.53776902822E+02  0.53795647381E+02  0.14200000000E+01 0.  1.
         -4   -1    0    0    0  501 -0.00000000000E+00 -0.00000000000E+00 -0.22644084507E+01  0.26728160490E+01  0.14200000000E+01 0. -1.
        -13    1    1    2    0    0  0.73984251698E+01 -0.86248819931E+01  0.20491874731E+02  0.23431888248E+02  0.10570000000E+00 0.  1.
         13    1    1    2    0    0 -0.73984251698E+01  0.86248819931E+01  0.31020619641E+02  0.33036575182E+02  0.10570000000E+00 0. -1.
<mgrwt>
<rscale>  0 0.23133315E+02</rscale>
<asrwt>0</asrwt>
<pdfrwt beam="1">  1        4 0.83062269E-02 0.23133315E+02</pdfrwt>
<pdfrwt beam="2">  1       -4 0.38122842E-03 0.23133315E+02</pdfrwt>
<totfact> 0.83372709E+05</totfact>
</mgrwt>
</event>
<event>
 4    1  0.4710515E-007  0.2003149E+02  0.7818608E-02  0.1744703E+00
          4   -1    0    0  501    0  0.00000000000E+00  0.00000000000E+00  0.65078027144E+01  0.66609230718E+01  0.14200000000E+01 0. -1.
         -4   -1    0    0    0  501 -0.00000000000E+00 -0.00000000000E+00 -0.15048430208E+02  0.15115278752E+02  0.14200000000E+01 0.  1.
        -13    1    1    2    0    0  0.27500106472E+01 -0.96227687306E+01 -0.46824844471E+01  0.11049754282E+02  0.10570000000E+00 0.  1.
         13    1    1    2    0    0 -0.27500106472E+01  0.96227687306E+01 -0.38581430470E+01  0.10726447542E+02  0.10570000000E+00 0. -1.
<mgrwt>
<rscale>  0 0.20031491E+02</rscale>
<asrwt>0</asrwt>
<pdfrwt beam="1">  1        4 0.10181211E-02 0.20031491E+02</pdfrwt>
<pdfrwt beam="2">  1       -4 0.23320638E-02 0.20031491E+02</pdfrwt>
<totfact> 0.12867870E+06</totfact>
</mgrwt>
</event>
<event>
 4    1  0.4710515E-007  0.2004228E+02  0.7818608E-02  0.1744489E+00
         -4   -1    0    0    0  501 -0.00000000000E+00  0.00000000000E+00  0.23500322856E+01  0.27457333708E+01  0.14200000000E+01 0.  1.
          4   -1    0    0  501    0  0.00000000000E+00 -0.00000000000E+00 -0.39004763629E+02  0.39030603195E+02  0.14200000000E+01 0. -1.
        -13    1    1    2    0    0 -0.56141976098E+01  0.82996414534E+01 -0.18522969601E+02  0.21059791984E+02  0.10570000000E+00 0. -1.
         13    1    1    2    0    0  0.56141976098E+01 -0.82996414534E+01 -0.18131761743E+02  0.20716544583E+02  0.10570000000E+00 0.  1.
<mgrwt>
<rscale>  0 0.20042279E+02</rscale>
<asrwt>0</asrwt>
<pdfrwt beam="2">  1        4 0.60331586E-02 0.20042279E+02</pdfrwt>
<pdfrwt beam="1">  1       -4 0.39396966E-03 0.20042279E+02</pdfrwt>
<totfact> 0.11830067E+06</totfact>
</mgrwt>
</event>
<event>
 5    1  0.4710515E-007  0.2000403E+02  0.7818608E-02  0.1745248E+00
          4   -1    0    0  501    0  0.00000000000E+00  0.00000000000E+00  0.37232997571E+02  0.37260065863E+02  0.14200000000E+01 0. -1.
         -4   -1    0    0    0  501 -0.00000000000E+00 -0.00000000000E+00 -0.24691598074E+01  0.28483592039E+01  0.14200000000E+01 0.  1.
       1023    2    1    2    0    0  0.00000000000E+00  0.00000000000E+00  0.34763837763E+02  0.40108425067E+02  0.20004033226E+02 0.  0.
        -13    1    3    3    0    0 -0.14453151006E+01  0.98963538301E+01  0.17283510262E+02  0.19968917205E+02  0.10570000000E+00 0.  1.
         13    1    3    3    0    0  0.14453151006E+01 -0.98963538301E+01  0.17480327502E+02  0.20139507862E+02  0.10570000000E+00 0. -1.
<mgrwt>
<rscale>  0 0.20004033E+02</rscale>
<asrwt>0</asrwt>
<pdfrwt beam="1">  1        4 0.57594044E-02 0.20004033E+02</pdfrwt>
<pdfrwt beam="2">  1       -4 0.41112213E-03 0.20004033E+02</pdfrwt>
<totfact> 0.11952686E+06</totfact>
</mgrwt>
</event>
<event>
 5    1  0.4710515E-007  0.2000481E+02  0.7818608E-02  0.1745233E+00
         -4   -1    0    0    0  501 -0.00000000000E+00  0.00000000000E+00  0.51523960023E+00  0.15105865899E+01  0.14200000000E+01 0.  1.
          4   -1    0    0  501    0  0.00000000000E+00 -0.00000000000E+00 -0.97769572950E+02  0.97779884408E+02  0.14200000000E+01 0. -1.
       1023    2    1    2    0    0  0.00000000000E+00  0.00000000000E+00 -0.97254333350E+02  0.99290470998E+02  0.20004806314E+02 0.  0.
        -13    1    3    3    0    0 -0.18432142936E+00 -0.10000011711E+02 -0.48369846745E+02  0.49393192398E+02  0.10570000000E+00 0. -1.
         13    1    3    3    0    0  0.18432142936E+00  0.10000011711E+02 -0.48884486605E+02  0.49897278600E+02  0.10570000000E+00 0.  1.
<mgrwt>
<rscale>  0 0.20004806E+02</rscale>
<asrwt>0</asrwt>
<pdfrwt beam="2">  1        4 0.15118824E-01 0.20004806E+02</pdfrwt>
<pdfrwt beam="1">  1       -4 0.15662605E-03 0.20004806E+02</pdfrwt>
<totfact> 0.98167931E+05</totfact>
</mgrwt>
</event>
<event>
 5    1  0.4710515E-007  0.2000161E+02  0.7818608E-02  0.1745296E+00
         -4   -1    0    0    0  501 -0.00000000000E+00  0.00000000000E+00  0.21896847916E+02  0.21942842766E+02  0.14200000000E+01 0.  1.
          4   -1    0    0  501    0  0.00000000000E+00 -0.00000000000E+00 -0.44050910141E+01  0.46283071250E+01  0.14200000000E+01 0. -1.
       1023    2    1    2    0    0  0.00000000000E+00  0.00000000000E+00  0.17491756902E+02  0.26571149891E+02  0.20001611111E+02 0.  0.
        -13    1    3    3    0    0 -0.28556798257E+01  0.95836966442E+01  0.88160557232E+01  0.13331772562E+02  0.10570000000E+00 0. -1.
         13    1    3    3    0    0  0.28556798257E+01 -0.95836966442E+01  0.86757011789E+01  0.13239377329E+02  0.10570000000E+00 0.  1.
<mgrwt>
<rscale>  0 0.20001611E+02</rscale>
<asrwt>0</asrwt>
<pdfrwt beam="2">  1        4 0.69841485E-03 0.20001611E+02</pdfrwt>
<pdfrwt beam="1">  1       -4 0.33894543E-02 0.20001611E+02</pdfrwt>
<totfact> 0.12636779E+06</totfact>
</mgrwt>
</event>
<event>
 4    1  0.4710515E-007  0.2009451E+02  0.7818608E-02  0.1743455E+00
          4   -1    0    0  501    0  0.00000000000E+00  0.00000000000E+00  0.11564331138E+01  0.18313212571E+01  0.14200000000E+01 0.  1.
         -4   -1    0    0    0  501 -0.00000000000E+00 -0.00000000000E+00 -0.66889907229E+02  0.66904978059E+02  0.14200000000E+01 0. -1.
        -13    1    1    2    0    0  0.83612316865E+01 -0.55467812345E+01 -0.34608101307E+02  0.36033440384E+02  0.10570000000E+00 0.  1.
         13    1    1    2    0    0 -0.83612316865E+01  0.55467812345E+01 -0.31125372809E+02  0.32702858932E+02  0.10570000000E+00 0. -1.
<mgrwt>
<rscale>  0 0.20094507E+02</rscale>
<asrwt>0</asrwt>
<pdfrwt beam="1">  1        4 0.23098661E-03 0.20094507E+02</pdfrwt>
<pdfrwt beam="2">  1       -4 0.10343826E-01 0.20094507E+02</pdfrwt>
<totfact> 0.10693894E+06</totfact>
</mgrwt>
</event>
<event>
 5    1  0.4710515E-007  0.2000186E+02  0.7818608E-02  0.1745291E+00
          4   -1    0    0  501    0  0.00000000000E+00  0.00000000000E+00  0.22546679365E+01  0.26645689152E+01  0.14200000000E+01 0. -1.
         -4   -1    0    0    0  501 -0.00000000000E+00 -0.00000000000E+00 -0.40240812689E+02  0.40265859060E+02  0.14200000000E+01 0.  1.
       1023    2    1    2    0    0  0.00000000000E+00  0.00000000000E+00 -0.37986144753E+02  0.42930427976E+02  0.20001861239E+02 0.  0.
        -13    1    3    3    0    0  0.84013308043E+01 -0.54243922026E+01 -0.19062644747E+02  0.21526773731E+02  0.10570000000E+00 0.  1.
         13    1    3    3    0    0 -0.84013308043E+01  0.54243922026E+01 -0.18923500006E+02  0.21403654244E+02  0.10570000000E+00 0. -1.
<mgrwt>
<rscale>  0 0.20001861E+02</rscale>
<asrwt>0</asrwt>
<pdfrwt beam="1">  1        4 0.38032951E-03 0.20001861E+02</pdfrwt>
<pdfrwt beam="2">  1       -4 0.62243512E-02 0.20001861E+02</pdfrwt>
<totfact> 0.11826084E+06</totfact>
</mgrwt>
</event>
<event>
 5    1  0.4743496E-007  0.2000272E+02  0.7818608E-02  0.1745274E+00
          4   -1    0    0  501    0  0.00000000000E+00  0.00000000000E+00  0.68684012176E+01  0.70136534906E+01  0.14200000000E+01 0. -1.
         -4   -1    0    0    0  501 -0.00000000000E+00 -0.00000000000E+00 -0.14230054526E+02  0.14300729066E+02  0.14200000000E+01 0.  1.
       1023    2    1    2    0    0  0.00000000000E+00  0.00000000000E+00 -0.73616533086E+01  0.21314382557E+02  0.20002723923E+02 0.  0.
        -13    1    3    3    0    0 -0.24758827130E+01  0.96894773381E+01 -0.36916041680E+01  0.10660913662E+02  0.10570000000E+00 0. -1.
         13    1    3    3    0    0  0.24758827130E+01 -0.96894773381E+01 -0.36700491406E+01  0.10653468894E+02  0.10570000000E+00 0.  1.
<mgrwt>
<rscale>  0 0.20002724E+02</rscale>
<asrwt>0</asrwt>
<pdfrwt beam="1">  1        4 0.10732869E-02 0.20002724E+02</pdfrwt>
<pdfrwt beam="2">  1       -4 0.22058489E-02 0.20002724E+02</pdfrwt>
<totfact> 0.12932651E+06</totfact>
</mgrwt>
</event>
<event>
 4    1  0.4710515E-007  0.2006037E+02  0.7818608E-02  0.1744130E+00
          4   -1    0    0  501    0  0.00000000000E+00  0.00000000000E+00  0.26897639380E+01  0.30415834761E+01  0.14200000000E+01 0. -1.
         -4   -1    0    0    0  501 -0.00000000000E+00 -0.00000000000E+00 -0.34739573436E+02  0.34768582981E+02  0.14200000000E+01 0.  1.
        -13    1    1    2    0    0  0.43544866716E+01 -0.90205779758E+01 -0.16987908954E+02  0.19721374300E+02  0.10570000000E+00 0. -1.
         13    1    1    2    0    0 -0.43544866716E+01  0.90205779758E+01 -0.15061900545E+02  0.18088792157E+02  0.10570000000E+00 0.  1.
<mgrwt>
<rscale>  0 0.20060369E+02</rscale>
<asrwt>0</asrwt>
<pdfrwt beam="1">  1        4 0.44310441E-03 0.20060369E+02</pdfrwt>
<pdfrwt beam="2">  1       -4 0.53738440E-02 0.20060369E+02</pdfrwt>
<totfact> 0.11992310E+06</totfact>
</mgrwt>
</event>
<event>
 5    1  0.4710515E-007  0.2000586E+02  0.7818608E-02  0.1745212E+00
         -4   -1    0    0    0  501 -0.00000000000E+00  0.00000000000E+00  0.34114610565E+02  0.34144151095E+02  0.14200000000E+01 0. -1.
          4   -1    0    0  501    0  0.00000000000E+00 -0.00000000000E+00 -0.27284287205E+01  0.30758288774E+01  0.14200000000E+01 0.  1.
       1023    2    1    2    0    0  0.00000000000E+00  0.00000000000E+00  0.31386181844E+02  0.37219979972E+02  0.20005861600E+02 0.  0.
        -13    1    3    3    0    0 -0.83846631386E+01  0.54525474044E+01  0.15917913181E+02  0.18799573976E+02  0.10570000000E+00 0. -1.
         13    1    3    3    0    0  0.83846631386E+01 -0.54525474044E+01  0.15468268663E+02  0.18420405997E+02  0.10570000000E+00 0.  1.
<mgrwt>
<rscale>  0 0.20005862E+02</rscale>
<asrwt>0</asrwt>
<pdfrwt beam="2">  1        4 0.44875368E-03 0.20005862E+02</pdfrwt>
<pdfrwt beam="1">  1       -4 0.52773973E-02 0.20005862E+02</pdfrwt>
<totfact> 0.12086843E+06</totfact>
</mgrwt>
</event>
<event>
 4    1  0.4710515E-007  0.2001346E+02  0.7818608E-02  0.1745061E+00
          4   -1    0    0  501    0  0.00000000000E+00  0.00000000000E+00  0.78915384535E+01  0.80182778178E+01  0.14200000000E+01 0.  1.
         -4   -1    0    0    0  501 -0.00000000000E+00 -0.00000000000E+00 -0.12420265052E+02  0.12501175303E+02  0.14200000000E+01 0. -1.
        -13    1    1    2    0    0  0.70130796846E+01  0.71306789332E+01 -0.25780507693E+01  0.10328958659E+02  0.10570000000E+00 0. -1.
         13    1    1    2    0    0 -0.70130796846E+01 -0.71306789332E+01 -0.19506758294E+01  0.10190494463E+02  0.10570000000E+00 0.  1.
<mgrwt>
<rscale>  0 0.20013460E+02</rscale>
<asrwt>0</asrwt>
<pdfrwt beam="1">  1        4 0.12300559E-02 0.20013460E+02</pdfrwt>
<pdfrwt beam="2">  1       -4 0.19267831E-02 0.20013460E+02</pdfrwt>
<totfact> 0.12965353E+06</totfact>
</mgrwt>
</event>
<event>
 4    1  0.4710515E-007  0.2002043E+02  0.7818608E-02  0.1744922E+00
         -4   -1    0    0    0  501 -0.00000000000E+00  0.00000000000E+00  0.17783878278E+01  0.22757555375E+01  0.14200000000E+01 0. -1.
          4   -1    0    0  501    0  0.00000000000E+00 -0.00000000000E+00 -0.48924163863E+02  0.48944766929E+02  0.14200000000E+01 0.  1.
        -13    1    1    2    0    0  0.22706054474E+01  0.97431676701E+01 -0.22730967803E+02  0.24835318300E+02  0.10570000000E+00 0. -1.
         13    1    1    2    0    0 -0.22706054474E+01 -0.97431676701E+01 -0.24414808233E+02  0.26385204166E+02  0.10570000000E+00 0.  1.
<mgrwt>
<rscale>  0 0.20020433E+02</rscale>
<asrwt>0</asrwt>
<pdfrwt beam="2">  1        4 0.75666374E-02 0.20020433E+02</pdfrwt>
<pdfrwt beam="1">  1       -4 0.31344207E-03 0.20020433E+02</pdfrwt>
<totfact> 0.11445593E+06</totfact>
</mgrwt>
</event>
<event>
 5    1  0.4710515E-007  0.2000233E+02  0.7818608E-02  0.1745282E+00
         -4   -1    0    0    0  501 -0.00000000000E+00  0.00000000000E+00  0.71120483517E+02  0.71134658048E+02  0.14200000000E+01 0. -1.
          4   -1    0    0  501    0  0.00000000000E+00 -0.00000000000E+00 -0.10299112957E+01  0.17541713933E+01  0.14200000000E+01 0.  1.
       1023    2    1    2    0    0  0.00000000000E+00  0.00000000000E+00  0.70090572221E+02  0.72888829442E+02  0.20002328442E+02 0.  0.
        -13    1    3    3    0    0  0.87599084029E+00  0.99616535020E+01  0.34677026899E+02  0.36090293259E+02  0.10570000000E+00 0. -1.
         13    1    3    3    0    0 -0.87599084029E+00 -0.99616535020E+01  0.35413545322E+02  0.36798536183E+02  0.10570000000E+00 0.  1.
<mgrwt>
<rscale>  0 0.20002328E+02</rscale>
<asrwt>0</asrwt>
<pdfrwt beam="2">  1        4 0.21525055E-03 0.20002328E+02</pdfrwt>
<pdfrwt beam="1">  1       -4 0.10998416E-01 0.20002328E+02</pdfrwt>
<totfact> 0.10647496E+06</totfact>
</mgrwt>
</event>
<event>
 5    1  0.4710515E-007  0.2000513E+02  0.7818608E-02  0.1745226E+00
          4   -1    0    0  501    0  0.00000000000E+00  0.00000000000E+00  0.89710805703E+02  0.89722043333E+02  0.14200000000E+01 0. -1.
         -4   -1    0    0    0  501 -0.00000000000E+00 -0.00000000000E+00 -0.64728702664E+00  0.15605705671E+01  0.14200000000E+01 0.  1.
       1023    2    1    2    0    0  0.00000000000E+00  0.00000000000E+00  0.89063518677E+02  0.91282613900E+02  0.20005130378E+02 0.  0.
        -13    1    3    3    0    0  0.90460888324E+01  0.42670746994E+01  0.44632581083E+02  0.45739677702E+02  0.10570000000E+00 0.  1.
         13    1    3    3    0    0 -0.90460888324E+01 -0.42670746994E+01  0.44430937594E+02  0.45542936199E+02  0.10570000000E+00 0. -1.
<mgrwt>
<rscale>  0 0.20005130E+02</rscale>
<asrwt>0</asrwt>
<pdfrwt beam="1">  1        4 0.13872778E-01 0.20005130E+02</pdfrwt>
<pdfrwt beam="2">  1       -4 0.17069965E-03 0.20005130E+02</pdfrwt>
<totfact> 0.10051660E+06</totfact>
</mgrwt>
</event>
<event>
 5    1  0.4710515E-007  0.2000312E+02  0.7818608E-02  0.1745266E+00
          4   -1    0    0  501    0  0.00000000000E+00  0.00000000000E+00  0.12626034032E+02  0.12705634001E+02  0.14200000000E+01 0.  1.
         -4   -1    0    0    0  501 -0.00000000000E+00 -0.00000000000E+00 -0.77534401468E+01  0.78824002759E+01  0.14200000000E+01 0. -1.
       1023    2    1    2    0    0  0.00000000000E+00  0.00000000000E+00  0.48725938851E+01  0.20588034277E+02  0.20003124362E+02 0.  0.
        -13    1    3    3    0    0 -0.12597193329E+01 -0.99213435864E+01  0.24476750155E+01  0.10296710000E+02  0.10570000000E+00 0. -1.
         13    1    3    3    0    0  0.12597193329E+01  0.99213435864E+01  0.24249188696E+01  0.10291324277E+02  0.10570000000E+00 0.  1.
<mgrwt>
<rscale>  0 0.20003124E+02</rscale>
<asrwt>0</asrwt>
<pdfrwt beam="1">  1        4 0.19585098E-02 0.20003124E+02</pdfrwt>
<pdfrwt beam="2">  1       -4 0.12088800E-02 0.20003124E+02</pdfrwt>
<totfact> 0.12974976E+06</totfact>
</mgrwt>
</event>
<event>
 5    1  0.4710515E-007  0.2000182E+02  0.7818608E-02  0.1745292E+00
          4   -1    0    0  501    0  0.00000000000E+00  0.00000000000E+00  0.67645657251E+00  0.15728933513E+01  0.14200000000E+01 0.  1.
         -4   -1    0    0    0  501 -0.00000000000E+00 -0.00000000000E+00 -0.88026355052E+02  0.88037807695E+02  0.14200000000E+01 0. -1.
       1023    2    1    2    0    0  0.00000000000E+00  0.00000000000E+00 -0.87349898480E+02  0.89610701046E+02  0.20001824357E+02 0.  0.
        -13    1    3    3    0    0 -0.37714191571E+01  0.92616897491E+01 -0.43372003570E+02  0.44510047918E+02  0.10570000000E+00 0.  1.
         13    1    3    3    0    0  0.37714191571E+01 -0.92616897491E+01 -0.43977894909E+02  0.45100653129E+02  0.10570000000E+00 0. -1.
<mgrwt>
<rscale>  0 0.20001824E+02</rscale>
<asrwt>0</asrwt>
<pdfrwt beam="1">  1        4 0.17390796E-03 0.20001824E+02</pdfrwt>
<pdfrwt beam="2">  1       -4 0.13612348E-01 0.20001824E+02</pdfrwt>
<totfact> 0.10105738E+06</totfact>
</mgrwt>
</event>
<event>
 5    1  0.4710515E-007  0.2000138E+02  0.7818608E-02  0.1745301E+00
          4   -1    0    0  501    0  0.00000000000E+00  0.00000000000E+00  0.10796378026E+03  0.10797311817E+03  0.14200000000E+01 0.  1.
         -4   -1    0    0    0  501 -0.00000000000E+00 -0.00000000000E+00 -0.36721287722E+00  0.14667124112E+01  0.14200000000E+01 0. -1.
       1023    2    1    2    0    0  0.00000000000E+00  0.00000000000E+00  0.10759656738E+03  0.10943983059E+03  0.20001380097E+02 0.  0.
        -13    1    3    3    0    0 -0.31370856153E+01 -0.94953302067E+01  0.53826747830E+02  0.54747900017E+02  0.10570000000E+00 0. -1.
         13    1    3    3    0    0  0.31370856153E+01  0.94953302067E+01  0.53769819555E+02  0.54691930569E+02  0.10570000000E+00 0.  1.
<mgrwt>
<rscale>  0 0.20001380E+02</rscale>
<asrwt>0</asrwt>
<pdfrwt beam="1">  1        4 0.16695093E-01 0.20001380E+02</pdfrwt>
<pdfrwt beam="2">  1       -4 0.14178960E-03 0.20001380E+02</pdfrwt>
<totfact> 0.95389994E+05</totfact>
</mgrwt>
</event>
<event>
 5    1  0.4710515E-007  0.2000662E+02  0.7818608E-02  0.1745197E+00
         -4   -1    0    0    0  501 -0.00000000000E+00  0.00000000000E+00  0.77139718801E+01  0.78435809531E+01  0.14200000000E+01 0.  1.
          4   -1    0    0  501    0  0.00000000000E+00 -0.00000000000E+00 -0.12694474068E+02  0.12773647555E+02  0.14200000000E+01 0. -1.
       1023    2    1    2    0    0  0.00000000000E+00  0.00000000000E+00 -0.49805021877E+01  0.20617228508E+02  0.20006616638E+02 0.  0.
        -13    1    3    3    0    0  0.87551151509E+01 -0.48375277979E+01 -0.25272399830E+01  0.10317549657E+02  0.10570000000E+00 0.  1.
         13    1    3    3    0    0 -0.87551151509E+01  0.48375277979E+01 -0.24532622047E+01  0.10299678851E+02  0.10570000000E+00 0. -1.
<mgrwt>
<rscale>  0 0.20006617E+02</rscale>
<asrwt>0</asrwt>
<pdfrwt beam="2">  1        4 0.19690562E-02 0.20006617E+02</pdfrwt>
<pdfrwt beam="1">  1       -4 0.12028251E-02 0.20006617E+02</pdfrwt>
<totfact> 0.12968630E+06</totfact>
</mgrwt>
</event>
<event>
 5    1  0.4710515E-007  0.2000938E+02  0.7818608E-02  0.1745142E+00
          4   -1    0    0  501    0  0.00000000000E+00  0.00000000000E+00  0.13630094148E+01  0.19682974025E+01  0.14200000000E+01 0.  1.
         -4   -1    0    0    0  501 -0.00000000000E+00 -0.00000000000E+00 -0.59477515230E+02  0.59494463759E+02  0.14200000000E+01 0. -1.
       1023    2    1    2    0    0  0.00000000000E+00  0.00000000000E+00 -0.58114505815E+02  0.61462761161E+02  0.20009378386E+02 0.  0.
        -13    1    3    3    0    0 -0.87523957417E+01  0.48433867581E+01 -0.28624951915E+02  0.30322629687E+02  0.10570000000E+00 0. -1.
         13    1    3    3    0    0  0.87523957417E+01 -0.48433867581E+01 -0.29489553900E+02  0.31140131474E+02  0.10570000000E+00 0.  1.
<mgrwt>
<rscale>  0 0.20009378E+02</rscale>
<asrwt>0</asrwt>
<pdfrwt beam="1">  1        4 0.25755815E-03 0.20009378E+02</pdfrwt>
<pdfrwt beam="2">  1       -4 0.91982496E-02 0.20009378E+02</pdfrwt>
<totfact> 0.11052624E+06</totfact>
</mgrwt>
</event>
<event>
 4    1  0.4710515E-007  0.2005052E+02  0.7818608E-02  0.1744325E+00
          4   -1    0    0  501    0  0.00000000000E+00  0.00000000000E+00  0.13920926315E+02  0.13993162240E+02  0.14200000000E+01 0. -1.
         -4   -1    0    0    0  501 -0.00000000000E+00 -0.00000000000E+00 -0.70579527710E+01  0.71993817316E+01  0.14200000000E+01 0.  1.
        -13    1    1    2    0    0 -0.89883140581E+01 -0.44387859962E+01  0.33831050023E+01  0.10580604079E+02  0.10570000000E+00 0.  1.
         13    1    1    2    0    0  0.89883140581E+01  0.44387859962E+01  0.34798685419E+01  0.10611939893E+02  0.10570000000E+00 0. -1.
<mgrwt>
<rscale>  0 0.20050524E+02</rscale>
<asrwt>0</asrwt>
<pdfrwt beam="1">  1        4 0.21581167E-02 0.20050524E+02</pdfrwt>
<pdfrwt beam="2">  1       -4 0.11022747E-02 0.20050524E+02</pdfrwt>
<totfact> 0.12876931E+06</totfact>
</mgrwt>
</event>
<event>
 5    1  0.4710515E-007  0.2000155E+02  0.7818608E-02  0.1745297E+00
          4   -1    0    0  501    0  0.00000000000E+00  0.00000000000E+00  0.10332993371E+01  0.17561627260E+01  0.14200000000E+01 0. -1.
         -4   -1    0    0    0  501 -0.00000000000E+00 -0.00000000000E+00 -0.70977732703E+02  0.70991935737E+02  0.14200000000E+01 0.  1.
       1023    2    1    2    0    0  0.00000000000E+00  0.00000000000E+00 -0.69944433366E+02  0.72748098463E+02  0.20001551717E+02 0.  0.
        -13    1    3    3    0    0 -0.59573492855E+01 -0.80320097133E+01 -0.34848622190E+02  0.36255217991E+02  0.10570000000E+00 0. -1.
         13    1    3    3    0    0  0.59573492855E+01  0.80320097133E+01 -0.35095811176E+02  0.36492880472E+02  0.10570000000E+00 0.  1.
<mgrwt>
<rscale>  0 0.20001552E+02</rscale>
<asrwt>0</asrwt>
<pdfrwt beam="1">  1        4 0.21566660E-03 0.20001552E+02</pdfrwt>
<pdfrwt beam="2">  1       -4 0.10976346E-01 0.20001552E+02</pdfrwt>
<totfact> 0.10653184E+06</totfact>
</mgrwt>
</event>
<event>
 5    1  0.4710515E-007  0.2000250E+02  0.7818608E-02  0.1745278E+00
         -4   -1    0    0    0  501 -0.00000000000E+00  0.00000000000E+00  0.23143204320E+02  0.23186726940E+02  0.14200000000E+01 0.  1.
          4   -1    0    0  501    0  0.00000000000E+00 -0.00000000000E+00 -0.41563737505E+01  0.43922480296E+01  0.14200000000E+01 0. -1.
       1023    2    1    2    0    0  0.00000000000E+00  0.00000000000E+00  0.18986830569E+02  0.27578974969E+02  0.20002502976E+02 0.  0.
        -13    1    3    3    0    0  0.83671179459E+01  0.54776951505E+01  0.95033533098E+01  0.13796329349E+02  0.10570000000E+00 0.  1.
         13    1    3    3    0    0 -0.83671179459E+01 -0.54776951505E+01  0.94834772593E+01  0.13782645620E+02  0.10570000000E+00 0. -1.
<mgrwt>
<rscale>  0 0.20002503E+02</rscale>
<asrwt>0</asrwt>
<pdfrwt beam="2">  1        4 0.66093418E-03 0.20002503E+02</pdfrwt>
<pdfrwt beam="1">  1       -4 0.35819851E-02 0.20002503E+02</pdfrwt>
<totfact> 0.12580974E+06</totfact>
</mgrwt>
</event>
<event>
 5    1  0.4767593E-007  0.2000134E+02  0.7818608E-02  0.1745301E+00
         -4   -1    0    0    0  501 -0.00000000000E+00  0.00000000000E+00  0.24341524063E+01  0.28180663472E+01  0.14200000000E+01 0.  1.
          4   -1    0    0  501    0  0.00000000000E+00 -0.00000000000E+00 -0.37685980899E+02  0.37712724064E+02  0.14200000000E+01 0. -1.
       1023    2    1    2    0    0  0.00000000000E+00  0.00000000000E+00 -0.35251828493E+02  0.40530790412E+02  0.20001338937E+02 0.  0.
        -13    1    3    3    0    0  0.20770068058E+01  0.97820336295E+01 -0.17608002758E+02  0.20249816612E+02  0.10570000000E+00 0. -1.
         13    1    3    3    0    0 -0.20770068058E+01 -0.97820336295E+01 -0.17643825735E+02  0.20280973800E+02  0.10570000000E+00 0.  1.
<mgrwt>
<rscale>  0 0.20001339E+02</rscale>
<asrwt>0</asrwt>
<pdfrwt beam="2">  1        4 0.58294318E-02 0.20001339E+02</pdfrwt>
<pdfrwt beam="1">  1       -4 0.40607402E-03 0.20001339E+02</pdfrwt>
<totfact> 0.11936358E+06</totfact>
</mgrwt>
</event>
<event>
 4    1  0.4710515E-007  0.2043923E+02  0.7818608E-02  0.1736732E+00
         -4   -1    0    0    0  501 -0.00000000000E+00  0.00000000000E+00  0.20158452568E+02  0.20208404439E+02  0.14200000000E+01 0.  1.
          4   -1    0    0  501    0  0.00000000000E+00 -0.00000000000E+00 -0.50261225104E+01  0.52228639164E+01  0.14200000000E+01 0. -1.
        -13    1    1    2    0    0  0.30368092006E+01  0.97451412803E+01  0.81748736878E+01  0.13077833192E+02  0.10570000000E+00 0. -1.
         13    1    1    2    0    0 -0.30368092006E+01 -0.97451412803E+01  0.69574563702E+01  0.12353435163E+02  0.10570000000E+00 0.  1.
<mgrwt>
<rscale>  0 0.20439227E+02</rscale>
<asrwt>0</asrwt>
<pdfrwt beam="2">  1        4 0.79222601E-03 0.20439227E+02</pdfrwt>
<pdfrwt beam="1">  1       -4 0.31202769E-02 0.20439227E+02</pdfrwt>
<totfact> 0.12149178E+06</totfact>
</mgrwt>
</event>
<event>
 4    1  0.4710515E-007  0.2001479E+02  0.7818608E-02  0.1745034E+00
         -4   -1    0    0    0  501 -0.00000000000E+00  0.00000000000E+00  0.79887025817E+02  0.79899645142E+02  0.14200000000E+01 0. -1.
          4   -1    0    0  501    0  0.00000000000E+00 -0.00000000000E+00 -0.83462205200E+00  0.16471168658E+01  0.14200000000E+01 0.  1.
        -13    1    1    2    0    0 -0.75271855458E+00 -0.99751165221E+01  0.40582826905E+02  0.41797685905E+02  0.10570000000E+00 0. -1.
         13    1    1    2    0    0  0.75271855458E+00  0.99751165221E+01  0.38469576859E+02  0.39749076103E+02  0.10570000000E+00 0.  1.
<mgrwt>
<rscale>  0 0.20014791E+02</rscale>
<asrwt>0</asrwt>
<pdfrwt beam="2">  1        4 0.19187373E-03 0.20014791E+02</pdfrwt>
<pdfrwt beam="1">  1       -4 0.12353781E-01 0.20014791E+02</pdfrwt>
<totfact> 0.10345571E+06</totfact>
</mgrwt>
</event>
<event>
 5    1  0.4710515E-007  0.2000638E+02  0.7818608E-02  0.1745201E+00
          4   -1    0    0  501    0  0.00000000000E+00  0.00000000000E+00  0.91347792385E+02  0.91358828657E+02  0.14200000000E+01 0. -1.
         -4   -1    0    0    0  501 -0.00000000000E+00 -0.00000000000E+00 -0.61937010081E+00  0.15491995745E+01  0.14200000000E+01 0.  1.
       1023    2    1    2    0    0  0.00000000000E+00  0.00000000000E+00  0.90728422284E+02  0.92908028232E+02  0.20006376477E+02 0.  0.
        -13    1    3    3    0    0  0.11344373440E+01 -0.99377280465E+01  0.44969733952E+02  0.46068791291E+02  0.10570000000E+00 0.  1.
         13    1    3    3    0    0 -0.11344373440E+01  0.99377280465E+01  0.45758688332E+02  0.46839236941E+02  0.10570000000E+00 0. -1.
<mgrwt>
<rscale>  0 0.20006376E+02</rscale>
<asrwt>0</asrwt>
<pdfrwt beam="1">  1        4 0.14125883E-01 0.20006376E+02</pdfrwt>
<pdfrwt beam="2">  1       -4 0.16766197E-03 0.20006376E+02</pdfrwt>
<totfact> 0.10001643E+06</totfact>
</mgrwt>
</event>
<event>
 4    1  0.4710515E-007  0.2020321E+02  0.7818608E-02  0.1741317E+00
          4   -1    0    0  501    0  0.00000000000E+00  0.00000000000E+00  0.29328825166E+01  0.32585579412E+01  0.14200000000E+01 0. -1.
         -4   -1    0    0    0  501 -0.00000000000E+00 -0.00000000000E+00 -0.32620473753E+02  0.32651366095E+02  0.14200000000E+01 0.  1.
        -13    1    1    2    0    0 -0.19281823819E+01 -0.98736082818E+01 -0.13229170179E+02  0.16620112633E+02  0.10570000000E+00 0. -1.
         13    1    1    2    0    0  0.19281823819E+01  0.98736082818E+01 -0.16458421057E+02  0.19289811403E+02  0.10570000000E+00 0.  1.
<mgrwt>
<rscale>  0 0.20203207E+02</rscale>
<asrwt>0</asrwt>
<pdfrwt beam="1">  1        4 0.47864101E-03 0.20203207E+02</pdfrwt>
<pdfrwt beam="2">  1       -4 0.50459625E-02 0.20203207E+02</pdfrwt>
<totfact> 0.11910465E+06</totfact>
</mgrwt>
</event>
<event>
 5    1  0.4710515E-007  0.2000353E+02  0.7818608E-02  0.1745258E+00
         -4   -1    0    0    0  501 -0.00000000000E+00  0.00000000000E+00  0.62345658830E+02  0.62361827867E+02  0.14200000000E+01 0. -1.
          4   -1    0    0  501    0  0.00000000000E+00 -0.00000000000E+00 -0.12706876537E+01  0.19055306644E+01  0.14200000000E+01 0.  1.
       1023    2    1    2    0    0  0.00000000000E+00  0.00000000000E+00  0.61074971176E+02  0.64267358531E+02  0.20003531400E+02 0.  0.
        -13    1    3    3    0    0 -0.56281246325E+01 -0.82672099819E+01  0.30409099769E+02  0.32011670825E+02  0.10570000000E+00 0. -1.
         13    1    3    3    0    0  0.56281246325E+01  0.82672099819E+01  0.30665871407E+02  0.32255687707E+02  0.10570000000E+00 0.  1.
<mgrwt>
<rscale>  0 0.20003531E+02</rscale>
<asrwt>0</asrwt>
<pdfrwt beam="2">  1        4 0.24556828E-03 0.20003531E+02</pdfrwt>
<pdfrwt beam="1">  1       -4 0.96417170E-02 0.20003531E+02</pdfrwt>
<totfact> 0.10954112E+06</totfact>
</mgrwt>
</event>
<event>
 5    1  0.4710515E-007  0.2000728E+02  0.7818608E-02  0.1745183E+00
         -4   -1    0    0    0  501 -0.00000000000E+00  0.00000000000E+00  0.78652727845E+01  0.79924286656E+01  0.14200000000E+01 0.  1.
          4   -1    0    0  501    0  0.00000000000E+00 -0.00000000000E+00 -0.12453524965E+02  0.12534220520E+02  0.14200000000E+01 0. -1.
       1023    2    1    2    0    0  0.00000000000E+00  0.00000000000E+00 -0.45882521803E+01  0.20526649186E+02  0.20007280393E+02 0.  0.
        -13    1    3    3    0    0  0.99925286848E+01  0.43837042388E+00 -0.21532796415E+01  0.10231841665E+02  0.10570000000E+00 0. -1.
         13    1    3    3    0    0 -0.99925286848E+01 -0.43837042388E+00 -0.24349725388E+01  0.10294807521E+02  0.10570000000E+00 0.  1.
<mgrwt>
<rscale>  0 0.20007280E+02</rscale>
<asrwt>0</asrwt>
<pdfrwt beam="2">  1        4 0.19319155E-02 0.20007280E+02</pdfrwt>
<pdfrwt beam="1">  1       -4 0.12260305E-02 0.20007280E+02</pdfrwt>
<totfact> 0.12973104E+06</totfact>
</mgrwt>
</event>
<event>
 5    1  0.4710515E-007  0.2000167E+02  0.7818608E-02  0.1745295E+00
         -4   -1    0    0    0  501 -0.00000000000E+00  0.00000000000E+00  0.55602685067E+02  0.55620814329E+02  0.14200000000E+01 0.  1.
          4   -1    0    0  501    0  0.00000000000E+00 -0.00000000000E+00 -0.14971531551E+01  0.20634600965E+01  0.14200000000E+01 0. -1.
       1023    2    1    2    0    0  0.00000000000E+00  0.00000000000E+00  0.54105531912E+02  0.57684274426E+02  0.20001673244E+02 0.  0.
        -13    1    3    3    0    0  0.74915422888E+01  0.66241409815E+01  0.27213624476E+02  0.28993016042E+02  0.10570000000E+00 0.  1.
         13    1    3    3    0    0 -0.74915422888E+01 -0.66241409815E+01  0.26891907436E+02  0.28691258384E+02  0.10570000000E+00 0. -1.
<mgrwt>
<rscale>  0 0.20001673E+02</rscale>
<asrwt>0</asrwt>
<pdfrwt beam="2">  1        4 0.27528789E-03 0.20001673E+02</pdfrwt>
<pdfrwt beam="1">  1       -4 0.85992158E-02 0.20001673E+02</pdfrwt>
<totfact> 0.11206687E+06</totfact>
</mgrwt>
</event>
<event>
 5    1  0.4710515E-007  0.2000188E+02  0.7818608E-02  0.1745291E+00
          4   -1    0    0  501    0  0.00000000000E+00  0.00000000000E+00  0.16898066395E+02  0.16957625066E+02  0.14200000000E+01 0. -1.
         -4   -1    0    0    0  501 -0.00000000000E+00 -0.00000000000E+00 -0.57626410248E+01  0.59350174036E+01  0.14200000000E+01 0.  1.
       1023    2    1    2    0    0  0.00000000000E+00  0.00000000000E+00  0.11135425370E+02  0.22892642470E+02  0.20001884438E+02 0.  0.
        -13    1    3    3    0    0  0.62157660155E+01  0.78339262885E+01  0.55230245362E+01  0.11424584052E+02  0.10570000000E+00 0.  1.
         13    1    3    3    0    0 -0.62157660155E+01 -0.78339262885E+01  0.56124008338E+01  0.11468058417E+02  0.10570000000E+00 0. -1.
<mgrwt>
<rscale>  0 0.20001884E+02</rscale>
<asrwt>0</asrwt>
<pdfrwt beam="1">  1        4 0.26175437E-02 0.20001884E+02</pdfrwt>
<pdfrwt beam="2">  1       -4 0.90440132E-03 0.20001884E+02</pdfrwt>
<totfact> 0.12842259E+06</totfact>
</mgrwt>
</event>
<event>
 5    1  0.4710515E-007  0.2000513E+02  0.7818608E-02  0.1745226E+00
         -4   -1    0    0    0  501 -0.00000000000E+00  0.00000000000E+00  0.67766564933E+00  0.15734137194E+01  0.14200000000E+01 0.  1.
          4   -1    0    0  501    0  0.00000000000E+00 -0.00000000000E+00 -0.87988133301E+02  0.87999590918E+02  0.14200000000E+01 0. -1.
       1023    2    1    2    0    0  0.00000000000E+00  0.00000000000E+00 -0.87310467652E+02  0.89573004638E+02  0.20005134298E+02 0.  0.
        -13    1    3    3    0    0  0.11502894699E+01 -0.99354999875E+01 -0.43416149866E+02  0.44553457414E+02  0.10570000000E+00 0.  1.
         13    1    3    3    0    0 -0.11502894699E+01  0.99354999875E+01 -0.43894317786E+02  0.45019547224E+02  0.10570000000E+00 0. -1.
<mgrwt>
<rscale>  0 0.20005134E+02</rscale>
<asrwt>0</asrwt>
<pdfrwt beam="2">  1        4 0.13606416E-01 0.20005134E+02</pdfrwt>
<pdfrwt beam="1">  1       -4 0.17404138E-03 0.20005134E+02</pdfrwt>
<totfact> 0.10103548E+06</totfact>
</mgrwt>
</event>
<event>
 5    1  0.4710515E-007  0.2000409E+02  0.7818608E-02  0.1745247E+00
         -4   -1    0    0    0  501 -0.00000000000E+00  0.00000000000E+00  0.22121050745E+01  0.26286515289E+01  0.14200000000E+01 0. -1.
          4   -1    0    0  501    0  0.00000000000E+00 -0.00000000000E+00 -0.40902833941E+02  0.40927475177E+02  0.14200000000E+01 0.  1.
       1023    2    1    2    0    0  0.00000000000E+00  0.00000000000E+00 -0.38690728866E+02  0.43556126706E+02  0.20004091417E+02 0.  0.
        -13    1    3    3    0    0  0.95398230264E+01 -0.29998373172E+01 -0.19018770704E+02  0.21487951482E+02  0.10570000000E+00 0.  1.
         13    1    3    3    0    0 -0.95398230264E+01  0.29998373172E+01 -0.19671958162E+02  0.22068175224E+02  0.10570000000E+00 0. -1.
<mgrwt>
<rscale>  0 0.20004091E+02</rscale>
<asrwt>0</asrwt>
<pdfrwt beam="2">  1        4 0.63266807E-02 0.20004091E+02</pdfrwt>
<pdfrwt beam="1">  1       -4 0.37426140E-03 0.20004091E+02</pdfrwt>
<totfact> 0.11795254E+06</totfact>
</mgrwt>
</event>
<event>
 4    1  0.4710515E-007  0.2011530E+02  0.7818608E-02  0.1743045E+00
         -4   -1    0    0    0  501 -0.00000000000E+00  0.00000000000E+00  0.18504700573E+02  0.18559104055E+02  0.14200000000E+01 0. -1.
          4   -1    0    0  501    0  0.00000000000E+00 -0.00000000000E+00 -0.53106700791E+01  0.54972371869E+01  0.14200000000E+01 0.  1.
        -13    1    1    2    0    0  0.84893385055E+01 -0.53730897051E+01  0.71400018552E+01  0.12325979078E+02  0.10570000000E+00 0. -1.
         13    1    1    2    0    0 -0.84893385055E+01  0.53730897051E+01  0.60540286391E+01  0.11730362164E+02  0.10570000000E+00 0.  1.
<mgrwt>
<rscale>  0 0.20115296E+02</rscale>
<asrwt>0</asrwt>
<pdfrwt beam="2">  1        4 0.83556235E-03 0.20115296E+02</pdfrwt>
<pdfrwt beam="1">  1       -4 0.28654133E-02 0.20115296E+02</pdfrwt>
<totfact> 0.12629687E+06</totfact>
</mgrwt>
</event>
<event>
 4    1  0.4710515E-007  0.2003749E+02  0.7818608E-02  0.1744584E+00
          4   -1    0    0  501    0  0.00000000000E+00  0.00000000000E+00  0.69412921159E+01  0.70850501931E+01  0.14200000000E+01 0. -1.
         -4   -1    0    0    0  501 -0.00000000000E+00 -0.00000000000E+00 -0.14132684876E+02  0.14203843909E+02  0.14200000000E+01 0.  1.
        -13    1    1    2    0    0 -0.85761922737E+00 -0.99806491035E+01 -0.37266017169E+01  0.10688666901E+02  0.10570000000E+00 0.  1.
         13    1    1    2    0    0  0.85761922737E+00  0.99806491035E+01 -0.34647910429E+01  0.10600227202E+02  0.10570000000E+00 0. -1.
<mgrwt>
<rscale>  0 0.20037487E+02</rscale>
<asrwt>0</asrwt>
<pdfrwt beam="1">  1        4 0.10844232E-02 0.20037487E+02</pdfrwt>
<pdfrwt beam="2">  1       -4 0.21907913E-02 0.20037487E+02</pdfrwt>
<totfact> 0.12888399E+06</totfact>
</mgrwt>
</event>
<event>
 4    1  0.4710515E-007  0.2001651E+02  0.7818608E-02  0.1745000E+00
         -4   -1    0    0    0  501 -0.00000000000E+00  0.00000000000E+00  0.44908618840E+02  0.44931063265E+02  0.14200000000E+01 0. -1.
          4   -1    0    0  501    0  0.00000000000E+00 -0.00000000000E+00 -0.19789912993E+01  0.24357353228E+01  0.14200000000E+01 0.  1.
        -13    1    1    2    0    0  0.98047190784E+01  0.20031053102E+01  0.21689960685E+02  0.23887455162E+02  0.10570000000E+00 0.  1.
         13    1    1    2    0    0 -0.98047190784E+01 -0.20031053102E+01  0.21239666855E+02  0.23479343426E+02  0.10570000000E+00 0. -1.
<mgrwt>
<rscale>  0 0.20016510E+02</rscale>
<asrwt>0</asrwt>
<pdfrwt beam="2">  1        4 0.34132082E-03 0.20016510E+02</pdfrwt>
<pdfrwt beam="1">  1       -4 0.69458796E-02 0.20016510E+02</pdfrwt>
<totfact> 0.11613040E+06</totfact>
</mgrwt>
</event>
<event>
 5    1  0.4710515E-007  0.2000154E+02  0.7818608E-02  0.1745297E+00
         -4   -1    0    0    0  501 -0.00000000000E+00  0.00000000000E+00  0.31414805083E+02  0.31446881855E+02  0.14200000000E+01 0.  1.
          4   -1    0    0  501    0  0.00000000000E+00 -0.00000000000E+00 -0.29898847705E+01  0.33099563352E+01  0.14200000000E+01 0. -1.
       1023    2    1    2    0    0  0.00000000000E+00  0.00000000000E+00  0.28424920312E+02  0.34756838190E+02  0.20001542596E+02 0.  0.
        -13    1    3    3    0    0  0.48404937539E+01 -0.87506395444E+01  0.14189027117E+02  0.17359255031E+02  0.10570000000E+00 0. -1.
         13    1    3    3    0    0 -0.48404937539E+01  0.87506395444E+01  0.14235893196E+02  0.17397583159E+02  0.10570000000E+00 0.  1.
<mgrwt>
<rscale>  0 0.20001543E+02</rscale>
<asrwt>0</asrwt>
<pdfrwt beam="2">  1        4 0.48707060E-03 0.20001543E+02</pdfrwt>
<pdfrwt beam="1">  1       -4 0.48601353E-02 0.20001543E+02</pdfrwt>
<totfact> 0.12212075E+06</totfact>
</mgrwt>
</event>
<event>
 5    1  0.4791820E-007  0.2000124E+02  0.7818608E-02  0.1745303E+00
          4   -1    0    0  501    0  0.00000000000E+00  0.00000000000E+00  0.84450200904E+01  0.85635719374E+01  0.14200000000E+01 0. -1.
         -4   -1    0    0    0  501 -0.00000000000E+00 -0.00000000000E+00 -0.11598062102E+02  0.11684667069E+02  0.14200000000E+01 0.  1.
       1023    2    1    2    0    0  0.00000000000E+00  0.00000000000E+00 -0.31530420116E+01  0.20248239007E+02  0.20001237685E+02 0.  0.
        -13    1    3    3    0    0 -0.64575605116E+01 -0.76354997452E+01 -0.15928643675E+01  0.10126664481E+02  0.10570000000E+00 0. -1.
         13    1    3    3    0    0  0.64575605116E+01  0.76354997452E+01 -0.15601776441E+01  0.10121574526E+02  0.10570000000E+00 0.  1.
<mgrwt>
<rscale>  0 0.20001238E+02</rscale>
<asrwt>0</asrwt>
<pdfrwt beam="1">  1        4 0.13150152E-02 0.20001238E+02</pdfrwt>
<pdfrwt beam="2">  1       -4 0.18000985E-02 0.20001238E+02</pdfrwt>
<totfact> 0.12997626E+06</totfact>
</mgrwt>
</event>
<event>
 5    1  0.4710515E-007  0.2000163E+02  0.7818608E-02  0.1745296E+00
         -4   -1    0    0    0  501 -0.00000000000E+00  0.00000000000E+00  0.27667190120E+00  0.14467022295E+01  0.14200000000E+01 0.  1.
          4   -1    0    0  501    0  0.00000000000E+00 -0.00000000000E+00 -0.11489294613E+03  0.11490172092E+03  0.14200000000E+01 0. -1.
       1023    2    1    2    0    0  0.00000000000E+00  0.00000000000E+00 -0.11461627423E+03  0.11634842315E+03  0.20001631217E+02 0.  0.
        -13    1    3    3    0    0  0.97048901737E+01 -0.24122457711E+01 -0.57097004723E+02  0.57966222439E+02  0.10570000000E+00 0. -1.
         13    1    3    3    0    0 -0.97048901737E+01  0.24122457711E+01 -0.57519269509E+02  0.58382200714E+02  0.10570000000E+00 0.  1.
<mgrwt>
<rscale>  0 0.20001631E+02</rscale>
<asrwt>0</asrwt>
<pdfrwt beam="2">  1        4 0.17766503E-01 0.20001631E+02</pdfrwt>
<pdfrwt beam="1">  1       -4 0.13324232E-03 0.20001631E+02</pdfrwt>
<totfact> 0.93572442E+05</totfact>
</mgrwt>
</event>
<event>
 5    1  0.4710515E-007  0.2000157E+02  0.7818608E-02  0.1745297E+00
         -4   -1    0    0    0  501 -0.00000000000E+00  0.00000000000E+00  0.88604309640E+01  0.89734963570E+01  0.14200000000E+01 0.  1.
          4   -1    0    0  501    0  0.00000000000E+00 -0.00000000000E+00 -0.11057581133E+02  0.11148385557E+02  0.14200000000E+01 0. -1.
       1023    2    1    2    0    0  0.00000000000E+00  0.00000000000E+00 -0.21971501694E+01  0.20121881914E+02  0.20001566511E+02 0.  0.
        -13    1    3    3    0    0 -0.42643425373E+01  0.90454328572E+01 -0.11031167965E+01  0.10061436876E+02  0.10570000000E+00 0.  1.
         13    1    3    3    0    0  0.42643425373E+01 -0.90454328572E+01 -0.10940333729E+01  0.10060445038E+02  0.10570000000E+00 0. -1.
<mgrwt>
<rscale>  0 0.20001567E+02</rscale>
<asrwt>0</asrwt>
<pdfrwt beam="2">  1        4 0.17168486E-02 0.20001567E+02</pdfrwt>
<pdfrwt beam="1">  1       -4 0.13788255E-02 0.20001567E+02</pdfrwt>
<totfact> 0.13004730E+06</totfact>
</mgrwt>
</event>
<event>
 4    1  0.4710515E-007  0.2001567E+02  0.7818608E-02  0.1745017E+00
         -4   -1    0    0    0  501 -0.00000000000E+00  0.00000000000E+00  0.10847656265E+02  0.10940203217E+02  0.14200000000E+01 0.  1.
          4   -1    0    0  501    0  0.00000000000E+00 -0.00000000000E+00 -0.90456384675E+01  0.91564171642E+01  0.14200000000E+01 0. -1.
        -13    1    1    2    0    0 -0.14849069268E+01  0.98953646361E+01  0.75087720249E+00  0.10034848226E+02  0.10570000000E+00 0.  1.
         13    1    1    2    0    0  0.14849069268E+01 -0.98953646361E+01  0.10511405947E+01  0.10061772155E+02  0.10570000000E+00 0. -1.
<mgrwt>
<rscale>  0 0.20015666E+02</rscale>
<asrwt>0</asrwt>
<pdfrwt beam="2">  1        4 0.14072771E-02 0.20015666E+02</pdfrwt>
<pdfrwt beam="1">  1       -4 0.16845106E-02 0.20015666E+02</pdfrwt>
<totfact> 0.12987529E+06</totfact>
</mgrwt>
</event>
<event>
 5    1  0.4710515E-007  0.2000700E+02  0.7818608E-02  0.1745189E+00
         -4   -1    0    0    0  501 -0.00000000000E+00  0.00000000000E+00  0.32148095544E+02  0.32179441373E+02  0.14200000000E+01 0.  1.
          4   -1    0    0  501    0  0.00000000000E+00 -0.00000000000E+00 -0.29161609250E+01  0.32435157685E+01  0.14200000000E+01 0. -1.
       1023    2    1    2    0    0  0.00000000000E+00  0.00000000000E+00  0.29231934619E+02  0.35422957141E+02  0.20006996054E+02 0.  0.
        -13    1    3    3    0    0  0.18670884481E+01  0.98269266494E+01  0.14499951895E+02  0.17615739669E+02  0.10570000000E+00 0. -1.
         13    1    3    3    0    0 -0.18670884481E+01 -0.98269266494E+01  0.14731982724E+02  0.17807217472E+02  0.10570000000E+00 0.  1.
<mgrwt>
<rscale>  0 0.20006996E+02</rscale>
<asrwt>0</asrwt>
<pdfrwt beam="2">  1        4 0.47623250E-03 0.20006996E+02</pdfrwt>
<pdfrwt beam="1">  1       -4 0.49734533E-02 0.20006996E+02</pdfrwt>
<totfact> 0.12172568E+06</totfact>
</mgrwt>
</event>
<event>
 5    1  0.4710515E-007  0.2000150E+02  0.7818608E-02  0.1745298E+00
          4   -1    0    0  501    0  0.00000000000E+00  0.00000000000E+00  0.10055675236E+01  0.17399902426E+01  0.14200000000E+01 0. -1.
         -4   -1    0    0    0  501 -0.00000000000E+00 -0.00000000000E+00 -0.72112564269E+02  0.72126543834E+02  0.14200000000E+01 0.  1.
       1023    2    1    2    0    0  0.00000000000E+00  0.00000000000E+00 -0.71106996746E+02  0.73866534077E+02  0.20001496703E+02 0.  0.
        -13    1    3    3    0    0  0.94900356485E+01 -0.31528947558E+01 -0.35729573942E+02  0.37102764702E+02  0.10570000000E+00 0. -1.
         13    1    3    3    0    0 -0.94900356485E+01  0.31528947558E+01 -0.35377422803E+02  0.36763769375E+02  0.10570000000E+00 0.  1.
<mgrwt>
<rscale>  0 0.20001497E+02</rscale>
<asrwt>0</asrwt>
<pdfrwt beam="1">  1        4 0.21227216E-03 0.20001497E+02</pdfrwt>
<pdfrwt beam="2">  1       -4 0.11151807E-01 0.20001497E+02</pdfrwt>
<totfact> 0.10614773E+06</totfact>
</mgrwt>
</event>
<event>
 5    1  0.6094038E-007  0.2000124E+02  0.7818608E-02  0.1745304E+00
         -4   -1    0    0    0  501 -0.00000000000E+00  0.00000000000E+00  0.12212703532E+02  0.12294979771E+02  0.14200000000E+01 0. -1.
          4   -1    0    0  501    0  0.00000000000E+00 -0.00000000000E+00 -0.80168344909E+01  0.81416236252E+01  0.14200000000E+01 0.  1.
       1023    2    1    2    0    0  0.00000000000E+00  0.00000000000E+00  0.41958690415E+01  0.20436603396E+02  0.20001235996E+02 0.  0.
        -13    1    3    3    0    0 -0.99843151548E+01  0.56056200918E+00  0.21185978487E+01  0.10222544116E+02  0.10570000000E+00 0. -1.
         13    1    3    3    0    0  0.99843151548E+01 -0.56056200918E+00  0.20772711928E+01  0.10214059280E+02  0.10570000000E+00 0.  1.
<mgrwt>
<rscale>  0 0.20001236E+02</rscale>
<asrwt>0</asrwt>
<pdfrwt beam="2">  1        4 0.12492873E-02 0.20001236E+02</pdfrwt>
<pdfrwt beam="1">  1       -4 0.18948056E-02 0.20001236E+02</pdfrwt>
<totfact> 0.12986440E+06</totfact>
</mgrwt>
</event>
<event>
 5    1  0.4710515E-007  0.2000389E+02  0.7818608E-02  0.1745251E+00
         -4   -1    0    0    0  501 -0.00000000000E+00  0.00000000000E+00  0.26088475449E+01  0.29702669093E+01  0.14200000000E+01 0. -1.
          4   -1    0    0  501    0  0.00000000000E+00 -0.00000000000E+00 -0.35485379992E+02  0.35513780328E+02  0.14200000000E+01 0.  1.
       1023    2    1    2    0    0  0.00000000000E+00  0.00000000000E+00 -0.32876532447E+02  0.38484047237E+02  0.20003887273E+02 0.  0.
        -13    1    3    3    0    0 -0.61254222187E+01 -0.79044947727E+01 -0.16128840416E+02  0.18977684280E+02  0.10570000000E+00 0. -1.
         13    1    3    3    0    0  0.61254222187E+01  0.79044947727E+01 -0.16747692031E+02  0.19506362958E+02  0.10570000000E+00 0.  1.
<mgrwt>
<rscale>  0 0.20003887E+02</rscale>
<asrwt>0</asrwt>
<pdfrwt beam="2">  1        4 0.54892750E-02 0.20003887E+02</pdfrwt>
<pdfrwt beam="1">  1       -4 0.43134732E-03 0.20003887E+02</pdfrwt>
<totfact> 0.12029026E+06</totfact>
</mgrwt>
</event>
<event>
 5    1  0.4710515E-007  0.2000434E+02  0.7818608E-02  0.1745242E+00
         -4   -1    0    0    0  501 -0.00000000000E+00  0.00000000000E+00  0.82699334302E+01  0.83909593575E+01  0.14200000000E+01 0. -1.
          4   -1    0    0  501    0  0.00000000000E+00 -0.00000000000E+00 -0.11845627555E+02  0.11930435540E+02  0.14200000000E+01 0.  1.
       1023    2    1    2    0    0  0.00000000000E+00  0.00000000000E+00 -0.35756941247E+01  0.20321394897E+02  0.20004337082E+02 0.  0.
        -13    1    3    3    0    0  0.80052933178E+01 -0.59944647307E+01 -0.19075041383E+01  0.10181751963E+02  0.10570000000E+00 0.  1.
         13    1    3    3    0    0 -0.80052933178E+01  0.59944647307E+01 -0.16681899864E+01  0.10139642934E+02  0.10570000000E+00 0. -1.
<mgrwt>
<rscale>  0 0.20004337E+02</rscale>
<asrwt>0</asrwt>
<pdfrwt beam="2">  1        4 0.18382376E-02 0.20004337E+02</pdfrwt>
<pdfrwt beam="1">  1       -4 0.12881308E-02 0.20004337E+02</pdfrwt>
<totfact> 0.12989166E+06</totfact>
</mgrwt>
</event>
<event>
 5    1  0.4710515E-007  0.2001186E+02  0.7818608E-02  0.1745092E+00
         -4   -1    0    0    0  501 -0.00000000000E+00  0.00000000000E+00  0.87059276713E+01  0.88209736775E+01  0.14200000000E+01 0.  1.
          4   -1    0    0  501    0  0.00000000000E+00 -0.00000000000E+00 -0.11264649573E+02  0.11353798043E+02  0.14200000000E+01 0. -1.
       1023    2    1    2    0    0  0.00000000000E+00  0.00000000000E+00 -0.25587219018E+01  0.20174771721E+02  0.20011855391E+02 0.  0.
        -13    1    3    3    0    0  0.38623068976E+01  0.92298214688E+01 -0.12592575711E+01  0.10084836193E+02  0.10570000000E+00 0. -1.
         13    1    3    3    0    0 -0.38623068976E+01 -0.92298214688E+01 -0.12994643307E+01  0.10089935528E+02  0.10570000000E+00 0.  1.
<mgrwt>
<rscale>  0 0.20011855E+02</rscale>
<asrwt>0</asrwt>
<pdfrwt beam="2">  1        4 0.17487303E-02 0.20011855E+02</pdfrwt>
<pdfrwt beam="1">  1       -4 0.13550808E-02 0.20011855E+02</pdfrwt>
<totfact> 0.12987928E+06</totfact>
</mgrwt>
</event>
<event>
 4    1  0.4710515E-007  0.2263766E+02  0.7818608E-02  0.1697452E+00
          4   -1    0    0  501    0  0.00000000000E+00  0.00000000000E+00  0.15734800597E+01  0.21194903864E+01  0.14200000000E+01 0.  1.
         -4   -1    0    0    0  501 -0.00000000000E+00 -0.00000000000E+00 -0.68829242137E+02  0.68843888423E+02  0.14200000000E+01 0. -1.
        -13    1    1    2    0    0 -0.83532167000E+01  0.75669173943E+01 -0.36870883468E+02  0.38555255002E+02  0.10570000000E+00 0. -1.
         13    1    1    2    0    0  0.83532167000E+01 -0.75669173943E+01 -0.30384878610E+02  0.32408123807E+02  0.10570000000E+00 0.  1.
<mgrwt>
<rscale>  0 0.22637659E+02</rscale>
<asrwt>0</asrwt>
<pdfrwt beam="1">  1        4 0.28520134E-03 0.22637659E+02</pdfrwt>
<pdfrwt beam="2">  1       -4 0.10632240E-01 0.22637659E+02</pdfrwt>
<totfact> 0.83142479E+05</totfact>
</mgrwt>
</event>
<event>
 5    1  0.4710515E-007  0.2000209E+02  0.7818608E-02  0.1745286E+00
          4   -1    0    0  501    0  0.00000000000E+00  0.00000000000E+00  0.40390798007E+00  0.14763270831E+01  0.14200000000E+01 0.  1.
         -4   -1    0    0    0  501 -0.00000000000E+00 -0.00000000000E+00 -0.10531201603E+03  0.10532158905E+03  0.14200000000E+01 0. -1.
       1023    2    1    2    0    0  0.00000000000E+00  0.00000000000E+00 -0.10490810805E+03  0.10679791613E+03  0.20002093792E+02 0.  0.
        -13    1    3    3    0    0 -0.99241451732E+01 -0.12306222617E+01 -0.52017730156E+02  0.52970355027E+02  0.10570000000E+00 0.  1.
         13    1    3    3    0    0  0.99241451732E+01  0.12306222617E+01 -0.52890377892E+02  0.53827561106E+02  0.10570000000E+00 0. -1.
<mgrwt>
<rscale>  0 0.20002094E+02</rscale>
<asrwt>0</asrwt>
<pdfrwt beam="1">  1        4 0.14536994E-03 0.20002094E+02</pdfrwt>
<pdfrwt beam="2">  1       -4 0.16285069E-01 0.20002094E+02</pdfrwt>
<totfact> 0.96097992E+05</totfact>
</mgrwt>
</event>
<event>
 4    1  0.4710515E-007  0.2004944E+02  0.7818608E-02  0.1744347E+00
          4   -1    0    0  501    0  0.00000000000E+00  0.00000000000E+00  0.31568461963E+02  0.31600382762E+02  0.14200000000E+01 0. -1.
         -4   -1    0    0    0  501 -0.00000000000E+00 -0.00000000000E+00 -0.29897467797E+01  0.33098316886E+01  0.14200000000E+01 0.  1.
        -13    1    1    2    0    0  0.55476763772E+01  0.83438116272E+01  0.13772979911E+02  0.17032382505E+02  0.10570000000E+00 0.  1.
         13    1    1    2    0    0 -0.55476763772E+01 -0.83438116272E+01  0.14805735272E+02  0.17877831946E+02  0.10570000000E+00 0. -1.
<mgrwt>
<rscale>  0 0.20049442E+02</rscale>
<asrwt>0</asrwt>
<pdfrwt beam="1">  1        4 0.48837641E-02 0.20049442E+02</pdfrwt>
<pdfrwt beam="2">  1       -4 0.48703838E-03 0.20049442E+02</pdfrwt>
<totfact> 0.12145430E+06</totfact>
</mgrwt>
</event>
<event>
 5    1  0.4710515E-007  0.2000416E+02  0.7818608E-02  0.1745245E+00
         -4   -1    0    0    0  501 -0.00000000000E+00  0.00000000000E+00  0.24033297773E+01  0.27914859875E+01  0.14200000000E+01 0.  1.
          4   -1    0    0  501    0  0.00000000000E+00 -0.00000000000E+00 -0.38113575325E+02  0.38140018669E+02  0.14200000000E+01 0. -1.
       1023    2    1    2    0    0  0.00000000000E+00  0.00000000000E+00 -0.35710245548E+02  0.40931504657E+02  0.20004160476E+02 0.  0.
        -13    1    3    3    0    0  0.99519565197E+01 -0.99321299760E+00 -0.17752285272E+02  0.20376032870E+02  0.10570000000E+00 0. -1.
         13    1    3    3    0    0 -0.99519565197E+01  0.99321299760E+00 -0.17957960276E+02  0.20555471787E+02  0.10570000000E+00 0.  1.
<mgrwt>
<rscale>  0 0.20004160E+02</rscale>
<asrwt>0</asrwt>
<pdfrwt beam="2">  1        4 0.58955188E-02 0.20004160E+02</pdfrwt>
<pdfrwt beam="1">  1       -4 0.40163535E-03 0.20004160E+02</pdfrwt>
<totfact> 0.11914457E+06</totfact>
</mgrwt>
</event>
<event>
 4    1  0.4913345E-007  0.2080090E+02  0.7818608E-02  0.1729855E+00
         -4   -1    0    0    0  501 -0.00000000000E+00  0.00000000000E+00  0.75903219047E+02  0.75916500589E+02  0.14200000000E+01 0.  1.
          4   -1    0    0  501    0  0.00000000000E+00 -0.00000000000E+00 -0.10545608372E+01  0.17687562182E+01  0.14200000000E+01 0. -1.
        -13    1    1    2    0    0 -0.86189658543E+01 -0.55355023355E+01  0.44136253423E+02  0.45309473593E+02  0.10570000000E+00 0.  1.
         13    1    1    2    0    0  0.86189658543E+01  0.55355023355E+01  0.30712404786E+02  0.32375783214E+02  0.10570000000E+00 0. -1.
<mgrwt>
<rscale>  0 0.20800901E+02</rscale>
<asrwt>0</asrwt>
<pdfrwt beam="2">  1        4 0.21819984E-03 0.20800901E+02</pdfrwt>
<pdfrwt beam="1">  1       -4 0.11733381E-01 0.20800901E+02</pdfrwt>
<totfact> 0.96876547E+05</totfact>
</mgrwt>
</event>
<event>
 5    1  0.4710515E-007  0.2000349E+02  0.7818608E-02  0.1745259E+00
         -4   -1    0    0    0  501 -0.00000000000E+00  0.00000000000E+00  0.14525699634E+02  0.14594942612E+02  0.14200000000E+01 0.  1.
          4   -1    0    0  501    0  0.00000000000E+00 -0.00000000000E+00 -0.67268343526E+01  0.68750782110E+01  0.14200000000E+01 0. -1.
       1023    2    1    2    0    0  0.00000000000E+00  0.00000000000E+00  0.77988652814E+01  0.21470020823E+02  0.20003487058E+02 0.  0.
        -13    1    3    3    0    0 -0.41499136189E+01  0.90984449548E+01  0.40520452305E+01  0.10790446083E+02  0.10570000000E+00 0.  1.
         13    1    3    3    0    0  0.41499136189E+01 -0.90984449548E+01  0.37468200508E+01  0.10679574740E+02  0.10570000000E+00 0. -1.
<mgrwt>
<rscale>  0 0.20003487E+02</rscale>
<asrwt>0</asrwt>
<pdfrwt beam="2">  1        4 0.10516274E-02 0.20003487E+02</pdfrwt>
<pdfrwt beam="1">  1       -4 0.22514528E-02 0.20003487E+02</pdfrwt>
<totfact> 0.12922523E+06</totfact>
</mgrwt>
</event>
<event>
 5    1  0.4710515E-007  0.2000684E+02  0.7818608E-02  0.1745192E+00
          4   -1    0    0  501    0  0.00000000000E+00  0.00000000000E+00  0.96631354373E+02  0.96641787277E+02  0.14200000000E+01 0. -1.
         -4   -1    0    0    0  501 -0.00000000000E+00 -0.00000000000E+00 -0.53327422095E+00  0.15168326851E+01  0.14200000000E+01 0.  1.
       1023    2    1    2    0    0  0.00000000000E+00  0.00000000000E+00  0.96098080153E+02  0.98158619962E+02  0.20006840426E+02 0.  0.
        -13    1    3    3    0    0  0.99524101069E+01  0.99920027437E+00  0.48498045138E+02  0.49518889556E+02  0.10570000000E+00 0.  1.
         13    1    3    3    0    0 -0.99524101069E+01 -0.99920027437E+00  0.47600035014E+02  0.48639730406E+02  0.10570000000E+00 0. -1.
<mgrwt>
<rscale>  0 0.20006840E+02</rscale>
<asrwt>0</asrwt>
<pdfrwt beam="1">  1        4 0.14942826E-01 0.20006840E+02</pdfrwt>
<pdfrwt beam="2">  1       -4 0.15850303E-03 0.20006840E+02</pdfrwt>
<totfact> 0.98472767E+05</totfact>
</mgrwt>
</event>
<event>
 4    1  0.4710515E-007  0.2003097E+02  0.7818608E-02  0.1744713E+00
         -4   -1    0    0    0  501 -0.00000000000E+00  0.00000000000E+00  0.31713747617E+01  0.34747687519E+01  0.14200000000E+01 0.  1.
          4   -1    0    0  501    0  0.00000000000E+00 -0.00000000000E+00 -0.29864860513E+02  0.29898600192E+02  0.14200000000E+01 0. -1.
        -13    1    1    2    0    0  0.54422835598E+01 -0.84004028478E+01 -0.13908050281E+02  0.17135642779E+02  0.10570000000E+00 0.  1.
         13    1    1    2    0    0 -0.54422835598E+01  0.84004028478E+01 -0.12785435470E+02  0.16237726164E+02  0.10570000000E+00 0. -1.
<mgrwt>
<rscale>  0 0.20030965E+02</rscale>
<asrwt>0</asrwt>
<pdfrwt beam="2">  1        4 0.46205271E-02 0.20030965E+02</pdfrwt>
<pdfrwt beam="1">  1       -4 0.51383719E-03 0.20030965E+02</pdfrwt>
<totfact> 0.12244399E+06</totfact>
</mgrwt>
</event>
<event>
 5    1  0.4710515E-007  0.2000943E+02  0.7818608E-02  0.1745141E+00
         -4   -1    0    0    0  501 -0.00000000000E+00  0.00000000000E+00  0.56045298171E+00  0.15265999950E+01  0.14200000000E+01 0.  1.
          4   -1    0    0  501    0  0.00000000000E+00 -0.00000000000E+00 -0.94945384193E+02  0.94956002336E+02  0.14200000000E+01 0. -1.
       1023    2    1    2    0    0  0.00000000000E+00  0.00000000000E+00 -0.94384931211E+02  0.96482602331E+02  0.20009430595E+02 0.  0.
        -13    1    3    3    0    0 -0.96514782641E+01 -0.26265865862E+01 -0.46314332693E+02  0.47382260130E+02  0.10570000000E+00 0.  1.
         13    1    3    3    0    0  0.96514782641E+01  0.26265865862E+01 -0.48070598518E+02  0.49100342200E+02  0.10570000000E+00 0. -1.
<mgrwt>
<rscale>  0 0.20009431E+02</rscale>
<asrwt>0</asrwt>
<pdfrwt beam="2">  1        4 0.14682111E-01 0.20009431E+02</pdfrwt>
<pdfrwt beam="1">  1       -4 0.16135939E-03 0.20009431E+02</pdfrwt>
<totfact> 0.98932610E+05</totfact>
</mgrwt>
</event>
<event>
 5    1  0.4710515E-007  0.2000842E+02  0.7818608E-02  0.1745161E+00
          4   -1    0    0  501    0  0.00000000000E+00  0.00000000000E+00  0.11539485419E+02  0.11626526727E+02  0.14200000000E+01 0.  1.
         -4   -1    0    0    0  501 -0.00000000000E+00 -0.00000000000E+00 -0.84944110036E+01  0.86122829899E+01  0.14200000000E+01 0. -1.
       1023    2    1    2    0    0  0.00000000000E+00  0.00000000000E+00  0.30450744153E+01  0.20238809717E+02  0.20008421741E+02 0.  0.
        -13    1    3    3    0    0 -0.41909574925E+01  0.90834425265E+01  0.15193683953E+01  0.10118928088E+02  0.10570000000E+00 0. -1.
         13    1    3    3    0    0  0.41909574925E+01 -0.90834425265E+01  0.15257060200E+01  0.10119881629E+02  0.10570000000E+00 0.  1.
<mgrwt>
<rscale>  0 0.20008422E+02</rscale>
<asrwt>0</asrwt>
<pdfrwt beam="1">  1        4 0.17910680E-02 0.20008422E+02</pdfrwt>
<pdfrwt beam="2">  1       -4 0.13225950E-02 0.20008422E+02</pdfrwt>
<totfact> 0.12988663E+06</totfact>
</mgrwt>
</event>
<event>
 5    1  0.4710515E-007  0.2000417E+02  0.7818608E-02  0.1745245E+00
          4   -1    0    0  501    0  0.00000000000E+00  0.00000000000E+00  0.46745052386E+01  0.48854272306E+01  0.14200000000E+01 0. -1.
         -4   -1    0    0    0  501 -0.00000000000E+00 -0.00000000000E+00 -0.20693576630E+02  0.20742239844E+02  0.14200000000E+01 0.  1.
       1023    2    1    2    0    0  0.00000000000E+00  0.00000000000E+00 -0.16019071391E+02  0.25627667074E+02  0.20004166352E+02 0.  0.
        -13    1    3    3    0    0 -0.33806343795E+01  0.94127703958E+01 -0.79589350232E+01  0.12782204603E+02  0.10570000000E+00 0.  1.
         13    1    3    3    0    0  0.33806343795E+01 -0.94127703958E+01 -0.80601363681E+01  0.12845462471E+02  0.10570000000E+00 0. -1.
<mgrwt>
<rscale>  0 0.20004166E+02</rscale>
<asrwt>0</asrwt>
<pdfrwt beam="1">  1        4 0.73912275E-03 0.20004166E+02</pdfrwt>
<pdfrwt beam="2">  1       -4 0.32035952E-02 0.20004166E+02</pdfrwt>
<totfact> 0.12685336E+06</totfact>
</mgrwt>
</event>
<event>
 5    1  0.4710515E-007  0.2000154E+02  0.7818608E-02  0.1745297E+00
          4   -1    0    0  501    0  0.00000000000E+00  0.00000000000E+00  0.90769717646E+02  0.90780824195E+02  0.14200000000E+01 0.  1.
         -4   -1    0    0    0  501 -0.00000000000E+00 -0.00000000000E+00 -0.62845766775E+00  0.15528551253E+01  0.14200000000E+01 0. -1.
       1023    2    1    2    0    0  0.00000000000E+00  0.00000000000E+00  0.90141259978E+02  0.92333679320E+02  0.20001539600E+02 0.  0.
        -13    1    3    3    0    0  0.97385658436E+01  0.22725430650E+01  0.45118477124E+02  0.46213550688E+02  0.10570000000E+00 0. -1.
         13    1    3    3    0    0 -0.97385658436E+01 -0.22725430650E+01  0.45022782854E+02  0.46120128632E+02  0.10570000000E+00 0.  1.
<mgrwt>
<rscale>  0 0.20001540E+02</rscale>
<asrwt>0</asrwt>
<pdfrwt beam="1">  1        4 0.14036542E-01 0.20001540E+02</pdfrwt>
<pdfrwt beam="2">  1       -4 0.16864754E-03 0.20001540E+02</pdfrwt>
<totfact> 0.10023652E+06</totfact>
</mgrwt>
</event>
<event>
 4    1  0.4710515E-007  0.2002552E+02  0.7818608E-02  0.1744821E+00
         -4   -1    0    0    0  501 -0.00000000000E+00  0.00000000000E+00  0.74582715311E+02  0.74596231964E+02  0.14200000000E+01 0. -1.
          4   -1    0    0  501    0  0.00000000000E+00 -0.00000000000E+00 -0.95167696338E+00  0.17094118996E+01  0.14200000000E+01 0.  1.
        -13    1    1    2    0    0 -0.46474710063E+01 -0.88648962907E+01  0.37739684039E+02  0.39044593696E+02  0.10570000000E+00 0.  1.
         13    1    1    2    0    0  0.46474710063E+01  0.88648962907E+01  0.35891354309E+02  0.37261050168E+02  0.10570000000E+00 0. -1.
<mgrwt>
<rscale>  0 0.20025521E+02</rscale>
<asrwt>0</asrwt>
<pdfrwt beam="2">  1        4 0.20573882E-03 0.20025521E+02</pdfrwt>
<pdfrwt beam="1">  1       -4 0.11533594E-01 0.20025521E+02</pdfrwt>
<totfact> 0.10506720E+06</totfact>
</mgrwt>
</event>
<event>
 5    1  0.4710515E-007  0.2000213E+02  0.7818608E-02  0.1745286E+00
          4   -1    0    0  501    0  0.00000000000E+00  0.00000000000E+00  0.87977937754E+01  0.89116539046E+01  0.14200000000E+01 0.  1.
         -4   -1    0    0    0  501 -0.00000000000E+00 -0.00000000000E+00 -0.11136579602E+02  0.11226745086E+02  0.14200000000E+01 0. -1.
       1023    2    1    2    0    0  0.00000000000E+00  0.00000000000E+00 -0.23387858265E+01  0.20138398991E+02  0.20002129756E+02 0.  0.
        -13    1    3    3    0    0  0.90333501044E+01  0.42899787894E+01 -0.12391039125E+01  0.10077295427E+02  0.10570000000E+00 0.  1.
         13    1    3    3    0    0 -0.90333501044E+01 -0.42899787894E+01 -0.10996819140E+01  0.10061103564E+02  0.10570000000E+00 0. -1.
<mgrwt>
<rscale>  0 0.20002130E+02</rscale>
<asrwt>0</asrwt>
<pdfrwt beam="1">  1        4 0.13692010E-02 0.20002130E+02</pdfrwt>
<pdfrwt beam="2">  1       -4 0.17290142E-02 0.20002130E+02</pdfrwt>
<totfact> 0.13002994E+06</totfact>
</mgrwt>
</event>
<event>
 5    1  0.4871588E-007  0.2000513E+02  0.7818608E-02  0.1745226E+00
          4   -1    0    0  501    0  0.00000000000E+00  0.00000000000E+00  0.79476243907E+01  0.80734833533E+01  0.14200000000E+01 0. -1.
         -4   -1    0    0    0  501 -0.00000000000E+00 -0.00000000000E+00 -0.12322980401E+02  0.12404525222E+02  0.14200000000E+01 0.  1.
       1023    2    1    2    0    0  0.00000000000E+00  0.00000000000E+00 -0.43753560106E+01  0.20478008575E+02  0.20005126717E+02 0.  0.
        -13    1    3    3    0    0 -0.99947381679E+01  0.38051201772E+00 -0.21643172377E+01  0.10234012998E+02  0.10570000000E+00 0.  1.
         13    1    3    3    0    0  0.99947381679E+01 -0.38051201772E+00 -0.22110387730E+01  0.10243995577E+02  0.10570000000E+00 0. -1.
<mgrwt>
<rscale>  0 0.20005127E+02</rscale>
<asrwt>0</asrwt>
<pdfrwt beam="1">  1        4 0.12386656E-02 0.20005127E+02</pdfrwt>
<pdfrwt beam="2">  1       -4 0.19117973E-02 0.20005127E+02</pdfrwt>
<totfact> 0.12978833E+06</totfact>
</mgrwt>
</event>
<event>
 5    1  0.4972774E-007  0.2000405E+02  0.7818608E-02  0.1745248E+00
          4   -1    0    0  501    0  0.00000000000E+00  0.00000000000E+00  0.86995603499E+01  0.88146894603E+01  0.14200000000E+01 0. -1.
         -4   -1    0    0    0  501 -0.00000000000E+00 -0.00000000000E+00 -0.11263895180E+02  0.11353049574E+02  0.14200000000E+01 0.  1.
       1023    2    1    2    0    0  0.00000000000E+00  0.00000000000E+00 -0.25643348301E+01  0.20167739034E+02  0.20004046706E+02 0.  0.
        -13    1    3    3    0    0 -0.76149071446E+01 -0.64836012303E+01 -0.12080612897E+01  0.10074446898E+02  0.10570000000E+00 0.  1.
         13    1    3    3    0    0  0.76149071446E+01  0.64836012303E+01 -0.13562735403E+01  0.10093292136E+02  0.10570000000E+00 0. -1.
<mgrwt>
<rscale>  0 0.20004047E+02</rscale>
<asrwt>0</asrwt>
<pdfrwt beam="1">  1        4 0.13541080E-02 0.20004047E+02</pdfrwt>
<pdfrwt beam="2">  1       -4 0.17486211E-02 0.20004047E+02</pdfrwt>
<totfact> 0.12998699E+06</totfact>
</mgrwt>
</event>
<event>
 5    1  0.4710515E-007  0.2000361E+02  0.7818608E-02  0.1745256E+00
          4   -1    0    0  501    0  0.00000000000E+00  0.00000000000E+00  0.26723229861E+01  0.30261708712E+01  0.14200000000E+01 0.  1.
         -4   -1    0    0    0  501 -0.00000000000E+00 -0.00000000000E+00 -0.34740417895E+02  0.34769426736E+02  0.14200000000E+01 0. -1.
       1023    2    1    2    0    0  0.00000000000E+00  0.00000000000E+00 -0.32068094909E+02  0.37795597607E+02  0.20003611858E+02 0.  0.
        -13    1    3    3    0    0  0.59502587281E+01 -0.80377644456E+01 -0.15812788311E+02  0.18710069024E+02  0.10570000000E+00 0.  1.
         13    1    3    3    0    0 -0.59502587281E+01  0.80377644456E+01 -0.16255306598E+02  0.19085528583E+02  0.10570000000E+00 0. -1.
<mgrwt>
<rscale>  0 0.20003612E+02</rscale>
<asrwt>0</asrwt>
<pdfrwt beam="1">  1        4 0.44057716E-03 0.20003612E+02</pdfrwt>
<pdfrwt beam="2">  1       -4 0.53741299E-02 0.20003612E+02</pdfrwt>
<totfact> 0.12062061E+06</totfact>
</mgrwt>
</event>
<event>
 5    1  0.4710515E-007  0.2000206E+02  0.7818608E-02  0.1745287E+00
          4   -1    0    0  501    0  0.00000000000E+00  0.00000000000E+00  0.92737542944E+02  0.92748413848E+02  0.14200000000E+01 0.  1.
         -4   -1    0    0    0  501 -0.00000000000E+00 -0.00000000000E+00 -0.59537987933E+00  0.15397653070E+01  0.14200000000E+01 0. -1.
       1023    2    1    2    0    0  0.00000000000E+00  0.00000000000E+00  0.92142163065E+02  0.94288179155E+02  0.20002062746E+02 0.  0.
        -13    1    3    3    0    0  0.49794434023E+01 -0.86723366527E+01  0.45731927296E+02  0.46812654553E+02  0.10570000000E+00 0.  1.
         13    1    3    3    0    0 -0.49794434023E+01  0.86723366527E+01  0.46410235769E+02  0.47475524602E+02  0.10570000000E+00 0. -1.
<mgrwt>
<rscale>  0 0.20002063E+02</rscale>
<asrwt>0</asrwt>
<pdfrwt beam="1">  1        4 0.14340800E-01 0.20002063E+02</pdfrwt>
<pdfrwt beam="2">  1       -4 0.16507811E-03 0.20002063E+02</pdfrwt>
<totfact> 0.99649482E+05</totfact>
</mgrwt>
</event>
<event>
 5    1  0.4710515E-007  0.2000139E+02  0.7818608E-02  0.1745300E+00
         -4   -1    0    0    0  501 -0.00000000000E+00  0.00000000000E+00  0.11701773006E+03  0.11702634553E+03  0.14200000000E+01 0. -1.
          4   -1    0    0  501    0  0.00000000000E+00 -0.00000000000E+00 -0.25017314439E+00  0.14418691349E+01  0.14200000000E+01 0.  1.
       1023    2    1    2    0    0  0.00000000000E+00  0.00000000000E+00  0.11676755691E+03  0.11846821467E+03  0.20001388405E+02 0.  0.
        -13    1    3    3    0    0 -0.99253815206E+01 -0.12198080176E+01  0.58619370606E+02  0.59466317464E+02  0.10570000000E+00 0.  1.
         13    1    3    3    0    0  0.99253815206E+01  0.12198080176E+01  0.58148186309E+02  0.59001897202E+02  0.10570000000E+00 0. -1.
<mgrwt>
<rscale>  0 0.20001388E+02</rscale>
<asrwt>0</asrwt>
<pdfrwt beam="2">  1        4 0.13081979E-03 0.20001388E+02</pdfrwt>
<pdfrwt beam="1">  1       -4 0.18095065E-01 0.20001388E+02</pdfrwt>
<totfact> 0.93032715E+05</totfact>
</mgrwt>
</event>
<event>
 5    1  0.4710515E-007  0.2000195E+02  0.7818608E-02  0.1745289E+00
         -4   -1    0    0    0  501 -0.00000000000E+00  0.00000000000E+00  0.54886975551E+02  0.54905341135E+02  0.14200000000E+01 0. -1.
          4   -1    0    0  501    0  0.00000000000E+00 -0.00000000000E+00 -0.15240625548E+01  0.20830666507E+01  0.14200000000E+01 0.  1.
       1023    2    1    2    0    0  0.00000000000E+00  0.00000000000E+00  0.53362912996E+02  0.56988407786E+02  0.20001953367E+02 0.  0.
        -13    1    3    3    0    0  0.57881376694E+01 -0.81548621916E+01  0.26500203368E+02  0.28324481744E+02  0.10570000000E+00 0.  1.
         13    1    3    3    0    0 -0.57881376694E+01  0.81548621916E+01  0.26862709628E+02  0.28663926041E+02  0.10570000000E+00 0. -1.
<mgrwt>
<rscale>  0 0.20001953E+02</rscale>
<asrwt>0</asrwt>
<pdfrwt beam="2">  1        4 0.27888421E-03 0.20001953E+02</pdfrwt>
<pdfrwt beam="1">  1       -4 0.84885633E-02 0.20001953E+02</pdfrwt>
<totfact> 0.11233683E+06</totfact>
</mgrwt>
</event>
<event>
 5    1  0.4710515E-007  0.2000439E+02  0.7818608E-02  0.1745241E+00
         -4   -1    0    0    0  501 -0.00000000000E+00  0.00000000000E+00  0.15306783081E+01  0.20879118954E+01  0.14200000000E+01 0.  1.
          4   -1    0    0  501    0  0.00000000000E+00 -0.00000000000E+00 -0.54726552132E+02  0.54744971534E+02  0.14200000000E+01 0. -1.
       1023    2    1    2    0    0  0.00000000000E+00  0.00000000000E+00 -0.53195873824E+02  0.56832883429E+02  0.20004390693E+02 0.  0.
        -13    1    3    3    0    0 -0.99695283747E+01 -0.78262837857E+00 -0.27079538652E+02  0.28867223442E+02  0.10570000000E+00 0.  1.
         13    1    3    3    0    0  0.99695283747E+01  0.78262837857E+00 -0.26116335172E+02  0.27965659987E+02  0.10570000000E+00 0. -1.
<mgrwt>
<rscale>  0 0.20004391E+02</rscale>
<asrwt>0</asrwt>
<pdfrwt beam="2">  1        4 0.84637493E-02 0.20004391E+02</pdfrwt>
<pdfrwt beam="1">  1       -4 0.27977001E-03 0.20004391E+02</pdfrwt>
<totfact> 0.11237054E+06</totfact>
</mgrwt>
</event>
<event>
 5    1  0.4710515E-007  0.2000746E+02  0.7818608E-02  0.1745180E+00
         -4   -1    0    0    0  501 -0.00000000000E+00  0.00000000000E+00  0.16712230862E+02  0.16772449445E+02  0.14200000000E+01 0. -1.
          4   -1    0    0  501    0  0.00000000000E+00 -0.00000000000E+00 -0.58317667697E+01  0.60021582499E+01  0.14200000000E+01 0.  1.
       1023    2    1    2    0    0  0.00000000000E+00  0.00000000000E+00  0.10880464092E+02  0.22774607695E+02  0.20007455030E+02 0.  0.
        -13    1    3    3    0    0  0.45978138571E+01  0.88829024671E+01  0.52894625461E+01  0.11315274412E+02  0.10570000000E+00 0.  1.
         13    1    3    3    0    0 -0.45978138571E+01 -0.88829024671E+01  0.55910015462E+01  0.11459333283E+02  0.10570000000E+00 0. -1.
<mgrwt>
<rscale>  0 0.20007455E+02</rscale>
<asrwt>0</asrwt>
<pdfrwt beam="2">  1        4 0.91493414E-03 0.20007455E+02</pdfrwt>
<pdfrwt beam="1">  1       -4 0.25888516E-02 0.20007455E+02</pdfrwt>
<totfact> 0.12841737E+06</totfact>
</mgrwt>
</event>
<event>
 4    1  0.4710515E-007  0.2001538E+02  0.7818608E-02  0.1745022E+00
         -4   -1    0    0    0  501 -0.00000000000E+00  0.00000000000E+00  0.55555581187E+02  0.55573725816E+02  0.14200000000E+01 0.  1.
          4   -1    0    0  501    0  0.00000000000E+00 -0.00000000000E+00 -0.15017612726E+01  0.20668059705E+01  0.14200000000E+01 0. -1.
        -13    1    1    2    0    0 -0.94766150064E+01  0.32142516489E+01  0.27231481630E+02  0.29012107988E+02  0.10570000000E+00 0. -1.
         13    1    1    2    0    0  0.94766150064E+01 -0.32142516489E+01  0.26822338285E+02  0.28628423799E+02  0.10570000000E+00 0.  1.
<mgrwt>
<rscale>  0 0.20015381E+02</rscale>
<asrwt>0</asrwt>
<pdfrwt beam="2">  1        4 0.27590088E-03 0.20015381E+02</pdfrwt>
<pdfrwt beam="1">  1       -4 0.85918742E-02 0.20015381E+02</pdfrwt>
<totfact> 0.11192950E+06</totfact>
</mgrwt>
</event>
<event>
 5    1  0.4710515E-007  0.2000605E+02  0.7818608E-02  0.1745208E+00
         -4   -1    0    0    0  501 -0.00000000000E+00  0.00000000000E+00  0.45476868980E+02  0.45499033091E+02  0.14200000000E+01 0. -1.
          4   -1    0    0  501    0  0.00000000000E+00 -0.00000000000E+00 -0.19459897891E+01  0.24089990161E+01  0.14200000000E+01 0.  1.
       1023    2    1    2    0    0  0.00000000000E+00  0.00000000000E+00  0.43530879190E+02  0.47908032107E+02  0.20006051516E+02 0.  0.
        -13    1    3    3    0    0 -0.68235525354E+01  0.73117908968E+01  0.21377853150E+02  0.23601841732E+02  0.10570000000E+00 0. -1.
         13    1    3    3    0    0  0.68235525354E+01 -0.73117908968E+01  0.22153026040E+02  0.24306190375E+02  0.10570000000E+00 0.  1.
<mgrwt>
<rscale>  0 0.20006052E+02</rscale>
<asrwt>0</asrwt>
<pdfrwt beam="2">  1        4 0.33670406E-03 0.20006052E+02</pdfrwt>
<pdfrwt beam="1">  1       -4 0.70337627E-02 0.20006052E+02</pdfrwt>
<totfact> 0.11602019E+06</totfact>
</mgrwt>
</event>
<event>
 4    1  0.4710515E-007  0.2001890E+02  0.7818608E-02  0.1744952E+00
         -4   -1    0    0    0  501 -0.00000000000E+00  0.00000000000E+00  0.43801665984E+02  0.43824677329E+02  0.14200000000E+01 0.  1.
          4   -1    0    0  501    0  0.00000000000E+00 -0.00000000000E+00 -0.20409728596E+01  0.24863568154E+01  0.14200000000E+01 0. -1.
        -13    1    1    2    0    0 -0.79436324256E+01  0.60848288689E+01  0.20355424859E+02  0.22682172121E+02  0.10570000000E+00 0.  1.
         13    1    1    2    0    0  0.79436324256E+01 -0.60848288689E+01  0.21405268266E+02  0.23628862023E+02  0.10570000000E+00 0. -1.
<mgrwt>
<rscale>  0 0.20018901E+02</rscale>
<asrwt>0</asrwt>
<pdfrwt beam="2">  1        4 0.35002623E-03 0.20018901E+02</pdfrwt>
<pdfrwt beam="1">  1       -4 0.67747482E-02 0.20018901E+02</pdfrwt>
<totfact> 0.11655962E+06</totfact>
</mgrwt>
</event>
<event>
 5    1  0.4710515E-007  0.2000458E+02  0.7818608E-02  0.1745237E+00
          4   -1    0    0  501    0  0.00000000000E+00  0.00000000000E+00  0.54524728766E+02  0.54543216325E+02  0.14200000000E+01 0. -1.
         -4   -1    0    0    0  501 -0.00000000000E+00 -0.00000000000E+00 -0.15384407256E+01  0.20936092917E+01  0.14200000000E+01 0.  1.
       1023    2    1    2    0    0  0.00000000000E+00  0.00000000000E+00  0.52986288041E+02  0.56636825616E+02  0.20004581864E+02 0.  0.
        -13    1    3    3    0    0  0.65417788744E+01  0.75636893875E+01  0.26986644616E+02  0.28780104728E+02  0.10570000000E+00 0.  1.
         13    1    3    3    0    0 -0.65417788744E+01 -0.75636893875E+01  0.25999643424E+02  0.27856720889E+02  0.10570000000E+00 0. -1.
<mgrwt>
<rscale>  0 0.20004582E+02</rscale>
<asrwt>0</asrwt>
<pdfrwt beam="1">  1        4 0.84325475E-02 0.20004582E+02</pdfrwt>
<pdfrwt beam="2">  1       -4 0.28081057E-03 0.20004582E+02</pdfrwt>
<totfact> 0.11244572E+06</totfact>
</mgrwt>
</event>
<event>
 4    1  0.4710515E-007  0.2007480E+02  0.7818608E-02  0.1743845E+00
         -4   -1    0    0    0  501 -0.00000000000E+00  0.00000000000E+00  0.14007165034E+02  0.14078958495E+02  0.14200000000E+01 0.  1.
          4   -1    0    0  501    0  0.00000000000E+00 -0.00000000000E+00 -0.70313678660E+01  0.71733209929E+01  0.14200000000E+01 0. -1.
        -13    1    1    2    0    0 -0.34488895446E+01 -0.93874081050E+01  0.43861760536E+01  0.10920988183E+02  0.10570000000E+00 0. -1.
         13    1    1    2    0    0  0.34488895446E+01  0.93874081050E+01  0.25896211146E+01  0.10331291305E+02  0.10570000000E+00 0.  1.
<mgrwt>
<rscale>  0 0.20074801E+02</rscale>
<asrwt>0</asrwt>
<pdfrwt beam="2">  1        4 0.10981910E-02 0.20074801E+02</pdfrwt>
<pdfrwt beam="1">  1       -4 0.21713905E-02 0.20074801E+02</pdfrwt>
<totfact> 0.12841672E+06</totfact>
</mgrwt>
</event>
<event>
 5    1  0.4721430E-007  0.2000147E+02  0.7818608E-02  0.1745299E+00
          4   -1    0    0  501    0  0.00000000000E+00  0.00000000000E+00  0.10264128847E+03  0.10265111055E+03  0.14200000000E+01 0. -1.
         -4   -1    0    0    0  501 -0.00000000000E+00 -0.00000000000E+00 -0.44187085265E+00  0.14871616760E+01  0.14200000000E+01 0.  1.
       1023    2    1    2    0    0  0.00000000000E+00  0.00000000000E+00  0.10219941761E+03  0.10413827223E+03  0.20001469509E+02 0.  0.
        -13    1    3    3    0    0  0.27145130132E+01  0.96246424130E+01  0.51280118160E+02  0.52246186592E+02  0.10570000000E+00 0.  1.
         13    1    3    3    0    0 -0.27145130132E+01 -0.96246424130E+01  0.50919299453E+02  0.51892085637E+02  0.10570000000E+00 0. -1.
<mgrwt>
<rscale>  0 0.20001470E+02</rscale>
<asrwt>0</asrwt>
<pdfrwt beam="1">  1        4 0.15872121E-01 0.20001470E+02</pdfrwt>
<pdfrwt beam="2">  1       -4 0.14914275E-03 0.20001470E+02</pdfrwt>
<totfact> 0.96835597E+05</totfact>
</mgrwt>
</event>
<event>
 5    1  0.4710515E-007  0.2000345E+02  0.7818608E-02  0.1745260E+00
         -4   -1    0    0    0  501 -0.00000000000E+00  0.00000000000E+00  0.11347010062E+01  0.18176760914E+01  0.14200000000E+01 0. -1.
          4   -1    0    0  501    0  0.00000000000E+00 -0.00000000000E+00 -0.67073144562E+02  0.67088174229E+02  0.14200000000E+01 0.  1.
       1023    2    1    2    0    0  0.00000000000E+00  0.00000000000E+00 -0.65938443556E+02  0.68905850321E+02  0.20003446450E+02 0.  0.
        -13    1    3    3    0    0  0.97280130357E+01  0.23211355143E+01 -0.33097523687E+02  0.34575701792E+02  0.10570000000E+00 0. -1.
         13    1    3    3    0    0 -0.97280130357E+01 -0.23211355143E+01 -0.32840919868E+02  0.34330148528E+02  0.10570000000E+00 0.  1.
<mgrwt>
<rscale>  0 0.20003446E+02</rscale>
<asrwt>0</asrwt>
<pdfrwt beam="2">  1        4 0.10372636E-01 0.20003446E+02</pdfrwt>
<pdfrwt beam="1">  1       -4 0.22826211E-03 0.20003446E+02</pdfrwt>
<totfact> 0.10785867E+06</totfact>
</mgrwt>
</event>
<event>
 5    1  0.4710515E-007  0.2000630E+02  0.7818608E-02  0.1745203E+00
         -4   -1    0    0    0  501 -0.00000000000E+00  0.00000000000E+00  0.31388143416E+02  0.31420247407E+02  0.14200000000E+01 0. -1.
          4   -1    0    0  501    0  0.00000000000E+00 -0.00000000000E+00 -0.29942851951E+01  0.33139317781E+01  0.14200000000E+01 0.  1.
       1023    2    1    2    0    0  0.00000000000E+00  0.00000000000E+00  0.28393858221E+02  0.34734179185E+02  0.20006299482E+02 0.  0.
        -13    1    3    3    0    0 -0.31876616908E+01  0.94807867277E+01  0.14070198514E+02  0.17263492194E+02  0.10570000000E+00 0. -1.
         13    1    3    3    0    0  0.31876616908E+01 -0.94807867277E+01  0.14323659707E+02  0.17470686991E+02  0.10570000000E+00 0.  1.
<mgrwt>
<rscale>  0 0.20006299E+02</rscale>
<asrwt>0</asrwt>
<pdfrwt beam="2">  1        4 0.48771699E-03 0.20006299E+02</pdfrwt>
<pdfrwt beam="1">  1       -4 0.48560029E-02 0.20006299E+02</pdfrwt>
<totfact> 0.12207306E+06</totfact>
</mgrwt>
</event>
<event>
 5    1  0.4710515E-007  0.2000440E+02  0.7818608E-02  0.1745241E+00
          4   -1    0    0  501    0  0.00000000000E+00  0.00000000000E+00  0.35216492242E+02  0.35245109247E+02  0.14200000000E+01 0.  1.
         -4   -1    0    0    0  501 -0.00000000000E+00 -0.00000000000E+00 -0.26316534759E+01  0.29903177118E+01  0.14200000000E+01 0. -1.
       1023    2    1    2    0    0  0.00000000000E+00  0.00000000000E+00  0.32584838766E+02  0.38235426959E+02  0.20004403448E+02 0.  0.
        -13    1    3    3    0    0  0.56805399958E+01  0.82310789001E+01  0.16515911234E+02  0.19308176788E+02  0.10570000000E+00 0.  1.
         13    1    3    3    0    0 -0.56805399958E+01 -0.82310789001E+01  0.16068927532E+02  0.18927250171E+02  0.10570000000E+00 0. -1.
<mgrwt>
<rscale>  0 0.20004403E+02</rscale>
<asrwt>0</asrwt>
<pdfrwt beam="1">  1        4 0.54477119E-02 0.20004403E+02</pdfrwt>
<pdfrwt beam="2">  1       -4 0.43466070E-03 0.20004403E+02</pdfrwt>
<totfact> 0.12040176E+06</totfact>
</mgrwt>
</event>
<event>
 5    1  0.5188558E-007  0.2000185E+02  0.7818608E-02  0.1745291E+00
          4   -1    0    0  501    0  0.00000000000E+00  0.00000000000E+00  0.33243654136E+02  0.33273967907E+02  0.14200000000E+01 0.  1.
         -4   -1    0    0    0  501 -0.00000000000E+00 -0.00000000000E+00 -0.28075484372E+01  0.31462244401E+01  0.14200000000E+01 0. -1.
       1023    2    1    2    0    0  0.00000000000E+00  0.00000000000E+00  0.30436105698E+02  0.36420192347E+02  0.20001846928E+02 0.  0.
        -13    1    3    3    0    0 -0.32175614480E+01  0.94686081390E+01  0.15204441487E+02  0.18198721251E+02  0.10570000000E+00 0. -1.
         13    1    3    3    0    0  0.32175614480E+01 -0.94686081390E+01  0.15231664211E+02  0.18221471096E+02  0.10570000000E+00 0.  1.
<mgrwt>
<rscale>  0 0.20001847E+02</rscale>
<asrwt>0</asrwt>
<pdfrwt beam="1">  1        4 0.51427923E-02 0.20001847E+02</pdfrwt>
<pdfrwt beam="2">  1       -4 0.46031435E-03 0.20001847E+02</pdfrwt>
<totfact> 0.12130329E+06</totfact>
</mgrwt>
</event>
<event>
 4    1  0.4710515E-007  0.2002970E+02  0.7818608E-02  0.1744738E+00
          4   -1    0    0  501    0  0.00000000000E+00  0.00000000000E+00  0.20027803891E+01  0.24551027039E+01  0.14200000000E+01 0.  1.
         -4   -1    0    0    0  501 -0.00000000000E+00 -0.00000000000E+00 -0.44532898753E+02  0.44555532443E+02  0.14200000000E+01 0. -1.
        -13    1    1    2    0    0  0.33962368468E+00  0.10008029276E+02 -0.21029821024E+02  0.23292499630E+02  0.10570000000E+00 0. -1.
         13    1    1    2    0    0 -0.33962368468E+00 -0.10008029276E+02 -0.21500297339E+02  0.23718135517E+02  0.10570000000E+00 0.  1.
<mgrwt>
<rscale>  0 0.20029699E+02</rscale>
<asrwt>0</asrwt>
<pdfrwt beam="1">  1        4 0.34465517E-03 0.20029699E+02</pdfrwt>
<pdfrwt beam="2">  1       -4 0.68877496E-02 0.20029699E+02</pdfrwt>
<totfact> 0.11612953E+06</totfact>
</mgrwt>
</event>
<event>
 5    1  0.4710515E-007  0.2000220E+02  0.7818608E-02  0.1745284E+00
         -4   -1    0    0    0  501 -0.00000000000E+00  0.00000000000E+00  0.34886609698E+02  0.34915497078E+02  0.14200000000E+01 0.  1.
          4   -1    0    0  501    0  0.00000000000E+00 -0.00000000000E+00 -0.26592198492E+01  0.30146061445E+01  0.14200000000E+01 0. -1.
       1023    2    1    2    0    0  0.00000000000E+00  0.00000000000E+00  0.32227389849E+02  0.37930103223E+02  0.20002201729E+02 0.  0.
        -13    1    3    3    0    0  0.94964940513E+01 -0.31335068357E+01  0.15938027260E+02  0.18815795221E+02  0.10570000000E+00 0.  1.
         13    1    3    3    0    0 -0.94964940513E+01  0.31335068357E+01  0.16289362588E+02  0.19114308002E+02  0.10570000000E+00 0. -1.
<mgrwt>
<rscale>  0 0.20002202E+02</rscale>
<asrwt>0</asrwt>
<pdfrwt beam="2">  1        4 0.43867028E-03 0.20002202E+02</pdfrwt>
<pdfrwt beam="1">  1       -4 0.53967300E-02 0.20002202E+02</pdfrwt>
<totfact> 0.12057374E+06</totfact>
</mgrwt>
</event>
<event>
 5    1  0.5501131E-007  0.2000174E+02  0.7818608E-02  0.1745293E+00
          4   -1    0    0  501    0  0.00000000000E+00  0.00000000000E+00  0.85378110176E+01  0.86550919679E+01  0.14200000000E+01 0. -1.
         -4   -1    0    0    0  501 -0.00000000000E+00 -0.00000000000E+00 -0.11473383118E+02  0.11560922116E+02  0.14200000000E+01 0.  1.
       1023    2    1    2    0    0  0.00000000000E+00  0.00000000000E+00 -0.29355721003E+01  0.20216014084E+02  0.20001740971E+02 0.  0.
        -13    1    3    3    0    0 -0.36152401890E+01  0.93236905056E+01 -0.13958071681E+01  0.10097554972E+02  0.10570000000E+00 0. -1.
         13    1    3    3    0    0  0.36152401890E+01 -0.93236905056E+01 -0.15397649323E+01  0.10118459112E+02  0.10570000000E+00 0.  1.
<mgrwt>
<rscale>  0 0.20001741E+02</rscale>
<asrwt>0</asrwt>
<pdfrwt beam="1">  1        4 0.13292648E-02 0.20001741E+02</pdfrwt>
<pdfrwt beam="2">  1       -4 0.17808912E-02 0.20001741E+02</pdfrwt>
<totfact> 0.12998878E+06</totfact>
</mgrwt>
</event>
<event>
 5    1  0.4710515E-007  0.2000200E+02  0.7818608E-02  0.1745288E+00
          4   -1    0    0  501    0  0.00000000000E+00  0.00000000000E+00  0.53694534795E+01  0.55540463330E+01  0.14200000000E+01 0.  1.
         -4   -1    0    0    0  501 -0.00000000000E+00 -0.00000000000E+00 -0.18099941691E+02  0.18155558081E+02  0.14200000000E+01 0. -1.
       1023    2    1    2    0    0  0.00000000000E+00  0.00000000000E+00 -0.12730488212E+02  0.23709604414E+02  0.20002000184E+02 0.  0.
        -13    1    3    3    0    0  0.87281342425E+01  0.48807627035E+01 -0.64619686362E+01  0.11906736877E+02  0.10570000000E+00 0.  1.
         13    1    3    3    0    0 -0.87281342425E+01 -0.48807627035E+01 -0.62685195758E+01  0.11802867537E+02  0.10570000000E+00 0. -1.
<mgrwt>
<rscale>  0 0.20002000E+02</rscale>
<asrwt>0</asrwt>
<pdfrwt beam="1">  1        4 0.84454741E-03 0.20002000E+02</pdfrwt>
<pdfrwt beam="2">  1       -4 0.28030840E-02 0.20002000E+02</pdfrwt>
<totfact> 0.12795567E+06</totfact>
</mgrwt>
</event>
<event>
 5    1  0.4710515E-007  0.2000770E+02  0.7818608E-02  0.1745175E+00
         -4   -1    0    0    0  501 -0.00000000000E+00  0.00000000000E+00  0.12344714630E+01  0.18815737543E+01  0.14200000000E+01 0. -1.
          4   -1    0    0  501    0  0.00000000000E+00 -0.00000000000E+00 -0.63576657847E+02  0.63592513892E+02  0.14200000000E+01 0.  1.
       1023    2    1    2    0    0  0.00000000000E+00  0.00000000000E+00 -0.62342186384E+02  0.65474087646E+02  0.20007697266E+02 0.  0.
        -13    1    3    3    0    0 -0.86352295424E+01  0.50494961563E+01 -0.31057059122E+02  0.32628464482E+02  0.10570000000E+00 0.  1.
         13    1    3    3    0    0  0.86352295424E+01 -0.50494961563E+01 -0.31285127263E+02  0.32845623164E+02  0.10570000000E+00 0. -1.
<mgrwt>
<rscale>  0 0.20007697E+02</rscale>
<asrwt>0</asrwt>
<pdfrwt beam="2">  1        4 0.98320191E-02 0.20007697E+02</pdfrwt>
<pdfrwt beam="1">  1       -4 0.24091553E-03 0.20007697E+02</pdfrwt>
<totfact> 0.10905129E+06</totfact>
</mgrwt>
</event>
<event>
 4    1  0.4710515E-007  0.2023321E+02  0.7818608E-02  0.1740730E+00
          4   -1    0    0  501    0  0.00000000000E+00  0.00000000000E+00  0.56682178719E+02  0.56699962825E+02  0.14200000000E+01 0.  1.
         -4   -1    0    0    0  501 -0.00000000000E+00 -0.00000000000E+00 -0.15054805262E+01  0.20695099939E+01  0.14200000000E+01 0. -1.
        -13    1    1    2    0    0 -0.73020679523E+01 -0.69544063464E+01  0.25245517214E+02  0.27185129683E+02  0.10570000000E+00 0.  1.
         13    1    1    2    0    0  0.73020679523E+01  0.69544063464E+01  0.29931180979E+02  0.31584343136E+02  0.10570000000E+00 0. -1.
<mgrwt>
<rscale>  0 0.20233213E+02</rscale>
<asrwt>0</asrwt>
<pdfrwt beam="1">  1        4 0.87650904E-02 0.20233213E+02</pdfrwt>
<pdfrwt beam="2">  1       -4 0.27636727E-03 0.20233213E+02</pdfrwt>
<totfact> 0.10908395E+06</totfact>
</mgrwt>
</event>
<event>
 5    1  0.5106345E-007  0.2000173E+02  0.7818608E-02  0.1745294E+00
         -4   -1    0    0    0  501 -0.00000000000E+00  0.00000000000E+00  0.64445295865E+01  0.65991182434E+01  0.14200000000E+01 0.  1.
          4   -1    0    0  501    0  0.00000000000E+00 -0.00000000000E+00 -0.15147604460E+02  0.15214017249E+02  0.14200000000E+01 0. -1.
       1023    2    1    2    0    0  0.00000000000E+00  0.00000000000E+00 -0.87030748732E+01  0.21813135493E+02  0.20001734119E+02 0.  0.
        -13    1    3    3    0    0 -0.97242833714E+01 -0.23323029004E+01 -0.44274514452E+01  0.10936856161E+02  0.10570000000E+00 0. -1.
         13    1    3    3    0    0  0.97242833714E+01  0.23323029004E+01 -0.42756234280E+01  0.10876279331E+02  0.10570000000E+00 0.  1.
<mgrwt>
<rscale>  0 0.20001734E+02</rscale>
<asrwt>0</asrwt>
<pdfrwt beam="2">  1        4 0.23474008E-02 0.20001734E+02</pdfrwt>
<pdfrwt beam="1">  1       -4 0.10084662E-02 0.20001734E+02</pdfrwt>
<totfact> 0.12904805E+06</totfact>
</mgrwt>
</event>
<event>
 4    1  0.4710515E-007  0.2002048E+02  0.7818608E-02  0.1744921E+00
          4   -1    0    0  501    0  0.00000000000E+00  0.00000000000E+00  0.19523450809E+02  0.19575023154E+02  0.14200000000E+01 0.  1.
         -4   -1    0    0    0  501 -0.00000000000E+00 -0.00000000000E+00 -0.49747207719E+01  0.51734173192E+01  0.14200000000E+01 0. -1.
        -13    1    1    2    0    0  0.51016493245E+01  0.86067165509E+01  0.69007023670E+01  0.12154557222E+02  0.10570000000E+00 0.  1.
         13    1    1    2    0    0 -0.51016493245E+01 -0.86067165509E+01  0.76480276701E+01  0.12593883251E+02  0.10570000000E+00 0. -1.
<mgrwt>
<rscale>  0 0.20020484E+02</rscale>
<asrwt>0</asrwt>
<pdfrwt beam="1">  1        4 0.30228593E-02 0.20020484E+02</pdfrwt>
<pdfrwt beam="2">  1       -4 0.78459310E-03 0.20020484E+02</pdfrwt>
<totfact> 0.12713126E+06</totfact>
</mgrwt>
</event>
<event>
 5    1  0.4848433E-007  0.2000231E+02  0.7818608E-02  0.1745282E+00
         -4   -1    0    0    0  501 -0.00000000000E+00  0.00000000000E+00  0.97620766403E+00  0.17231893115E+01  0.14200000000E+01 0.  1.
          4   -1    0    0  501    0  0.00000000000E+00 -0.00000000000E+00 -0.73352005424E+02  0.73365748819E+02  0.14200000000E+01 0. -1.
       1023    2    1    2    0    0  0.00000000000E+00  0.00000000000E+00 -0.72375797760E+02  0.75088938130E+02  0.20002313069E+02 0.  0.
        -13    1    3    3    0    0  0.26064761327E+01 -0.96545935410E+01 -0.36503443001E+02  0.37848611833E+02  0.10570000000E+00 0.  1.
         13    1    3    3    0    0 -0.26064761327E+01  0.96545935410E+01 -0.35872354759E+02  0.37240326297E+02  0.10570000000E+00 0. -1.
<mgrwt>
<rscale>  0 0.20002313E+02</rscale>
<asrwt>0</asrwt>
<pdfrwt beam="2">  1        4 0.11343438E-01 0.20002313E+02</pdfrwt>
<pdfrwt beam="1">  1       -4 0.20870316E-03 0.20002313E+02</pdfrwt>
<totfact> 0.10572244E+06</totfact>
</mgrwt>
</event>
<event>
 4    1  0.4710515E-007  0.2001617E+02  0.7818608E-02  0.1745007E+00
          4   -1    0    0  501    0  0.00000000000E+00  0.00000000000E+00  0.78764711194E+02  0.78777510303E+02  0.14200000000E+01 0.  1.
         -4   -1    0    0    0  501 -0.00000000000E+00 -0.00000000000E+00 -0.85823732194E+00  0.16592080342E+01  0.14200000000E+01 0. -1.
        -13    1    1    2    0    0 -0.98309472617E+01  0.18709290759E+01  0.39161050537E+02  0.40419635715E+02  0.10570000000E+00 0. -1.
         13    1    1    2    0    0  0.98309472617E+01 -0.18709290759E+01  0.38745423336E+02  0.40017082622E+02  0.10570000000E+00 0.  1.
<mgrwt>
<rscale>  0 0.20016168E+02</rscale>
<asrwt>0</asrwt>
<pdfrwt beam="1">  1        4 0.12180248E-01 0.20016168E+02</pdfrwt>
<pdfrwt beam="2">  1       -4 0.19463415E-03 0.20016168E+02</pdfrwt>
<totfact> 0.10380100E+06</totfact>
</mgrwt>
</event>
<event>
 4    1  0.4710515E-007  0.2001384E+02  0.7818608E-02  0.1745053E+00
          4   -1    0    0  501    0  0.00000000000E+00  0.00000000000E+00  0.21444565267E+01  0.25719824639E+01  0.14200000000E+01 0.  1.
         -4   -1    0    0    0  501 -0.00000000000E+00 -0.00000000000E+00 -0.42022991616E+02  0.42046976399E+02  0.14200000000E+01 0. -1.
        -13    1    1    2    0    0  0.45527616631E+01 -0.89100506080E+01 -0.20169546954E+02  0.22515293412E+02  0.10570000000E+00 0. -1.
         13    1    1    2    0    0 -0.45527616631E+01  0.89100506080E+01 -0.19708988135E+02  0.22103665451E+02  0.10570000000E+00 0.  1.
<mgrwt>
<rscale>  0 0.20013843E+02</rscale>
<asrwt>0</asrwt>
<pdfrwt beam="1">  1        4 0.36464801E-03 0.20013843E+02</pdfrwt>
<pdfrwt beam="2">  1       -4 0.64998067E-02 0.20013843E+02</pdfrwt>
<totfact> 0.11736266E+06</totfact>
</mgrwt>
</event>
<event>
 5    1  0.4710515E-007  0.2000320E+02  0.7818608E-02  0.1745264E+00
         -4   -1    0    0    0  501 -0.00000000000E+00  0.00000000000E+00  0.27751334995E+01  0.31173331455E+01  0.14200000000E+01 0. -1.
          4   -1    0    0  501    0  0.00000000000E+00 -0.00000000000E+00 -0.33594438885E+02  0.33624436412E+02  0.14200000000E+01 0.  1.
       1023    2    1    2    0    0  0.00000000000E+00  0.00000000000E+00 -0.30819305386E+02  0.36741769557E+02  0.20003200887E+02 0.  0.
        -13    1    3    3    0    0  0.47192426939E+01  0.88174918739E+01 -0.15478975477E+02  0.18429033313E+02  0.10570000000E+00 0. -1.
         13    1    3    3    0    0 -0.47192426939E+01 -0.88174918739E+01 -0.15340329909E+02  0.18312736244E+02  0.10570000000E+00 0.  1.
<mgrwt>
<rscale>  0 0.20003201E+02</rscale>
<asrwt>0</asrwt>
<pdfrwt beam="2">  1        4 0.51970055E-02 0.20003201E+02</pdfrwt>
<pdfrwt beam="1">  1       -4 0.45557419E-03 0.20003201E+02</pdfrwt>
<totfact> 0.12113116E+06</totfact>
</mgrwt>
</event>
<event>
 5    1  0.4710515E-007  0.2000529E+02  0.7818608E-02  0.1745223E+00
         -4   -1    0    0    0  501 -0.00000000000E+00  0.00000000000E+00  0.93962779290E+01  0.95029700051E+01  0.14200000000E+01 0. -1.
          4   -1    0    0  501    0  0.00000000000E+00 -0.00000000000E+00 -0.10432973160E+02  0.10529165634E+02  0.14200000000E+01 0.  1.
       1023    2    1    2    0    0  0.00000000000E+00  0.00000000000E+00 -0.10366952308E+01  0.20032135639E+02  0.20005292332E+02 0.  0.
        -13    1    3    3    0    0  0.98805734845E+01  0.15509803298E+01 -0.62088356048E+00  0.10021374220E+02  0.10570000000E+00 0.  1.
         13    1    3    3    0    0 -0.98805734845E+01 -0.15509803298E+01 -0.41581167034E+00  0.10010761420E+02  0.10570000000E+00 0. -1.
<mgrwt>
<rscale>  0 0.20005292E+02</rscale>
<asrwt>0</asrwt>
<pdfrwt beam="2">  1        4 0.16206793E-02 0.20005292E+02</pdfrwt>
<pdfrwt beam="1">  1       -4 0.14611877E-02 0.20005292E+02</pdfrwt>
<totfact> 0.13005109E+06</totfact>
</mgrwt>
</event>
<event>
 5    1  0.4725456E-007  0.2000274E+02  0.7818608E-02  0.1745274E+00
          4   -1    0    0  501    0  0.00000000000E+00  0.00000000000E+00  0.10831375679E+02  0.10924060559E+02  0.14200000000E+01 0. -1.
         -4   -1    0    0    0  501 -0.00000000000E+00 -0.00000000000E+00 -0.90473232485E+01  0.91580815656E+01  0.14200000000E+01 0.  1.
       1023    2    1    2    0    0  0.00000000000E+00  0.00000000000E+00  0.17840524303E+01  0.20082142125E+02  0.20002739543E+02 0.  0.
        -13    1    3    3    0    0  0.10000402020E+02  0.89117689112E-01  0.87639868359E+00  0.10039682747E+02  0.10570000000E+00 0. -1.
         13    1    3    3    0    0 -0.10000402020E+02 -0.89117689112E-01  0.90765374670E+00  0.10042459377E+02  0.10570000000E+00 0.  1.
<mgrwt>
<rscale>  0 0.20002740E+02</rscale>
<asrwt>0</asrwt>
<pdfrwt beam="1">  1        4 0.16820150E-02 0.20002740E+02</pdfrwt>
<pdfrwt beam="2">  1       -4 0.14075454E-02 0.20002740E+02</pdfrwt>
<totfact> 0.13005533E+06</totfact>
</mgrwt>
</event>
<event>
 4    1  0.4710515E-007  0.2001959E+02  0.7818608E-02  0.1744939E+00
         -4   -1    0    0    0  501 -0.00000000000E+00  0.00000000000E+00  0.19798447777E+02  0.19849305640E+02  0.14200000000E+01 0. -1.
          4   -1    0    0  501    0  0.00000000000E+00 -0.00000000000E+00 -0.49025710853E+01  0.51040771199E+01  0.14200000000E+01 0.  1.
        -13    1    1    2    0    0 -0.47551786361E+01  0.88067046894E+01  0.72947806428E+01  0.12385264166E+02  0.10570000000E+00 0. -1.
         13    1    1    2    0    0  0.47551786361E+01 -0.88067046894E+01  0.76010960490E+01  0.12568118594E+02  0.10570000000E+00 0.  1.
<mgrwt>
<rscale>  0 0.20019595E+02</rscale>
<asrwt>0</asrwt>
<pdfrwt beam="2">  1        4 0.77365432E-03 0.20019595E+02</pdfrwt>
<pdfrwt beam="1">  1       -4 0.30653276E-02 0.20019595E+02</pdfrwt>
<totfact> 0.12702839E+06</totfact>
</mgrwt>
</event>
<event>
 5    1  0.4710515E-007  0.2000249E+02  0.7818608E-02  0.1745279E+00
         -4   -1    0    0    0  501 -0.00000000000E+00  0.00000000000E+00  0.19940615325E+01  0.24479953831E+01  0.14200000000E+01 0. -1.
          4   -1    0    0  501    0  0.00000000000E+00 -0.00000000000E+00 -0.44569006632E+02  0.44591621995E+02  0.14200000000E+01 0.  1.
       1023    2    1    2    0    0  0.00000000000E+00  0.00000000000E+00 -0.42574945099E+02  0.47039617378E+02  0.20002491167E+02 0.  0.
        -13    1    3    3    0    0  0.30485712660E+01  0.95243544030E+01 -0.21096027683E+02  0.23346534433E+02  0.10570000000E+00 0.  1.
         13    1    3    3    0    0 -0.30485712660E+01 -0.95243544030E+01 -0.21478917417E+02  0.23693082945E+02  0.10570000000E+00 0. -1.
<mgrwt>
<rscale>  0 0.20002491E+02</rscale>
<asrwt>0</asrwt>
<pdfrwt beam="2">  1        4 0.68934272E-02 0.20002491E+02</pdfrwt>
<pdfrwt beam="1">  1       -4 0.34343636E-03 0.20002491E+02</pdfrwt>
<totfact> 0.11643625E+06</totfact>
</mgrwt>
</event>
<event>
 4    1  0.4710515E-007  0.2001571E+02  0.7818608E-02  0.1745016E+00
          4   -1    0    0  501    0  0.00000000000E+00  0.00000000000E+00  0.55264533831E+01  0.57059694177E+01  0.14200000000E+01 0. -1.
         -4   -1    0    0    0  501 -0.00000000000E+00 -0.00000000000E+00 -0.17625062406E+02  0.17682172514E+02  0.14200000000E+01 0.  1.
        -13    1    1    2    0    0  0.93921504467E+00 -0.99569773603E+01 -0.64583009189E+01  0.11905643464E+02  0.10570000000E+00 0. -1.
         13    1    1    2    0    0 -0.93921504467E+00  0.99569773603E+01 -0.56403081040E+01  0.11482498467E+02  0.10570000000E+00 0.  1.
<mgrwt>
<rscale>  0 0.20015715E+02</rscale>
<asrwt>0</asrwt>
<pdfrwt beam="1">  1        4 0.86842562E-03 0.20015715E+02</pdfrwt>
<pdfrwt beam="2">  1       -4 0.27297500E-02 0.20015715E+02</pdfrwt>
<totfact> 0.12795925E+06</totfact>
</mgrwt>
</event>
<event>
 5    1  0.4909995E-007  0.2000360E+02  0.7818608E-02  0.1745257E+00
          4   -1    0    0  501    0  0.00000000000E+00  0.00000000000E+00  0.47509444013E+01  0.49586160069E+01  0.14200000000E+01 0. -1.
         -4   -1    0    0    0  501 -0.00000000000E+00 -0.00000000000E+00 -0.20372749740E+02  0.20422177454E+02  0.14200000000E+01 0.  1.
       1023    2    1    2    0    0  0.00000000000E+00  0.00000000000E+00 -0.15621805339E+02  0.25380793461E+02  0.20003596544E+02 0.  0.
        -13    1    3    3    0    0 -0.10000931892E+02  0.78281735941E-01 -0.78040189280E+01  0.12686159808E+02  0.10570000000E+00 0.  1.
         13    1    3    3    0    0  0.10000931892E+02 -0.78281735941E-01 -0.78177864111E+01  0.12694633654E+02  0.10570000000E+00 0. -1.
<mgrwt>
<rscale>  0 0.20003597E+02</rscale>
<asrwt>0</asrwt>
<pdfrwt beam="1">  1        4 0.75069141E-03 0.20003597E+02</pdfrwt>
<pdfrwt beam="2">  1       -4 0.31540460E-02 0.20003597E+02</pdfrwt>
<totfact> 0.12699749E+06</totfact>
</mgrwt>
</event>
<event>
 5    1  0.4710515E-007  0.2000721E+02  0.7818608E-02  0.1745185E+00
         -4   -1    0    0    0  501 -0.00000000000E+00  0.00000000000E+00  0.57366546399E+01  0.59097890366E+01  0.14200000000E+01 0.  1.
          4   -1    0    0  501    0  0.00000000000E+00 -0.00000000000E+00 -0.16981805399E+02  0.17041071404E+02  0.14200000000E+01 0. -1.
       1023    2    1    2    0    0  0.00000000000E+00  0.00000000000E+00 -0.11245150759E+02  0.22950860441E+02  0.20007213184E+02 0.  0.
        -13    1    3    3    0    0 -0.87055217438E+01  0.49267202929E+01 -0.56774781653E+01  0.11502330741E+02  0.10570000000E+00 0. -1.
         13    1    3    3    0    0  0.87055217438E+01 -0.49267202929E+01 -0.55676725936E+01  0.11448529699E+02  0.10570000000E+00 0.  1.
<mgrwt>
<rscale>  0 0.20007213E+02</rscale>
<asrwt>0</asrwt>
<pdfrwt beam="2">  1        4 0.26304624E-02 0.20007213E+02</pdfrwt>
<pdfrwt beam="1">  1       -4 0.90043922E-03 0.20007213E+02</pdfrwt>
<totfact> 0.12831954E+06</totfact>
</mgrwt>
</event>
<event>
 5    1  0.4710515E-007  0.2000798E+02  0.7818608E-02  0.1745169E+00
          4   -1    0    0  501    0  0.00000000000E+00  0.00000000000E+00  0.10150250784E+01  0.17454729759E+01  0.14200000000E+01 0. -1.
         -4   -1    0    0    0  501 -0.00000000000E+00 -0.00000000000E+00 -0.71769171209E+02  0.71783217649E+02  0.14200000000E+01 0.  1.
       1023    2    1    2    0    0  0.00000000000E+00  0.00000000000E+00 -0.70754146131E+02  0.73528690625E+02  0.20007977167E+02 0.  0.
        -13    1    3    3    0    0 -0.79822854619E+01 -0.60270772489E+01 -0.35970483601E+02  0.37335363991E+02  0.10570000000E+00 0. -1.
         13    1    3    3    0    0  0.79822854619E+01  0.60270772489E+01 -0.34783662530E+02  0.36193326634E+02  0.10570000000E+00 0.  1.
<mgrwt>
<rscale>  0 0.20007977E+02</rscale>
<asrwt>0</asrwt>
<pdfrwt beam="1">  1        4 0.21342656E-03 0.20007977E+02</pdfrwt>
<pdfrwt beam="2">  1       -4 0.11098677E-01 0.20007977E+02</pdfrwt>
<totfact> 0.10619458E+06</totfact>
</mgrwt>
</event>
<event>
 4    1  0.4710515E-007  0.2001345E+02  0.7818608E-02  0.1745061E+00
          4   -1    0    0  501    0  0.00000000000E+00  0.00000000000E+00  0.21229085351E+02  0.21276523796E+02  0.14200000000E+01 0. -1.
         -4   -1    0    0    0  501 -0.00000000000E+00 -0.00000000000E+00 -0.45559521788E+01  0.47721169575E+01  0.14200000000E+01 0.  1.
        -13    1    1    2    0    0 -0.53917132022E+01 -0.84258327776E+01  0.80226320975E+01  0.12823378163E+02  0.10570000000E+00 0. -1.
         13    1    1    2    0    0  0.53917132022E+01  0.84258327776E+01  0.86505010743E+01  0.13225262590E+02  0.10570000000E+00 0.  1.
<mgrwt>
<rscale>  0 0.20013453E+02</rscale>
<asrwt>0</asrwt>
<pdfrwt beam="1">  1        4 0.32862904E-02 0.20013453E+02</pdfrwt>
<pdfrwt beam="2">  1       -4 0.72119288E-03 0.20013453E+02</pdfrwt>
<totfact> 0.12650164E+06</totfact>
</mgrwt>
</event>
<event>
 4    1  0.4710515E-007  0.2010717E+02  0.7818608E-02  0.1743205E+00
         -4   -1    0    0    0  501 -0.00000000000E+00  0.00000000000E+00  0.18728820903E+02  0.18782575234E+02  0.14200000000E+01 0.  1.
          4   -1    0    0  501    0  0.00000000000E+00 -0.00000000000E+00 -0.52406298440E+01  0.54296041442E+01  0.14200000000E+01 0. -1.
        -13    1    1    2    0    0  0.39397782658E+01 -0.92048867179E+01  0.78289183683E+01  0.12710425940E+02  0.10570000000E+00 0. -1.
         13    1    1    2    0    0 -0.39397782658E+01  0.92048867179E+01  0.56592726910E+01  0.11501753438E+02  0.10570000000E+00 0.  1.
<mgrwt>
<rscale>  0 0.20107171E+02</rscale>
<asrwt>0</asrwt>
<pdfrwt beam="2">  1        4 0.82492218E-03 0.20107171E+02</pdfrwt>
<pdfrwt beam="1">  1       -4 0.29000285E-02 0.20107171E+02</pdfrwt>
<totfact> 0.12631432E+06</totfact>
</mgrwt>
</event>
<event>
 5    1  0.4710515E-007  0.2000217E+02  0.7818608E-02  0.1745285E+00
          4   -1    0    0  501    0  0.00000000000E+00  0.00000000000E+00  0.19620017487E+02  0.19671336665E+02  0.14200000000E+01 0.  1.
         -4   -1    0    0    0  501 -0.00000000000E+00 -0.00000000000E+00 -0.49398100892E+01  0.51398563908E+01  0.14200000000E+01 0. -1.
       1023    2    1    2    0    0  0.00000000000E+00  0.00000000000E+00  0.14680207398E+02  0.24811193056E+02  0.20002170172E+02 0.  0.
        -13    1    3    3    0    0  0.92248675350E+01 -0.38612105888E+01  0.74124552799E+01  0.12448405280E+02  0.10570000000E+00 0. -1.
         13    1    3    3    0    0 -0.92248675350E+01  0.38612105888E+01  0.72677521178E+01  0.12362787776E+02  0.10570000000E+00 0.  1.
<mgrwt>
<rscale>  0 0.20002170E+02</rscale>
<asrwt>0</asrwt>
<pdfrwt beam="1">  1        4 0.30378000E-02 0.20002170E+02</pdfrwt>
<pdfrwt beam="2">  1       -4 0.77930660E-03 0.20002170E+02</pdfrwt>
<totfact> 0.12733334E+06</totfact>
</mgrwt>
</event>
<event>
 4    1  0.4710515E-007  0.2003069E+02  0.7818608E-02  0.1744719E+00
          4   -1    0    0  501    0  0.00000000000E+00  0.00000000000E+00  0.15477187399E+01  0.21004364541E+01  0.14200000000E+01 0.  1.
         -4   -1    0    0    0  501 -0.00000000000E+00 -0.00000000000E+00 -0.54427203804E+02  0.54445724478E+02  0.14200000000E+01 0. -1.
        -13    1    1    2    0    0  0.64506620062E+01 -0.76603338895E+01 -0.26257539754E+02  0.28102692434E+02  0.10570000000E+00 0. -1.
         13    1    1    2    0    0 -0.64506620062E+01  0.76603338895E+01 -0.26621945310E+02  0.28443468498E+02  0.10570000000E+00 0.  1.
<mgrwt>
<rscale>  0 0.20030686E+02</rscale>
<asrwt>0</asrwt>
<pdfrwt beam="1">  1        4 0.28205203E-03 0.20030686E+02</pdfrwt>
<pdfrwt beam="2">  1       -4 0.84173561E-02 0.20030686E+02</pdfrwt>
<totfact> 0.11218648E+06</totfact>
</mgrwt>
</event>
<event>
 5    1  0.5192906E-007  0.2000256E+02  0.7818608E-02  0.1745277E+00
         -4   -1    0    0    0  501 -0.00000000000E+00  0.00000000000E+00  0.12935372481E+02  0.13013080389E+02  0.14200000000E+01 0. -1.
          4   -1    0    0  501    0  0.00000000000E+00 -0.00000000000E+00 -0.75655999294E+01  0.76977075998E+01  0.14200000000E+01 0.  1.
       1023    2    1    2    0    0  0.00000000000E+00  0.00000000000E+00  0.53697725513E+01  0.20710787989E+02  0.20002556883E+02 0.  0.
        -13    1    3    3    0    0 -0.86999749746E+01  0.49311512905E+01  0.25889762290E+01  0.10330526996E+02  0.10570000000E+00 0. -1.
         13    1    3    3    0    0  0.86999749746E+01 -0.49311512905E+01  0.27807963223E+01  0.10380260993E+02  0.10570000000E+00 0.  1.
<mgrwt>
<rscale>  0 0.20002557E+02</rscale>
<asrwt>0</asrwt>
<pdfrwt beam="2">  1        4 0.11800781E-02 0.20002557E+02</pdfrwt>
<pdfrwt beam="1">  1       -4 0.20061970E-02 0.20002557E+02</pdfrwt>
<totfact> 0.12968481E+06</totfact>
</mgrwt>
</event>
<event>
 5    1  0.4710515E-007  0.2000318E+02  0.7818608E-02  0.1745265E+00
         -4   -1    0    0    0  501 -0.00000000000E+00  0.00000000000E+00  0.35151073143E+02  0.35179743363E+02  0.14200000000E+01 0.  1.
          4   -1    0    0  501    0  0.00000000000E+00 -0.00000000000E+00 -0.26368428553E+01  0.29948856812E+01  0.14200000000E+01 0.  1.
       1023    2    1    2    0    0  0.00000000000E+00  0.00000000000E+00  0.32514230288E+02  0.38174629045E+02  0.20003178035E+02 0.  0.
        -13    1    3    3    0    0  0.27311031679E+01  0.96207202044E+01  0.16145368307E+02  0.18992137110E+02  0.10570000000E+00 0. -1.
         13    1    3    3    0    0 -0.27311031679E+01 -0.96207202044E+01  0.16368861981E+02  0.19182491934E+02  0.10570000000E+00 0.  1.
<mgrwt>
<rscale>  0 0.20003178E+02</rscale>
<asrwt>0</asrwt>
<pdfrwt beam="2">  1        4 0.43541527E-03 0.20003178E+02</pdfrwt>
<pdfrwt beam="1">  1       -4 0.54376048E-02 0.20003178E+02</pdfrwt>
<totfact> 0.12044556E+06</totfact>
</mgrwt>
</event>
<event>
 5    1  0.4710515E-007  0.2000163E+02  0.7818608E-02  0.1745296E+00
          4   -1    0    0  501    0  0.00000000000E+00  0.00000000000E+00  0.62615510777E+02  0.62631610149E+02  0.14200000000E+01 0.  1.
         -4   -1    0    0    0  501 -0.00000000000E+00 -0.00000000000E+00 -0.12621066645E+01  0.18998192631E+01  0.14200000000E+01 0. -1.
       1023    2    1    2    0    0  0.00000000000E+00  0.00000000000E+00  0.61353404113E+02  0.64531429413E+02  0.20001629578E+02 0.  0.
        -13    1    3    3    0    0  0.36303468018E+01  0.93179629773E+01  0.30791769081E+02  0.32375114943E+02  0.10570000000E+00 0.  1.
         13    1    3    3    0    0 -0.36303468018E+01 -0.93179629773E+01  0.30561635032E+02  0.32156314469E+02  0.10570000000E+00 0. -1.
<mgrwt>
<rscale>  0 0.20001630E+02</rscale>
<asrwt>0</asrwt>
<pdfrwt beam="1">  1        4 0.96834513E-02 0.20001630E+02</pdfrwt>
<pdfrwt beam="2">  1       -4 0.24446342E-03 0.20001630E+02</pdfrwt>
<totfact> 0.10946443E+06</totfact>
</mgrwt>
</event>
<event>
 5    1  0.4710515E-007  0.2000474E+02  0.7818608E-02  0.1745234E+00
          4   -1    0    0  501    0  0.00000000000E+00  0.00000000000E+00  0.27441225067E+02  0.27477940847E+02  0.14200000000E+01 0. -1.
         -4   -1    0    0    0  501 -0.00000000000E+00 -0.00000000000E+00 -0.34668618039E+01  0.37464023765E+01  0.14200000000E+01 0.  1.
       1023    2    1    2    0    0  0.00000000000E+00  0.00000000000E+00  0.23974363263E+02  0.31224343223E+02  0.20004737335E+02 0.  0.
        -13    1    3    3    0    0  0.97109587978E+01  0.23902095218E+01  0.11764334683E+02  0.15441067494E+02  0.10570000000E+00 0.  1.
         13    1    3    3    0    0 -0.97109587978E+01 -0.23902095218E+01  0.12210028580E+02  0.15783275729E+02  0.10570000000E+00 0. -1.
<mgrwt>
<rscale>  0 0.20004737E+02</rscale>
<asrwt>0</asrwt>
<pdfrwt beam="1">  1        4 0.42460545E-02 0.20004737E+02</pdfrwt>
<pdfrwt beam="2">  1       -4 0.55769074E-03 0.20004737E+02</pdfrwt>
<totfact> 0.12386308E+06</totfact>
</mgrwt>
</event>
<event>
 4    1  0.4710515E-007  0.2014704E+02  0.7818608E-02  0.1742420E+00
         -4   -1    0    0    0  501 -0.00000000000E+00  0.00000000000E+00  0.13507320208E+02  0.13581756116E+02  0.14200000000E+01 0. -1.
          4   -1    0    0  501    0  0.00000000000E+00 -0.00000000000E+00 -0.73494261128E+01  0.74853499710E+01  0.14200000000E+01 0.  1.
        -13    1    1    2    0    0  0.80227866653E+01 -0.60906248426E+01  0.31437063917E+01  0.10552482135E+02  0.10570000000E+00 0.  1.
         13    1    1    2    0    0 -0.80227866653E+01  0.60906248426E+01  0.30141877036E+01  0.10514623952E+02  0.10570000000E+00 0. -1.
<mgrwt>
<rscale>  0 0.20147042E+02</rscale>
<asrwt>0</asrwt>
<pdfrwt beam="2">  1        4 0.11468625E-02 0.20147042E+02</pdfrwt>
<pdfrwt beam="1">  1       -4 0.20942308E-02 0.20147042E+02</pdfrwt>
<totfact> 0.12758499E+06</totfact>
</mgrwt>
</event>
<event>
 5    1  0.4717359E-007  0.2001085E+02  0.7818608E-02  0.1745112E+00
         -4   -1    0    0    0  501 -0.00000000000E+00  0.00000000000E+00  0.19836331003E+01  0.24395082038E+01  0.14200000000E+01 0.  1.
          4   -1    0    0  501    0  0.00000000000E+00 -0.00000000000E+00 -0.44797530398E+02  0.44820030453E+02  0.14200000000E+01 0. -1.
       1023    2    1    2    0    0  0.00000000000E+00  0.00000000000E+00 -0.42813897298E+02  0.47259538657E+02  0.20010851861E+02 0.  0.
        -13    1    3    3    0    0 -0.10000445496E+02  0.29152967155E+00 -0.21546186495E+02  0.23755909257E+02  0.10570000000E+00 0. -1.
         13    1    3    3    0    0  0.10000445496E+02 -0.29152967155E+00 -0.21267710803E+02  0.23503629400E+02  0.10570000000E+00 0.  1.
<mgrwt>
<rscale>  0 0.20010852E+02</rscale>
<asrwt>0</asrwt>
<pdfrwt beam="2">  1        4 0.69287252E-02 0.20010852E+02</pdfrwt>
<pdfrwt beam="1">  1       -4 0.34197245E-03 0.20010852E+02</pdfrwt>
<totfact> 0.11624300E+06</totfact>
</mgrwt>
</event>
<event>
 4    1  0.4710515E-007  0.2001533E+02  0.7818608E-02  0.1745023E+00
          4   -1    0    0  501    0  0.00000000000E+00  0.00000000000E+00  0.34828573340E+02  0.34857508817E+02  0.14200000000E+01 0. -1.
         -4   -1    0    0    0  501 -0.00000000000E+00 -0.00000000000E+00 -0.26682442000E+01  0.30225696205E+01  0.14200000000E+01 0.  1.
        -13    1    1    2    0    0  0.54322773855E+01  0.83975751990E+01  0.15443091498E+02  0.18399161783E+02  0.10570000000E+00 0.  1.
         13    1    1    2    0    0 -0.54322773855E+01 -0.83975751990E+01  0.16717237643E+02  0.19480916655E+02  0.10570000000E+00 0. -1.
<mgrwt>
<rscale>  0 0.20015333E+02</rscale>
<asrwt>0</asrwt>
<pdfrwt beam="1">  1        4 0.53877235E-02 0.20015333E+02</pdfrwt>
<pdfrwt beam="2">  1       -4 0.43998073E-03 0.20015333E+02</pdfrwt>
<totfact> 0.12043733E+06</totfact>
</mgrwt>
</event>
<event>
 5    1  0.4710515E-007  0.2000311E+02  0.7818608E-02  0.1745266E+00
          4   -1    0    0  501    0  0.00000000000E+00  0.00000000000E+00  0.13327032688E+01  0.19474336966E+01  0.14200000000E+01 0. -1.
         -4   -1    0    0    0  501 -0.00000000000E+00 -0.00000000000E+00 -0.60367382750E+02  0.60384081513E+02  0.14200000000E+01 0.  1.
       1023    2    1    2    0    0  0.00000000000E+00  0.00000000000E+00 -0.59034679482E+02  0.62331515209E+02  0.20003109928E+02 0.  0.
        -13    1    3    3    0    0 -0.89442236595E+00  0.99599464814E+01 -0.29951404963E+02  0.31576864268E+02  0.10570000000E+00 0.  1.
         13    1    3    3    0    0  0.89442236595E+00 -0.99599464814E+01 -0.29083274519E+02  0.30754650941E+02  0.10570000000E+00 0. -1.
<mgrwt>
<rscale>  0 0.20003110E+02</rscale>
<asrwt>0</asrwt>
<pdfrwt beam="1">  1        4 0.25360279E-03 0.20003110E+02</pdfrwt>
<pdfrwt beam="2">  1       -4 0.93358594E-02 0.20003110E+02</pdfrwt>
<totfact> 0.11026792E+06</totfact>
</mgrwt>
</event>
<event>
 5    1  0.4710515E-007  0.2000410E+02  0.7818608E-02  0.1745247E+00
         -4   -1    0    0    0  501 -0.00000000000E+00  0.00000000000E+00  0.86215402265E+00  0.16612373577E+01  0.14200000000E+01 0.  1.
          4   -1    0    0  501    0  0.00000000000E+00 -0.00000000000E+00 -0.78483344221E+02  0.78496189207E+02  0.14200000000E+01 0. -1.
       1023    2    1    2    0    0  0.00000000000E+00  0.00000000000E+00 -0.77621190198E+02  0.80157426565E+02  0.20004096225E+02 0.  0.
        -13    1    3    3    0    0 -0.50925838030E+01  0.86064722159E+01 -0.39431625338E+02  0.40680093696E+02  0.10570000000E+00 0. -1.
         13    1    3    3    0    0  0.50925838030E+01 -0.86064722159E+01 -0.38189564859E+02  0.39477332869E+02  0.10570000000E+00 0.  1.
<mgrwt>
<rscale>  0 0.20004096E+02</rscale>
<asrwt>0</asrwt>
<pdfrwt beam="2">  1        4 0.12136813E-01 0.20004096E+02</pdfrwt>
<pdfrwt beam="1">  1       -4 0.19509517E-03 0.20004096E+02</pdfrwt>
<totfact> 0.10401753E+06</totfact>
</mgrwt>
</event>
<event>
 5    1  0.4710515E-007  0.2000564E+02  0.7818608E-02  0.1745216E+00
         -4   -1    0    0    0  501 -0.00000000000E+00  0.00000000000E+00  0.53219954881E+02  0.53238895532E+02  0.14200000000E+01 0.  1.
          4   -1    0    0  501    0  0.00000000000E+00 -0.00000000000E+00 -0.15898149126E+01  0.21316452464E+01  0.14200000000E+01 0. -1.
       1023    2    1    2    0    0  0.00000000000E+00  0.00000000000E+00  0.51630139968E+02  0.55370540779E+02  0.20005635031E+02 0.  0.
        -13    1    3    3    0    0 -0.92447789254E+01  0.38136995340E+01  0.25297684489E+02  0.27202835413E+02  0.10570000000E+00 0.  1.
         13    1    3    3    0    0  0.92447789254E+01 -0.38136995340E+01  0.26332455479E+02  0.28167705365E+02  0.10570000000E+00 0. -1.
<mgrwt>
<rscale>  0 0.20005635E+02</rscale>
<asrwt>0</asrwt>
<pdfrwt beam="2">  1        4 0.28772314E-03 0.20005635E+02</pdfrwt>
<pdfrwt beam="1">  1       -4 0.82308216E-02 0.20005635E+02</pdfrwt>
<totfact> 0.11293665E+06</totfact>
</mgrwt>
</event>
<event>
 5    1  0.4710515E-007  0.2000373E+02  0.7818608E-02  0.1745254E+00
          4   -1    0    0  501    0  0.00000000000E+00  0.00000000000E+00  0.10947133174E+02  0.11038846168E+02  0.14200000000E+01 0. -1.
         -4   -1    0    0    0  501 -0.00000000000E+00 -0.00000000000E+00 -0.89521888688E+01  0.90641097490E+01  0.14200000000E+01 0.  1.
       1023    2    1    2    0    0  0.00000000000E+00  0.00000000000E+00  0.19949443050E+01  0.20102955917E+02  0.20003725499E+02 0.  0.
        -13    1    3    3    0    0 -0.95447873890E+01 -0.29866892850E+01  0.94423028849E+00  0.10046194429E+02  0.10570000000E+00 0.  1.
         13    1    3    3    0    0  0.95447873890E+01  0.29866892850E+01  0.10507140165E+01  0.10056761488E+02  0.10570000000E+00 0. -1.
<mgrwt>
<rscale>  0 0.20003725E+02</rscale>
<asrwt>0</asrwt>
<pdfrwt beam="1">  1        4 0.16998385E-02 0.20003725E+02</pdfrwt>
<pdfrwt beam="2">  1       -4 0.13929240E-02 0.20003725E+02</pdfrwt>
<totfact> 0.13002991E+06</totfact>
</mgrwt>
</event>
<event>
 5    1  0.4710515E-007  0.2000300E+02  0.7818608E-02  0.1745268E+00
         -4   -1    0    0    0  501 -0.00000000000E+00  0.00000000000E+00  0.37885475482E+01  0.40459229510E+01  0.14200000000E+01 0.  1.
          4   -1    0    0  501    0  0.00000000000E+00 -0.00000000000E+00 -0.25257902924E+02  0.25297787653E+02  0.14200000000E+01 0. -1.
       1023    2    1    2    0    0  0.00000000000E+00  0.00000000000E+00 -0.21469355376E+02  0.29343710604E+02  0.20003003068E+02 0.  0.
        -13    1    3    3    0    0  0.48723440146E+01  0.87337834809E+01 -0.10716689760E+02  0.14658694416E+02  0.10570000000E+00 0.  1.
         13    1    3    3    0    0 -0.48723440146E+01 -0.87337834809E+01 -0.10752665616E+02  0.14685016187E+02  0.10570000000E+00 0. -1.
<mgrwt>
<rscale>  0 0.20003003E+02</rscale>
<asrwt>0</asrwt>
<pdfrwt beam="2">  1        4 0.39086973E-02 0.20003003E+02</pdfrwt>
<pdfrwt beam="1">  1       -4 0.60571965E-03 0.20003003E+02</pdfrwt>
<totfact> 0.12486350E+06</totfact>
</mgrwt>
</event>
<event>
 5    1  0.4710515E-007  0.2000359E+02  0.7818608E-02  0.1745257E+00
          4   -1    0    0  501    0  0.00000000000E+00  0.00000000000E+00  0.26561941445E+02  0.26599870927E+02  0.14200000000E+01 0.  1.
         -4   -1    0    0    0  501 -0.00000000000E+00 -0.00000000000E+00 -0.35901113455E+01  0.38607382032E+01  0.14200000000E+01 0. -1.
       1023    2    1    2    0    0  0.00000000000E+00  0.00000000000E+00  0.22971830100E+02  0.30460609131E+02  0.20003592939E+02 0.  0.
        -13    1    3    3    0    0  0.90854772372E+01  0.41807723218E+01  0.11482095708E+02  0.15227424213E+02  0.10570000000E+00 0. -1.
         13    1    3    3    0    0 -0.90854772372E+01 -0.41807723218E+01  0.11489734392E+02  0.15233184917E+02  0.10570000000E+00 0.  1.
<mgrwt>
<rscale>  0 0.20003593E+02</rscale>
<asrwt>0</asrwt>
<pdfrwt beam="1">  1        4 0.41101875E-02 0.20003593E+02</pdfrwt>
<pdfrwt beam="2">  1       -4 0.57605995E-03 0.20003593E+02</pdfrwt>
<totfact> 0.12427216E+06</totfact>
</mgrwt>
</event>
<event>
 5    1  0.4741566E-007  0.2000294E+02  0.7818608E-02  0.1745270E+00
         -4   -1    0    0    0  501 -0.00000000000E+00  0.00000000000E+00  0.44766498775E+01  0.46964661316E+01  0.14200000000E+01 0. -1.
          4   -1    0    0  501    0  0.00000000000E+00 -0.00000000000E+00 -0.21565536075E+02  0.21612236030E+02  0.14200000000E+01 0.  1.
       1023    2    1    2    0    0  0.00000000000E+00  0.00000000000E+00 -0.17088886197E+02  0.26308702161E+02  0.20002944232E+02 0.  0.
        -13    1    3    3    0    0 -0.91564225741E+01  0.40215797655E+01 -0.84505729081E+01  0.13093377453E+02  0.10570000000E+00 0.  1.
         13    1    3    3    0    0  0.91564225741E+01 -0.40215797655E+01 -0.86383132893E+01  0.13215324708E+02  0.10570000000E+00 0. -1.
<mgrwt>
<rscale>  0 0.20002944E+02</rscale>
<asrwt>0</asrwt>
<pdfrwt beam="2">  1        4 0.33382760E-02 0.20002944E+02</pdfrwt>
<pdfrwt beam="1">  1       -4 0.70921663E-03 0.20002944E+02</pdfrwt>
<totfact> 0.12649421E+06</totfact>
</mgrwt>
</event>
<event>
 5    1  0.4844137E-007  0.2000195E+02  0.7818608E-02  0.1745289E+00
         -4   -1    0    0    0  501 -0.00000000000E+00  0.00000000000E+00  0.19290261639E+01  0.23953166682E+01  0.14200000000E+01 0.  1.
          4   -1    0    0  501    0  0.00000000000E+00 -0.00000000000E+00 -0.45780321169E+02  0.45802338438E+02  0.14200000000E+01 0. -1.
       1023    2    1    2    0    0  0.00000000000E+00  0.00000000000E+00 -0.43851295005E+02  0.48197655106E+02  0.20001947007E+02 0.  0.
        -13    1    3    3    0    0 -0.97295591896E+01 -0.23112271486E+01 -0.22038812935E+02  0.24201787972E+02  0.10570000000E+00 0.  1.
         13    1    3    3    0    0  0.97295591896E+01  0.23112271486E+01 -0.21812482070E+02  0.23995867134E+02  0.10570000000E+00 0. -1.
<mgrwt>
<rscale>  0 0.20001947E+02</rscale>
<asrwt>0</asrwt>
<pdfrwt beam="2">  1        4 0.70806878E-02 0.20001947E+02</pdfrwt>
<pdfrwt beam="1">  1       -4 0.33433543E-03 0.20001947E+02</pdfrwt>
<totfact> 0.11594412E+06</totfact>
</mgrwt>
</event>
<event>
 5    1  0.4710515E-007  0.2000364E+02  0.7818608E-02  0.1745256E+00
         -4   -1    0    0    0  501 -0.00000000000E+00  0.00000000000E+00  0.36526612143E+01  0.39189710316E+01  0.14200000000E+01 0.  1.
          4   -1    0    0  501    0  0.00000000000E+00 -0.00000000000E+00 -0.26137737078E+02  0.26176281240E+02  0.14200000000E+01 0. -1.
       1023    2    1    2    0    0  0.00000000000E+00  0.00000000000E+00 -0.22485075864E+02  0.30095252272E+02  0.20003638986E+02 0.  0.
        -13    1    3    3    0    0  0.95254352878E+01  0.30479318587E+01 -0.11299124462E+02  0.15089903649E+02  0.10570000000E+00 0.  1.
         13    1    3    3    0    0 -0.95254352878E+01 -0.30479318587E+01 -0.11185951402E+02  0.15005348623E+02  0.10570000000E+00 0. -1.
<mgrwt>
<rscale>  0 0.20003639E+02</rscale>
<asrwt>0</asrwt>
<pdfrwt beam="2">  1        4 0.40446405E-02 0.20003639E+02</pdfrwt>
<pdfrwt beam="1">  1       -4 0.58539820E-03 0.20003639E+02</pdfrwt>
<totfact> 0.12446166E+06</totfact>
</mgrwt>
</event>
<event>
 5    1  0.4710515E-007  0.2000115E+02  0.7818608E-02  0.1745305E+00
         -4   -1    0    0    0  501 -0.00000000000E+00  0.00000000000E+00  0.23174474415E+02  0.23217938419E+02  0.14200000000E+01 0.  1.
          4   -1    0    0  501    0  0.00000000000E+00 -0.00000000000E+00 -0.41498585578E+01  0.43860832242E+01  0.14200000000E+01 0. -1.
       1023    2    1    2    0    0  0.00000000000E+00  0.00000000000E+00  0.19024615857E+02  0.27604021643E+02  0.20001150026E+02 0.  0.
        -13    1    3    3    0    0  0.86163319868E+01  0.50753344647E+01  0.94964959764E+01  0.13791113267E+02  0.10570000000E+00 0.  1.
         13    1    3    3    0    0 -0.86163319868E+01 -0.50753344647E+01  0.95281198808E+01  0.13812908375E+02  0.10570000000E+00 0. -1.
<mgrwt>
<rscale>  0 0.20001150E+02</rscale>
<asrwt>0</asrwt>
<pdfrwt beam="2">  1        4 0.65995428E-03 0.20001150E+02</pdfrwt>
<pdfrwt beam="1">  1       -4 0.35868183E-02 0.20001150E+02</pdfrwt>
<totfact> 0.12581356E+06</totfact>
</mgrwt>
</event>
<event>
 5    1  0.4710515E-007  0.2000184E+02  0.7818608E-02  0.1745292E+00
          4   -1    0    0  501    0  0.00000000000E+00  0.00000000000E+00  0.68279401004E+02  0.68294165208E+02  0.14200000000E+01 0. -1.
         -4   -1    0    0    0  501 -0.00000000000E+00 -0.00000000000E+00 -0.11021952792E+01  0.17975634713E+01  0.14200000000E+01 0.  1.
       1023    2    1    2    0    0  0.00000000000E+00  0.00000000000E+00  0.67177205725E+02  0.70091728680E+02  0.20001836423E+02 0.  0.
        -13    1    3    3    0    0  0.94064189428E+01 -0.33948968126E+01  0.33707483896E+02  0.35159802115E+02  0.10570000000E+00 0.  1.
         13    1    3    3    0    0 -0.94064189428E+01  0.33948968126E+01  0.33469721829E+02  0.34931926564E+02  0.10570000000E+00 0. -1.
<mgrwt>
<rscale>  0 0.20001836E+02</rscale>
<asrwt>0</asrwt>
<pdfrwt beam="1">  1        4 0.10559145E-01 0.20001836E+02</pdfrwt>
<pdfrwt beam="2">  1       -4 0.22419415E-03 0.20001836E+02</pdfrwt>
<totfact> 0.10745584E+06</totfact>
</mgrwt>
</event>
<event>
 4    1  0.4710515E-007  0.2019027E+02  0.7818608E-02  0.1741571E+00
         -4   -1    0    0    0  501 -0.00000000000E+00  0.00000000000E+00  0.42150930270E+01  0.44478544520E+01  0.14200000000E+01 0. -1.
          4   -1    0    0  501    0  0.00000000000E+00 -0.00000000000E+00 -0.23273206947E+02  0.23316486905E+02  0.14200000000E+01 0.  1.
        -13    1    1    2    0    0 -0.11295296316E+01 -0.10031185415E+02 -0.95197620269E+01  0.13875790412E+02  0.10570000000E+00 0.  1.
         13    1    1    2    0    0  0.11295296316E+01  0.10031185415E+02 -0.95383518927E+01  0.13888550945E+02  0.10570000000E+00 0. -1.
<mgrwt>
<rscale>  0 0.20190269E+02</rscale>
<asrwt>0</asrwt>
<pdfrwt beam="2">  1        4 0.36017273E-02 0.20190269E+02</pdfrwt>
<pdfrwt beam="1">  1       -4 0.66970981E-03 0.20190269E+02</pdfrwt>
<totfact> 0.12334062E+06</totfact>
</mgrwt>
</event>
<event>
 5    1  0.4710515E-007  0.2000213E+02  0.7818608E-02  0.1745286E+00
         -4   -1    0    0    0  501 -0.00000000000E+00  0.00000000000E+00  0.12407536818E+01  0.18857013812E+01  0.14200000000E+01 0.  1.
          4   -1    0    0  501    0  0.00000000000E+00 -0.00000000000E+00 -0.63329283927E+02  0.63345201892E+02  0.14200000000E+01 0. -1.
       1023    2    1    2    0    0  0.00000000000E+00  0.00000000000E+00 -0.62088530245E+02  0.65230903273E+02  0.20002128732E+02 0.  0.
        -13    1    3    3    0    0 -0.37555083488E+01  0.92683819967E+01 -0.30854998584E+02  0.32435302649E+02  0.10570000000E+00 0.  1.
         13    1    3    3    0    0  0.37555083488E+01 -0.92683819967E+01 -0.31233531661E+02  0.32795600624E+02  0.10570000000E+00 0. -1.
<mgrwt>
<rscale>  0 0.20002129E+02</rscale>
<asrwt>0</asrwt>
<pdfrwt beam="2">  1        4 0.97938006E-02 0.20002129E+02</pdfrwt>
<pdfrwt beam="1">  1       -4 0.24172105E-03 0.20002129E+02</pdfrwt>
<totfact> 0.10920146E+06</totfact>
</mgrwt>
</event>
<event>
 5    1  0.4710515E-007  0.2000210E+02  0.7818608E-02  0.1745286E+00
          4   -1    0    0  501    0  0.00000000000E+00  0.00000000000E+00  0.20163397345E+02  0.20213336996E+02  0.14200000000E+01 0.  1.
         -4   -1    0    0    0  501 -0.00000000000E+00 -0.00000000000E+00 -0.48015351798E+01  0.50071089546E+01  0.14200000000E+01 0. -1.
       1023    2    1    2    0    0  0.00000000000E+00  0.00000000000E+00  0.15361862165E+02  0.25220445950E+02  0.20002102008E+02 0.  0.
        -13    1    3    3    0    0 -0.18256892681E+01 -0.98320757756E+01  0.75754877170E+01  0.12545997051E+02  0.10570000000E+00 0.  1.
         13    1    3    3    0    0  0.18256892681E+01  0.98320757756E+01  0.77863744485E+01  0.12674448899E+02  0.10570000000E+00 0. -1.
<mgrwt>
<rscale>  0 0.20002102E+02</rscale>
<asrwt>0</asrwt>
<pdfrwt beam="1">  1        4 0.31217159E-02 0.20002102E+02</pdfrwt>
<pdfrwt beam="2">  1       -4 0.75835262E-03 0.20002102E+02</pdfrwt>
<totfact> 0.12710591E+06</totfact>
</mgrwt>
</event>
<event>
 5    1  0.4710515E-007  0.2000326E+02  0.7818608E-02  0.1745263E+00
          4   -1    0    0  501    0  0.00000000000E+00  0.00000000000E+00  0.93537551839E+00  0.17003903553E+01  0.14200000000E+01 0. -1.
         -4   -1    0    0    0  501 -0.00000000000E+00 -0.00000000000E+00 -0.75130367327E+02  0.75143785470E+02  0.14200000000E+01 0.  1.
       1023    2    1    2    0    0  0.00000000000E+00  0.00000000000E+00 -0.74194991809E+02  0.76844175825E+02  0.20003263452E+02 0.  0.
        -13    1    3    3    0    0  0.80037679134E+01  0.59966399097E+01 -0.36950023618E+02  0.38279699697E+02  0.10570000000E+00 0. -1.
         13    1    3    3    0    0 -0.80037679134E+01 -0.59966399097E+01 -0.37244968190E+02  0.38564476128E+02  0.10570000000E+00 0.  1.
<mgrwt>
<rscale>  0 0.20003263E+02</rscale>
<asrwt>0</asrwt>
<pdfrwt beam="1">  1        4 0.20378344E-03 0.20003263E+02</pdfrwt>
<pdfrwt beam="2">  1       -4 0.11618394E-01 0.20003263E+02</pdfrwt>
<totfact> 0.10512108E+06</totfact>
</mgrwt>
</event>
<event>
 5    1  0.4710515E-007  0.2000279E+02  0.7818608E-02  0.1745273E+00
         -4   -1    0    0    0  501 -0.00000000000E+00  0.00000000000E+00  0.21355247915E+02  0.21402406722E+02  0.14200000000E+01 0.  1.
          4   -1    0    0  501    0  0.00000000000E+00 -0.00000000000E+00 -0.45227127769E+01  0.47403935346E+01  0.14200000000E+01 0. -1.
       1023    2    1    2    0    0  0.00000000000E+00  0.00000000000E+00  0.16832535138E+02  0.26142800257E+02  0.20002793957E+02 0.  0.
        -13    1    3    3    0    0  0.90241013476E+01 -0.43107200131E+01  0.84261238190E+01  0.13077746261E+02  0.10570000000E+00 0. -1.
         13    1    3    3    0    0 -0.90241013476E+01  0.43107200131E+01  0.84064113189E+01  0.13065053996E+02  0.10570000000E+00 0.  1.
<mgrwt>
<rscale>  0 0.20002794E+02</rscale>
<asrwt>0</asrwt>
<pdfrwt beam="2">  1        4 0.71617423E-03 0.20002794E+02</pdfrwt>
<pdfrwt beam="1">  1       -4 0.33057951E-02 0.20002794E+02</pdfrwt>
<totfact> 0.12658716E+06</totfact>
</mgrwt>
</event>
<event>
 4    1  0.4710515E-007  0.2002126E+02  0.7818608E-02  0.1744906E+00
         -4   -1    0    0    0  501 -0.00000000000E+00  0.00000000000E+00  0.21604278441E+01  0.25853139983E+01  0.14200000000E+01 0.  1.
          4   -1    0    0  501    0  0.00000000000E+00 -0.00000000000E+00 -0.41794651198E+02  0.41818766945E+02  0.14200000000E+01 0. -1.
        -13    1    1    2    0    0  0.44377129571E+00 -0.99998824392E+01 -0.20001761602E+02  0.22366855421E+02  0.10570000000E+00 0. -1.
         13    1    1    2    0    0 -0.44377129571E+00  0.99998824392E+01 -0.19632461752E+02  0.22037225522E+02  0.10570000000E+00 0.  1.
<mgrwt>
<rscale>  0 0.20021257E+02</rscale>
<asrwt>0</asrwt>
<pdfrwt beam="2">  1        4 0.64644844E-02 0.20021257E+02</pdfrwt>
<pdfrwt beam="1">  1       -4 0.36691215E-03 0.20021257E+02</pdfrwt>
<totfact> 0.11737010E+06</totfact>
</mgrwt>
</event>
<event>
 5    1  0.4791815E-007  0.2000166E+02  0.7818608E-02  0.1745295E+00
         -4   -1    0    0    0  501 -0.00000000000E+00  0.00000000000E+00  0.43792315738E+01  0.46037016820E+01  0.14200000000E+01 0. -1.
          4   -1    0    0  501    0  0.00000000000E+00 -0.00000000000E+00 -0.22020223552E+02  0.22065961236E+02  0.14200000000E+01 0.  1.
       1023    2    1    2    0    0  0.00000000000E+00  0.00000000000E+00 -0.17640991978E+02  0.26669662918E+02  0.20001657986E+02 0.  0.
        -13    1    3    3    0    0 -0.72495236968E+01  0.68883219885E+01 -0.88590120570E+01  0.13360308408E+02  0.10570000000E+00 0.  1.
         13    1    3    3    0    0  0.72495236968E+01 -0.68883219885E+01 -0.87819799215E+01  0.13309354510E+02  0.10570000000E+00 0. -1.
<mgrwt>
<rscale>  0 0.20001658E+02</rscale>
<asrwt>0</asrwt>
<pdfrwt beam="2">  1        4 0.34085118E-02 0.20001658E+02</pdfrwt>
<pdfrwt beam="1">  1       -4 0.69451317E-03 0.20001658E+02</pdfrwt>
<totfact> 0.12631343E+06</totfact>
</mgrwt>
</event>
<event>
 4    1  0.4710515E-007  0.2004329E+02  0.7818608E-02  0.1744469E+00
          4   -1    0    0  501    0  0.00000000000E+00  0.00000000000E+00  0.51665913055E+01  0.53581774623E+01  0.14200000000E+01 0. -1.
         -4   -1    0    0    0  501 -0.00000000000E+00 -0.00000000000E+00 -0.18866395484E+02  0.18919758946E+02  0.14200000000E+01 0.  1.
        -13    1    1    2    0    0 -0.58987856374E+01  0.80836955669E+01 -0.74913198005E+01  0.12500914001E+02  0.10570000000E+00 0.  1.
         13    1    1    2    0    0  0.58987856374E+01 -0.80836955669E+01 -0.62084843782E+01  0.11777022407E+02  0.10570000000E+00 0. -1.
<mgrwt>
<rscale>  0 0.20043292E+02</rscale>
<asrwt>0</asrwt>
<pdfrwt beam="1">  1        4 0.81370249E-03 0.20043292E+02</pdfrwt>
<pdfrwt beam="2">  1       -4 0.29213646E-02 0.20043292E+02</pdfrwt>
<totfact> 0.12709979E+06</totfact>
</mgrwt>
</event>
<event>
 5    1  0.4710515E-007  0.2000957E+02  0.7818608E-02  0.1745138E+00
          4   -1    0    0  501    0  0.00000000000E+00  0.00000000000E+00  0.25647479801E+01  0.29316091488E+01  0.14200000000E+01 0.  1.
         -4   -1    0    0    0  501 -0.00000000000E+00 -0.00000000000E+00 -0.36040785086E+02  0.36068748102E+02  0.14200000000E+01 0. -1.
       1023    2    1    2    0    0  0.00000000000E+00  0.00000000000E+00 -0.33476037106E+02  0.39000357250E+02  0.20009567845E+02 0.  0.
        -13    1    3    3    0    0 -0.93298108160E+01 -0.36078897575E+01 -0.16447020154E+02  0.19250399549E+02  0.10570000000E+00 0.  1.
         13    1    3    3    0    0  0.93298108160E+01  0.36078897575E+01 -0.17029016952E+02  0.19749957702E+02  0.10570000000E+00 0. -1.
<mgrwt>
<rscale>  0 0.20009568E+02</rscale>
<asrwt>0</asrwt>
<pdfrwt beam="1">  1        4 0.42494773E-03 0.20009568E+02</pdfrwt>
<pdfrwt beam="2">  1       -4 0.55751069E-02 0.20009568E+02</pdfrwt>
<totfact> 0.11997768E+06</totfact>
</mgrwt>
</event>
<event>
 5    1  0.4981120E-007  0.2000154E+02  0.7818608E-02  0.1745297E+00
         -4   -1    0    0    0  501 -0.00000000000E+00  0.00000000000E+00  0.85742714315E+01  0.86910603830E+01  0.14200000000E+01 0. -1.
          4   -1    0    0  501    0  0.00000000000E+00 -0.00000000000E+00 -0.11424652909E+02  0.11512562447E+02  0.14200000000E+01 0.  1.
       1023    2    1    2    0    0  0.00000000000E+00  0.00000000000E+00 -0.28503814777E+01  0.20203622830E+02  0.20001542463E+02 0.  0.
        -13    1    3    3    0    0  0.48528115087E+01 -0.87438248343E+01 -0.14258753753E+01  0.10101908005E+02  0.10570000000E+00 0. -1.
         13    1    3    3    0    0 -0.48528115087E+01  0.87438248343E+01 -0.14245061024E+01  0.10101714825E+02  0.10570000000E+00 0.  1.
<mgrwt>
<rscale>  0 0.20001542E+02</rscale>
<asrwt>0</asrwt>
<pdfrwt beam="2">  1        4 0.17733849E-02 0.20001542E+02</pdfrwt>
<pdfrwt beam="1">  1       -4 0.13348647E-02 0.20001542E+02</pdfrwt>
<totfact> 0.12999880E+06</totfact>
</mgrwt>
</event>
<event>
 5    1  0.4710515E-007  0.2000219E+02  0.7818608E-02  0.1745284E+00
          4   -1    0    0  501    0  0.00000000000E+00  0.00000000000E+00  0.16486530823E+02  0.16547570776E+02  0.14200000000E+01 0.  1.
         -4   -1    0    0    0  501 -0.00000000000E+00 -0.00000000000E+00 -0.59103887174E+01  0.60785767077E+01  0.14200000000E+01 0. -1.
       1023    2    1    2    0    0  0.00000000000E+00  0.00000000000E+00  0.10576142105E+02  0.22626147483E+02  0.20002194082E+02 0.  0.
        -13    1    3    3    0    0  0.96385239141E+01  0.26660360637E+01  0.53370918956E+01  0.11335987559E+02  0.10570000000E+00 0. -1.
         13    1    3    3    0    0 -0.96385239141E+01 -0.26660360637E+01  0.52390502098E+01  0.11290159925E+02  0.10570000000E+00 0.  1.
<mgrwt>
<rscale>  0 0.20002194E+02</rscale>
<asrwt>0</asrwt>
<pdfrwt beam="1">  1        4 0.25540222E-02 0.20002194E+02</pdfrwt>
<pdfrwt beam="2">  1       -4 0.92692350E-03 0.20002194E+02</pdfrwt>
<totfact> 0.12857157E+06</totfact>
</mgrwt>
</event>
<event>
 5    1  0.4710515E-007  0.2000402E+02  0.7818608E-02  0.1745248E+00
          4   -1    0    0  501    0  0.00000000000E+00  0.00000000000E+00  0.11056700019E+01  0.17996961280E+01  0.14200000000E+01 0.  1.
         -4   -1    0    0    0  501 -0.00000000000E+00 -0.00000000000E+00 -0.68162657434E+02  0.68177446920E+02  0.14200000000E+01 0. -1.
       1023    2    1    2    0    0  0.00000000000E+00  0.00000000000E+00 -0.67056987432E+02  0.69977143048E+02  0.20004024236E+02 0.  0.
        -13    1    3    3    0    0 -0.56107125469E+01  0.82783471788E+01 -0.33059863623E+02  0.34539497427E+02  0.10570000000E+00 0.  1.
         13    1    3    3    0    0  0.56107125469E+01 -0.82783471788E+01 -0.33997123810E+02  0.35437645620E+02  0.10570000000E+00 0. -1.
<mgrwt>
<rscale>  0 0.20004024E+02</rscale>
<asrwt>0</asrwt>
<pdfrwt beam="1">  1        4 0.22462741E-03 0.20004024E+02</pdfrwt>
<pdfrwt beam="2">  1       -4 0.10541084E-01 0.20004024E+02</pdfrwt>
<totfact> 0.10747267E+06</totfact>
</mgrwt>
</event>
<event>
 5    1  0.4710515E-007  0.2000402E+02  0.7818608E-02  0.1745248E+00
         -4   -1    0    0    0  501 -0.00000000000E+00  0.00000000000E+00  0.43791909725E+01  0.46036630604E+01  0.14200000000E+01 0.  1.
          4   -1    0    0  501    0  0.00000000000E+00 -0.00000000000E+00 -0.22025693723E+02  0.22071420072E+02  0.14200000000E+01 0. -1.
       1023    2    1    2    0    0  0.00000000000E+00  0.00000000000E+00 -0.17646502751E+02  0.26675083132E+02  0.20004024615E+02 0.  0.
        -13    1    3    3    0    0 -0.17801714923E+01 -0.98416453337E+01 -0.87623723925E+01  0.13297267984E+02  0.10570000000E+00 0. -1.
         13    1    3    3    0    0  0.17801714923E+01  0.98416453337E+01 -0.88841303581E+01  0.13377815148E+02  0.10570000000E+00 0.  1.
<mgrwt>
<rscale>  0 0.20004025E+02</rscale>
<asrwt>0</asrwt>
<pdfrwt beam="2">  1        4 0.34093527E-02 0.20004025E+02</pdfrwt>
<pdfrwt beam="1">  1       -4 0.69450620E-03 0.20004025E+02</pdfrwt>
<totfact> 0.12628007E+06</totfact>
</mgrwt>
</event>
<event>
 5    1  0.4710515E-007  0.2000304E+02  0.7818608E-02  0.1745268E+00
         -4   -1    0    0    0  501 -0.00000000000E+00  0.00000000000E+00  0.11826166053E+03  0.11827018538E+03  0.14200000000E+01 0. -1.
          4   -1    0    0  501    0  0.00000000000E+00 -0.00000000000E+00 -0.23518207355E+00  0.14393438115E+01  0.14200000000E+01 0.  1.
       1023    2    1    2    0    0  0.00000000000E+00  0.00000000000E+00  0.11802647845E+03  0.11970952919E+03  0.20003043866E+02 0.  0.
        -13    1    3    3    0    0  0.50146898062E+01  0.86522570349E+01  0.58397007964E+02  0.59247197210E+02  0.10570000000E+00 0.  1.
         13    1    3    3    0    0 -0.50146898062E+01 -0.86522570349E+01  0.59629470488E+02  0.60462331983E+02  0.10570000000E+00 0. -1.
<mgrwt>
<rscale>  0 0.20003044E+02</rscale>
<asrwt>0</asrwt>
<pdfrwt beam="2">  1        4 0.12946550E-03 0.20003044E+02</pdfrwt>
<pdfrwt beam="1">  1       -4 0.18287376E-01 0.20003044E+02</pdfrwt>
<totfact> 0.92703262E+05</totfact>
</mgrwt>
</event>
<event>
 4    1  0.4710515E-007  0.2010910E+02  0.7818608E-02  0.1743167E+00
          4   -1    0    0  501    0  0.00000000000E+00  0.00000000000E+00  0.24091464257E+02  0.24133276819E+02  0.14200000000E+01 0. -1.
         -4   -1    0    0    0  501 -0.00000000000E+00 -0.00000000000E+00 -0.40292509239E+01  0.42721496940E+01  0.14200000000E+01 0.  1.
        -13    1    1    2    0    0 -0.99151320547E+01 -0.16471591509E+01  0.96856383465E+01  0.13958715543E+02  0.10570000000E+00 0. -1.
         13    1    1    2    0    0  0.99151320547E+01  0.16471591509E+01  0.10376574986E+02  0.14446710971E+02  0.10570000000E+00 0.  1.
<mgrwt>
<rscale>  0 0.20109099E+02</rscale>
<asrwt>0</asrwt>
<pdfrwt beam="1">  1        4 0.37282800E-02 0.20109099E+02</pdfrwt>
<pdfrwt beam="2">  1       -4 0.64178562E-03 0.20109099E+02</pdfrwt>
<totfact> 0.12401834E+06</totfact>
</mgrwt>
</event>
<event>
 5    1  0.4710515E-007  0.2001038E+02  0.7818608E-02  0.1745122E+00
          4   -1    0    0  501    0  0.00000000000E+00  0.00000000000E+00  0.25395559494E+01  0.29095952330E+01  0.14200000000E+01 0. -1.
         -4   -1    0    0    0  501 -0.00000000000E+00 -0.00000000000E+00 -0.36356230028E+02  0.36383950608E+02  0.14200000000E+01 0.  1.
       1023    2    1    2    0    0  0.00000000000E+00  0.00000000000E+00 -0.33816674079E+02  0.39293545841E+02  0.20010379782E+02 0.  0.
        -13    1    3    3    0    0 -0.28019347887E+01 -0.96039122474E+01 -0.17068868351E+02  0.19784928817E+02  0.10570000000E+00 0. -1.
         13    1    3    3    0    0  0.28019347887E+01  0.96039122474E+01 -0.16747805728E+02  0.19508617024E+02  0.10570000000E+00 0.  1.
<mgrwt>
<rscale>  0 0.20010380E+02</rscale>
<asrwt>0</asrwt>
<pdfrwt beam="1">  1        4 0.42129786E-03 0.20010380E+02</pdfrwt>
<pdfrwt beam="2">  1       -4 0.56238627E-02 0.20010380E+02</pdfrwt>
<totfact> 0.11983023E+06</totfact>
</mgrwt>
</event>
<event>
 4    1  0.4710515E-007  0.2014228E+02  0.7818608E-02  0.1742513E+00
          4   -1    0    0  501    0  0.00000000000E+00  0.00000000000E+00  0.19033388713E+01  0.23746786854E+01  0.14200000000E+01 0. -1.
         -4   -1    0    0    0  501 -0.00000000000E+00 -0.00000000000E+00 -0.46934905314E+02  0.46956381215E+02  0.14200000000E+01 0.  1.
        -13    1    1    2    0    0 -0.67931463368E+00  0.10046340232E+02 -0.22912819899E+02  0.25027962535E+02  0.10570000000E+00 0. -1.
         13    1    1    2    0    0  0.67931463368E+00 -0.10046340232E+02 -0.22118746543E+02  0.24303097365E+02  0.10570000000E+00 0.  1.
<mgrwt>
<rscale>  0 0.20142281E+02</rscale>
<asrwt>0</asrwt>
<pdfrwt beam="1">  1        4 0.33073030E-03 0.20142281E+02</pdfrwt>
<pdfrwt beam="2">  1       -4 0.72586628E-02 0.20142281E+02</pdfrwt>
<totfact> 0.11384263E+06</totfact>
</mgrwt>
</event>
<event>
 5    1  0.4710515E-007  0.2000421E+02  0.7818608E-02  0.1745244E+00
          4   -1    0    0  501    0  0.00000000000E+00  0.00000000000E+00  0.17480562235E+02  0.17538142890E+02  0.14200000000E+01 0.  1.
         -4   -1    0    0    0  501 -0.00000000000E+00 -0.00000000000E+00 -0.55667839632E+01  0.57450399209E+01  0.14200000000E+01 0. -1.
       1023    2    1    2    0    0  0.00000000000E+00  0.00000000000E+00  0.11913778271E+02  0.23283182811E+02  0.20004211784E+02 0.  0.
        -13    1    3    3    0    0  0.91805430133E+01  0.39671776096E+01  0.58400239165E+01  0.11581792609E+02  0.10570000000E+00 0. -1.
         13    1    3    3    0    0 -0.91805430133E+01 -0.39671776096E+01  0.60737543548E+01  0.11701390202E+02  0.10570000000E+00 0.  1.
<mgrwt>
<rscale>  0 0.20004212E+02</rscale>
<asrwt>0</asrwt>
<pdfrwt beam="1">  1        4 0.27074585E-02 0.20004212E+02</pdfrwt>
<pdfrwt beam="2">  1       -4 0.87456959E-03 0.20004212E+02</pdfrwt>
<totfact> 0.12816902E+06</totfact>
</mgrwt>
</event>
<event>
 4    1  0.4710515E-007  0.2001259E+02  0.7818608E-02  0.1745078E+00
          4   -1    0    0  501    0  0.00000000000E+00  0.00000000000E+00  0.45987627143E+02  0.46009545208E+02  0.14200000000E+01 0.  1.
         -4   -1    0    0    0  501 -0.00000000000E+00 -0.00000000000E+00 -0.19207943813E+01  0.23886923316E+01  0.14200000000E+01 0. -1.
        -13    1    1    2    0    0  0.55267814863E+01 -0.83359892412E+01  0.22720465159E+02  0.24824680054E+02  0.10570000000E+00 0. -1.
         13    1    1    2    0    0 -0.55267814863E+01  0.83359892412E+01  0.21346367602E+02  0.23573557486E+02  0.10570000000E+00 0.  1.
<mgrwt>
<rscale>  0 0.20012587E+02</rscale>
<asrwt>0</asrwt>
<pdfrwt beam="1">  1        4 0.71126973E-02 0.20012587E+02</pdfrwt>
<pdfrwt beam="2">  1       -4 0.33318500E-03 0.20012587E+02</pdfrwt>
<totfact> 0.11573404E+06</totfact>
</mgrwt>
</event>
<event>
 4    1  0.4710515E-007  0.2002055E+02  0.7818608E-02  0.1744920E+00
          4   -1    0    0  501    0  0.00000000000E+00  0.00000000000E+00  0.36208018484E+01  0.38892937695E+01  0.14200000000E+01 0.  1.
         -4   -1    0    0    0  501 -0.00000000000E+00 -0.00000000000E+00 -0.26397311906E+02  0.26435477599E+02  0.14200000000E+01 0. -1.
        -13    1    1    2    0    0 -0.52931215820E+01  0.84865829331E+01 -0.10791561334E+02  0.14714217427E+02  0.10570000000E+00 0.  1.
         13    1    1    2    0    0  0.52931215820E+01 -0.84865829331E+01 -0.11984948724E+02  0.15610553942E+02  0.10570000000E+00 0. -1.
<mgrwt>
<rscale>  0 0.20020548E+02</rscale>
<asrwt>0</asrwt>
<pdfrwt beam="1">  1        4 0.58063550E-03 0.20020548E+02</pdfrwt>
<pdfrwt beam="2">  1       -4 0.40847138E-02 0.20020548E+02</pdfrwt>
<totfact> 0.12412885E+06</totfact>
</mgrwt>
</event>
<event>
 5    1  0.4710515E-007  0.2000531E+02  0.7818608E-02  0.1745222E+00
          4   -1    0    0  501    0  0.00000000000E+00  0.00000000000E+00  0.22898639976E+02  0.22942626544E+02  0.14200000000E+01 0. -1.
         -4   -1    0    0    0  501 -0.00000000000E+00 -0.00000000000E+00 -0.42044413410E+01  0.44377614841E+01  0.14200000000E+01 0.  1.
       1023    2    1    2    0    0  0.00000000000E+00  0.00000000000E+00  0.18694198635E+02  0.27380388028E+02  0.20005313943E+02 0.  0.
        -13    1    3    3    0    0  0.16202706528E+01  0.98690228828E+01  0.95361738129E+01  0.13819286274E+02  0.10570000000E+00 0. -1.
         13    1    3    3    0    0 -0.16202706528E+01 -0.98690228828E+01  0.91580248219E+01  0.13561101754E+02  0.10570000000E+00 0.  1.
<mgrwt>
<rscale>  0 0.20005314E+02</rscale>
<asrwt>0</asrwt>
<pdfrwt beam="1">  1        4 0.35441990E-02 0.20005314E+02</pdfrwt>
<pdfrwt beam="2">  1       -4 0.66816841E-03 0.20005314E+02</pdfrwt>
<totfact> 0.12588087E+06</totfact>
</mgrwt>
</event>
<event>
 4    1  0.4710515E-007  0.2001969E+02  0.7818608E-02  0.1744937E+00
          4   -1    0    0  501    0  0.00000000000E+00  0.00000000000E+00  0.35757224826E+01  0.38473615989E+01  0.14200000000E+01 0.  1.
         -4   -1    0    0    0  501 -0.00000000000E+00 -0.00000000000E+00 -0.26704850333E+02  0.26742577125E+02  0.14200000000E+01 0. -1.
        -13    1    1    2    0    0 -0.86485324581E+01 -0.50342705525E+01 -0.11887917156E+02  0.15539457534E+02  0.10570000000E+00 0.  1.
         13    1    1    2    0    0  0.86485324581E+01  0.50342705525E+01 -0.11241210695E+02  0.15050481190E+02  0.10570000000E+00 0. -1.
<mgrwt>
<rscale>  0 0.20019685E+02</rscale>
<asrwt>0</asrwt>
<pdfrwt beam="1">  1        4 0.57390855E-03 0.20019685E+02</pdfrwt>
<pdfrwt beam="2">  1       -4 0.41322358E-02 0.20019685E+02</pdfrwt>
<totfact> 0.12400232E+06</totfact>
</mgrwt>
</event>
<event>
 5    1  0.4710515E-007  0.2000706E+02  0.7818608E-02  0.1745188E+00
          4   -1    0    0  501    0  0.00000000000E+00  0.00000000000E+00  0.40351995532E+02  0.40376972935E+02  0.14200000000E+01 0. -1.
         -4   -1    0    0    0  501 -0.00000000000E+00 -0.00000000000E+00 -0.22487240224E+01  0.26595412629E+01  0.14200000000E+01 0.  1.
       1023    2    1    2    0    0  0.00000000000E+00  0.00000000000E+00  0.38103271510E+02  0.43036514198E+02  0.20007055120E+02 0.  0.
        -13    1    3    3    0    0  0.86882463748E+01 -0.49571119535E+01  0.18990522423E+02  0.21464149142E+02  0.10570000000E+00 0.  1.
         13    1    3    3    0    0 -0.86882463748E+01  0.49571119535E+01  0.19112749087E+02  0.21572365056E+02  0.10570000000E+00 0. -1.
<mgrwt>
<rscale>  0 0.20007055E+02</rscale>
<asrwt>0</asrwt>
<pdfrwt beam="1">  1        4 0.62415212E-02 0.20007055E+02</pdfrwt>
<pdfrwt beam="2">  1       -4 0.37948025E-03 0.20007055E+02</pdfrwt>
<totfact> 0.11815090E+06</totfact>
</mgrwt>
</event>
<event>
 5    1  0.4710515E-007  0.2000449E+02  0.7818608E-02  0.1745239E+00
          4   -1    0    0  501    0  0.00000000000E+00  0.00000000000E+00  0.19036318259E+01  0.23749134992E+01  0.14200000000E+01 0. -1.
         -4   -1    0    0    0  501 -0.00000000000E+00 -0.00000000000E+00 -0.46282501307E+02  0.46304279794E+02  0.14200000000E+01 0.  1.
       1023    2    1    2    0    0  0.00000000000E+00  0.00000000000E+00 -0.44378869481E+02  0.48679193293E+02  0.20004494576E+02 0.  0.
        -13    1    3    3    0    0 -0.12569753893E+01  0.99223780640E+01 -0.22154615016E+02  0.24307852899E+02  0.10570000000E+00 0. -1.
         13    1    3    3    0    0  0.12569753893E+01 -0.99223780640E+01 -0.22224254465E+02  0.24371340394E+02  0.10570000000E+00 0.  1.
<mgrwt>
<rscale>  0 0.20004495E+02</rscale>
<asrwt>0</asrwt>
<pdfrwt beam="1">  1        4 0.33079418E-03 0.20004495E+02</pdfrwt>
<pdfrwt beam="2">  1       -4 0.71583117E-02 0.20004495E+02</pdfrwt>
<totfact> 0.11570876E+06</totfact>
</mgrwt>
</event>
<event>
 4    1  0.4710515E-007  0.2001258E+02  0.7818608E-02  0.1745078E+00
          4   -1    0    0  501    0  0.00000000000E+00  0.00000000000E+00  0.31830996472E+00  0.14552392359E+01  0.14200000000E+01 0. -1.
         -4   -1    0    0    0  501 -0.00000000000E+00 -0.00000000000E+00 -0.11176582622E+03  0.11177484651E+03  0.14200000000E+01 0.  1.
        -13    1    1    2    0    0  0.80869701869E+01 -0.58900005592E+01 -0.56590981554E+02  0.57468613688E+02  0.10570000000E+00 0. -1.
         13    1    1    2    0    0 -0.80869701869E+01  0.58900005592E+01 -0.54856534704E+02  0.55761472054E+02  0.10570000000E+00 0.  1.
<mgrwt>
<rscale>  0 0.20012582E+02</rscale>
<asrwt>0</asrwt>
<pdfrwt beam="1">  1        4 0.13712082E-03 0.20012582E+02</pdfrwt>
<pdfrwt beam="2">  1       -4 0.17282881E-01 0.20012582E+02</pdfrwt>
<totfact> 0.94279510E+05</totfact>
</mgrwt>
</event>
<event>
 5    1  0.4710515E-007  0.2000127E+02  0.7818608E-02  0.1745303E+00
          4   -1    0    0  501    0  0.00000000000E+00  0.00000000000E+00  0.60476648294E+02  0.60493316894E+02  0.14200000000E+01 0. -1.
         -4   -1    0    0    0  501 -0.00000000000E+00 -0.00000000000E+00 -0.13288228743E+01  0.19447802527E+01  0.14200000000E+01 0.  1.
       1023    2    1    2    0    0  0.00000000000E+00  0.00000000000E+00  0.59147825419E+02  0.62438097147E+02  0.20001268046E+02 0.  0.
        -13    1    3    3    0    0  0.30219574087E+01  0.95325364790E+01  0.29556793791E+02  0.31202831763E+02  0.10570000000E+00 0. -1.
         13    1    3    3    0    0 -0.30219574087E+01 -0.95325364790E+01  0.29591031628E+02  0.31235265384E+02  0.10570000000E+00 0.  1.
<mgrwt>
<rscale>  0 0.20001268E+02</rscale>
<asrwt>0</asrwt>
<pdfrwt beam="1">  1        4 0.93527638E-02 0.20001268E+02</pdfrwt>
<pdfrwt beam="2">  1       -4 0.25309781E-03 0.20001268E+02</pdfrwt>
<totfact> 0.11024825E+06</totfact>
</mgrwt>
</event>
<event>
 4    1  0.4710515E-007  0.2005418E+02  0.7818608E-02  0.1744253E+00
          4   -1    0    0  501    0  0.00000000000E+00  0.00000000000E+00  0.59959291840E+02  0.59976104225E+02  0.14200000000E+01 0. -1.
         -4   -1    0    0    0  501 -0.00000000000E+00 -0.00000000000E+00 -0.13560379684E+01  0.19634762468E+01  0.14200000000E+01 0.  1.
        -13    1    1    2    0    0  0.84004987585E+01  0.54419354457E+01  0.31124569493E+02  0.32694541431E+02  0.10570000000E+00 0. -1.
         13    1    1    2    0    0 -0.84004987585E+01 -0.54419354457E+01  0.27478684379E+02  0.29245039041E+02  0.10570000000E+00 0.  1.
<mgrwt>
<rscale>  0 0.20054183E+02</rscale>
<asrwt>0</asrwt>
<pdfrwt beam="1">  1        4 0.92725246E-02 0.20054183E+02</pdfrwt>
<pdfrwt beam="2">  1       -4 0.25664054E-03 0.20054183E+02</pdfrwt>
<totfact> 0.10985066E+06</totfact>
</mgrwt>
</event>
<event>
 5    1  0.5031792E-007  0.2000151E+02  0.7818608E-02  0.1745298E+00
          4   -1    0    0  501    0  0.00000000000E+00  0.00000000000E+00  0.73347008823E+01  0.74708926530E+01  0.14200000000E+01 0.  1.
         -4   -1    0    0    0  501 -0.00000000000E+00 -0.00000000000E+00 -0.13336212842E+02  0.13411598449E+02  0.14200000000E+01 0. -1.
       1023    2    1    2    0    0  0.00000000000E+00  0.00000000000E+00 -0.60015119598E+01  0.20882491102E+02  0.20001507164E+02 0.  0.
        -13    1    3    3    0    0 -0.99715122987E+01 -0.75614822196E+00 -0.29664123555E+01  0.10431375384E+02  0.10570000000E+00 0. -1.
         13    1    3    3    0    0  0.99715122987E+01  0.75614822196E+00 -0.30350996042E+01  0.10451115718E+02  0.10570000000E+00 0.  1.
<mgrwt>
<rscale>  0 0.20001507E+02</rscale>
<asrwt>0</asrwt>
<pdfrwt beam="1">  1        4 0.11446907E-02 0.20001507E+02</pdfrwt>
<pdfrwt beam="2">  1       -4 0.20680002E-02 0.20001507E+02</pdfrwt>
<totfact> 0.12959701E+06</totfact>
</mgrwt>
</event>
<event>
 5    1  0.4710515E-007  0.2000299E+02  0.7818608E-02  0.1745269E+00
          4   -1    0    0  501    0  0.00000000000E+00  0.00000000000E+00  0.17945417420E+02  0.18001511225E+02  0.14200000000E+01 0.  1.
         -4   -1    0    0    0  501 -0.00000000000E+00 -0.00000000000E+00 -0.54176818425E+01  0.56006853640E+01  0.14200000000E+01 0. -1.
       1023    2    1    2    0    0  0.00000000000E+00  0.00000000000E+00  0.12527735577E+02  0.23602196589E+02  0.20002987905E+02 0.  0.
        -13    1    3    3    0    0  0.94169700161E+00 -0.99560867029E+01  0.63710607779E+01  0.11857994923E+02  0.10570000000E+00 0.  1.
         13    1    3    3    0    0 -0.94169700161E+00  0.99560867029E+01  0.61566747995E+01  0.11744201665E+02  0.10570000000E+00 0. -1.
<mgrwt>
<rscale>  0 0.20002988E+02</rscale>
<asrwt>0</asrwt>
<pdfrwt beam="1">  1        4 0.27792255E-02 0.20002988E+02</pdfrwt>
<pdfrwt beam="2">  1       -4 0.85188163E-03 0.20002988E+02</pdfrwt>
<totfact> 0.12800366E+06</totfact>
</mgrwt>
</event>
<event>
 5    1  0.4710515E-007  0.2001201E+02  0.7818608E-02  0.1745089E+00
          4   -1    0    0  501    0  0.00000000000E+00  0.00000000000E+00  0.15459376403E+02  0.15524455506E+02  0.14200000000E+01 0.  1.
         -4   -1    0    0    0  501 -0.00000000000E+00 -0.00000000000E+00 -0.63186938169E+01  0.64762868645E+01  0.14200000000E+01 0. -1.
       1023    2    1    2    0    0  0.00000000000E+00  0.00000000000E+00  0.91406825857E+01  0.22000742371E+02  0.20012011061E+02 0.  0.
        -13    1    3    3    0    0 -0.79313818268E+01  0.60942769865E+01  0.42967211620E+01  0.10886689805E+02  0.10570000000E+00 0. -1.
         13    1    3    3    0    0  0.79313818268E+01 -0.60942769865E+01  0.48439614237E+01  0.11114052566E+02  0.10570000000E+00 0.  1.
<mgrwt>
<rscale>  0 0.20012011E+02</rscale>
<asrwt>0</asrwt>
<pdfrwt beam="1">  1        4 0.23954942E-02 0.20012011E+02</pdfrwt>
<pdfrwt beam="2">  1       -4 0.98923538E-03 0.20012011E+02</pdfrwt>
<totfact> 0.12880399E+06</totfact>
</mgrwt>
</event>
<event>
 5    1  0.4710515E-007  0.2000162E+02  0.7818608E-02  0.1745296E+00
          4   -1    0    0  501    0  0.00000000000E+00  0.00000000000E+00  0.27456800682E+02  0.27493495662E+02  0.14200000000E+01 0.  1.
         -4   -1    0    0    0  501 -0.00000000000E+00 -0.00000000000E+00 -0.34635622438E+01  0.37433492245E+01  0.14200000000E+01 0. -1.
       1023    2    1    2    0    0  0.00000000000E+00  0.00000000000E+00  0.23993238439E+02  0.31236844886E+02  0.20001624626E+02 0.  0.
        -13    1    3    3    0    0  0.21245911196E+01 -0.97719401231E+01  0.12026790537E+02  0.15641597243E+02  0.10570000000E+00 0. -1.
         13    1    3    3    0    0 -0.21245911196E+01  0.97719401231E+01  0.11966447902E+02  0.15595247644E+02  0.10570000000E+00 0.  1.
<mgrwt>
<rscale>  0 0.20001625E+02</rscale>
<asrwt>0</asrwt>
<pdfrwt beam="1">  1        4 0.42484681E-02 0.20001625E+02</pdfrwt>
<pdfrwt beam="2">  1       -4 0.55720048E-03 0.20001625E+02</pdfrwt>
<totfact> 0.12389579E+06</totfact>
</mgrwt>
</event>
<event>
 4    1  0.4710515E-007  0.2007505E+02  0.7818608E-02  0.1743840E+00
         -4   -1    0    0    0  501 -0.00000000000E+00  0.00000000000E+00  0.11432629395E+02  0.11520478067E+02  0.14200000000E+01 0.  1.
          4   -1    0    0  501    0  0.00000000000E+00 -0.00000000000E+00 -0.86328625436E+01  0.87488693953E+01  0.14200000000E+01 0. -1.
        -13    1    1    2    0    0 -0.71585160102E+01 -0.70187675748E+01  0.91218074514E+00  0.10067308277E+02  0.10570000000E+00 0.  1.
         13    1    1    2    0    0  0.71585160102E+01  0.70187675748E+01  0.18875861063E+01  0.10202039185E+02  0.10570000000E+00 0. -1.
<mgrwt>
<rscale>  0 0.20075053E+02</rscale>
<asrwt>0</asrwt>
<pdfrwt beam="2">  1        4 0.13438139E-02 0.20075053E+02</pdfrwt>
<pdfrwt beam="1">  1       -4 0.17745473E-02 0.20075053E+02</pdfrwt>
<totfact> 0.12898973E+06</totfact>
</mgrwt>
</event>
<event>
 5    1  0.4710515E-007  0.2000163E+02  0.7818608E-02  0.1745296E+00
          4   -1    0    0  501    0  0.00000000000E+00  0.00000000000E+00  0.14160521930E+01  0.20053936804E+01  0.14200000000E+01 0. -1.
         -4   -1    0    0    0  501 -0.00000000000E+00 -0.00000000000E+00 -0.57864787846E+02  0.57882208600E+02  0.14200000000E+01 0.  1.
       1023    2    1    2    0    0  0.00000000000E+00  0.00000000000E+00 -0.56448735653E+02  0.59887602281E+02  0.20001628687E+02 0.  0.
        -13    1    3    3    0    0 -0.92384802727E+01 -0.38279537693E+01 -0.28370045164E+02  0.30081113392E+02  0.10570000000E+00 0.  1.
         13    1    3    3    0    0  0.92384802727E+01  0.38279537693E+01 -0.28078690489E+02  0.29806488888E+02  0.10570000000E+00 0. -1.
<mgrwt>
<rscale>  0 0.20001629E+02</rscale>
<asrwt>0</asrwt>
<pdfrwt beam="1">  1        4 0.26452825E-03 0.20001629E+02</pdfrwt>
<pdfrwt beam="2">  1       -4 0.89489476E-02 0.20001629E+02</pdfrwt>
<totfact> 0.11121350E+06</totfact>
</mgrwt>
</event>
<event>
 5    1  0.4710515E-007  0.2000374E+02  0.7818608E-02  0.1745254E+00
         -4   -1    0    0    0  501 -0.00000000000E+00  0.00000000000E+00  0.91942022860E+02  0.91952987812E+02  0.14200000000E+01 0.  1.
          4   -1    0    0  501    0  0.00000000000E+00 -0.00000000000E+00 -0.60892808841E+00  0.15450545029E+01  0.14200000000E+01 0. -1.
       1023    2    1    2    0    0  0.00000000000E+00  0.00000000000E+00  0.91333094772E+02  0.93498042315E+02  0.20003742555E+02 0.  0.
        -13    1    3    3    0    0  0.99796839212E+01 -0.65552932582E+00  0.45897743797E+02  0.46974864215E+02  0.10570000000E+00 0.  1.
         13    1    3    3    0    0 -0.99796839212E+01  0.65552932582E+00  0.45435350974E+02  0.46523178100E+02  0.10570000000E+00 0. -1.
<mgrwt>
<rscale>  0 0.20003743E+02</rscale>
<asrwt>0</asrwt>
<pdfrwt beam="2">  1        4 0.16653439E-03 0.20003743E+02</pdfrwt>
<pdfrwt beam="1">  1       -4 0.14217783E-01 0.20003743E+02</pdfrwt>
<totfact> 0.99867005E+05</totfact>
</mgrwt>
</event>
<event>
 5    1  0.4813423E-007  0.2000253E+02  0.7818608E-02  0.1745278E+00
          4   -1    0    0  501    0  0.00000000000E+00  0.00000000000E+00  0.45941007443E+02  0.45962947739E+02  0.14200000000E+01 0.  1.
         -4   -1    0    0    0  501 -0.00000000000E+00 -0.00000000000E+00 -0.19207889797E+01  0.23886879881E+01  0.14200000000E+01 0. -1.
       1023    2    1    2    0    0  0.00000000000E+00  0.00000000000E+00  0.44020218464E+02  0.48351635728E+02  0.20002525939E+02 0.  0.
        -13    1    3    3    0    0 -0.96040204371E+01  0.27881930756E+01  0.21880851268E+02  0.24058139036E+02  0.10570000000E+00 0.  1.
         13    1    3    3    0    0  0.96040204371E+01 -0.27881930756E+01  0.22139367196E+02  0.24293496691E+02  0.10570000000E+00 0. -1.
<mgrwt>
<rscale>  0 0.20002526E+02</rscale>
<asrwt>0</asrwt>
<pdfrwt beam="1">  1        4 0.71055263E-02 0.20002526E+02</pdfrwt>
<pdfrwt beam="2">  1       -4 0.33318599E-03 0.20002526E+02</pdfrwt>
<totfact> 0.11587150E+06</totfact>
</mgrwt>
</event>
<event>
 5    1  0.4813089E-007  0.2000357E+02  0.7818608E-02  0.1745257E+00
         -4   -1    0    0    0  501 -0.00000000000E+00  0.00000000000E+00  0.13611700927E+02  0.13685569119E+02  0.14200000000E+01 0. -1.
          4   -1    0    0  501    0  0.00000000000E+00 -0.00000000000E+00 -0.71858204990E+01  0.73247809690E+01  0.14200000000E+01 0.  1.
       1023    2    1    2    0    0  0.00000000000E+00  0.00000000000E+00  0.64258804278E+01  0.21010350088E+02  0.20003571470E+02 0.  0.
        -13    1    3    3    0    0  0.99979248947E+01  0.20449862926E+00  0.33764125593E+01  0.10555172009E+02  0.10570000000E+00 0. -1.
         13    1    3    3    0    0 -0.99979248947E+01 -0.20449862926E+00  0.30494678685E+01  0.10455178079E+02  0.10570000000E+00 0.  1.
<mgrwt>
<rscale>  0 0.20003571E+02</rscale>
<asrwt>0</asrwt>
<pdfrwt beam="2">  1        4 0.11218823E-02 0.20003571E+02</pdfrwt>
<pdfrwt beam="1">  1       -4 0.21104793E-02 0.20003571E+02</pdfrwt>
<totfact> 0.12949420E+06</totfact>
</mgrwt>
</event>
<event>
 5    1  0.4710515E-007  0.2000574E+02  0.7818608E-02  0.1745214E+00
          4   -1    0    0  501    0  0.00000000000E+00  0.00000000000E+00  0.32749482142E+01  0.35695498044E+01  0.14200000000E+01 0. -1.
         -4   -1    0    0    0  501 -0.00000000000E+00 -0.00000000000E+00 -0.28924548055E+02  0.28959383284E+02  0.14200000000E+01 0.  1.
       1023    2    1    2    0    0  0.00000000000E+00  0.00000000000E+00 -0.25649599840E+02  0.32528933088E+02  0.20005737074E+02 0.  0.
        -13    1    3    3    0    0 -0.94520628495E+01  0.32711705341E+01 -0.12719956312E+02  0.16181795631E+02  0.10570000000E+00 0.  1.
         13    1    3    3    0    0  0.94520628495E+01 -0.32711705341E+01 -0.12929643528E+02  0.16347137457E+02  0.10570000000E+00 0. -1.
<mgrwt>
<rscale>  0 0.20005737E+02</rscale>
<asrwt>0</asrwt>
<pdfrwt beam="1">  1        4 0.52917950E-03 0.20005737E+02</pdfrwt>
<pdfrwt beam="2">  1       -4 0.44752716E-02 0.20005737E+02</pdfrwt>
<totfact> 0.12318363E+06</totfact>
</mgrwt>
</event>
<event>
 5    1  0.4710515E-007  0.2001048E+02  0.7818608E-02  0.1745120E+00
         -4   -1    0    0    0  501 -0.00000000000E+00  0.00000000000E+00  0.39197027165E+02  0.39222740070E+02  0.14200000000E+01 0. -1.
          4   -1    0    0  501    0  0.00000000000E+00 -0.00000000000E+00 -0.23278074837E+01  0.27267357190E+01  0.14200000000E+01 0.  1.
       1023    2    1    2    0    0  0.00000000000E+00  0.00000000000E+00  0.36869219682E+02  0.41949475789E+02  0.20010476232E+02 0.  0.
        -13    1    3    3    0    0  0.94590796550E+01 -0.32552071278E+01  0.18752927123E+02  0.21254505629E+02  0.10570000000E+00 0.  1.
         13    1    3    3    0    0 -0.94590796550E+01  0.32552071278E+01  0.18116292559E+02  0.20694970160E+02  0.10570000000E+00 0. -1.
<mgrwt>
<rscale>  0 0.20010476E+02</rscale>
<asrwt>0</asrwt>
<pdfrwt beam="2">  1        4 0.39078894E-03 0.20010476E+02</pdfrwt>
<pdfrwt beam="1">  1       -4 0.60629765E-02 0.20010476E+02</pdfrwt>
<totfact> 0.11860255E+06</totfact>
</mgrwt>
</event>
<event>
 4    1  0.4710515E-007  0.2005457E+02  0.7818608E-02  0.1744245E+00
          4   -1    0    0  501    0  0.00000000000E+00  0.00000000000E+00  0.14425726260E+02  0.14495446807E+02  0.14200000000E+01 0. -1.
         -4   -1    0    0    0  501 -0.00000000000E+00 -0.00000000000E+00 -0.68100041322E+01  0.69564758521E+01  0.14200000000E+01 0.  1.
        -13    1    1    2    0    0 -0.70423627910E+01 -0.71207634767E+01  0.32891811690E+01  0.10541822965E+02  0.10570000000E+00 0.  1.
         13    1    1    2    0    0  0.70423627910E+01  0.71207634767E+01  0.43265409587E+01  0.10910099694E+02  0.10570000000E+00 0. -1.
<mgrwt>
<rscale>  0 0.20054570E+02</rscale>
<asrwt>0</asrwt>
<pdfrwt beam="1">  1        4 0.22359726E-02 0.20054570E+02</pdfrwt>
<pdfrwt beam="2">  1       -4 0.10643231E-02 0.20054570E+02</pdfrwt>
<totfact> 0.12856496E+06</totfact>
</mgrwt>
</event>
<event>
 5    1  0.4710515E-007  0.2001124E+02  0.7818608E-02  0.1745105E+00
         -4   -1    0    0    0  501 -0.00000000000E+00  0.00000000000E+00  0.44903092589E+02  0.44925539775E+02  0.14200000000E+01 0.  1.
          4   -1    0    0  501    0  0.00000000000E+00 -0.00000000000E+00 -0.19779962897E+01  0.24349269644E+01  0.14200000000E+01 0. -1.
       1023    2    1    2    0    0  0.00000000000E+00  0.00000000000E+00  0.42925096300E+02  0.47360466740E+02  0.20011244775E+02 0.  0.
        -13    1    3    3    0    0  0.90628803707E+01 -0.42336315709E+01  0.20978271812E+02  0.23241310153E+02  0.10570000000E+00 0.  1.
         13    1    3    3    0    0 -0.90628803707E+01  0.42336315709E+01  0.21946824487E+02  0.24119156587E+02  0.10570000000E+00 0. -1.
<mgrwt>
<rscale>  0 0.20011245E+02</rscale>
<asrwt>0</asrwt>
<pdfrwt beam="2">  1        4 0.34118234E-03 0.20011245E+02</pdfrwt>
<pdfrwt beam="1">  1       -4 0.69450433E-02 0.20011245E+02</pdfrwt>
<totfact> 0.11619485E+06</totfact>
</mgrwt>
</event>
<event>
 4    1  0.4710515E-007  0.2005008E+02  0.7818608E-02  0.1744334E+00
         -4   -1    0    0    0  501 -0.00000000000E+00  0.00000000000E+00  0.94194836501E+00  0.17040148832E+01  0.14200000000E+01 0. -1.
          4   -1    0    0  501    0  0.00000000000E+00 -0.00000000000E+00 -0.75195159344E+02  0.75208565927E+02  0.14200000000E+01 0.  1.
        -13    1    1    2    0    0  0.52740119493E+01  0.85134460911E+01 -0.35427036407E+02  0.36815486517E+02  0.10570000000E+00 0. -1.
         13    1    1    2    0    0 -0.52740119493E+01 -0.85134460911E+01 -0.38826174572E+02  0.40097094293E+02  0.10570000000E+00 0.  1.
<mgrwt>
<rscale>  0 0.20050081E+02</rscale>
<asrwt>0</asrwt>
<pdfrwt beam="2">  1        4 0.11628134E-01 0.20050081E+02</pdfrwt>
<pdfrwt beam="1">  1       -4 0.20456697E-03 0.20050081E+02</pdfrwt>
<totfact> 0.10460691E+06</totfact>
</mgrwt>
</event>
<event>
 5    1  0.4710515E-007  0.2000895E+02  0.7818608E-02  0.1745150E+00
         -4   -1    0    0    0  501 -0.00000000000E+00  0.00000000000E+00  0.38027235725E+00  0.14700364164E+01  0.14200000000E+01 0.  1.
          4   -1    0    0  501    0  0.00000000000E+00 -0.00000000000E+00 -0.10708954257E+03  0.10709895671E+03  0.14200000000E+01 0. -1.
       1023    2    1    2    0    0  0.00000000000E+00  0.00000000000E+00 -0.10670927022E+03  0.10856899313E+03  0.20008945965E+02 0.  0.
        -13    1    3    3    0    0  0.24674823548E+01 -0.96947624255E+01 -0.53559068160E+02  0.54485427798E+02  0.10570000000E+00 0.  1.
         13    1    3    3    0    0 -0.24674823548E+01  0.96947624255E+01 -0.53150202056E+02  0.54083565330E+02  0.10570000000E+00 0. -1.
<mgrwt>
<rscale>  0 0.20008946E+02</rscale>
<asrwt>0</asrwt>
<pdfrwt beam="2">  1        4 0.16559857E-01 0.20008946E+02</pdfrwt>
<pdfrwt beam="1">  1       -4 0.14305569E-03 0.20008946E+02</pdfrwt>
<totfact> 0.95552298E+05</totfact>
</mgrwt>
</event>
<event>
 4    1  0.4710515E-007  0.2010978E+02  0.7818608E-02  0.1743154E+00
          4   -1    0    0  501    0  0.00000000000E+00  0.00000000000E+00  0.45045995002E+02  0.45068371012E+02  0.14200000000E+01 0. -1.
         -4   -1    0    0    0  501 -0.00000000000E+00 -0.00000000000E+00 -0.19944718963E+01  0.24483296643E+01  0.14200000000E+01 0.  1.
        -13    1    1    2    0    0 -0.85627274139E+01  0.52586147544E+01  0.22331557482E+02  0.24488425061E+02  0.10570000000E+00 0.  1.
         13    1    1    2    0    0  0.85627274139E+01 -0.52586147544E+01  0.20719965623E+02  0.23028275615E+02  0.10570000000E+00 0. -1.
<mgrwt>
<rscale>  0 0.20109779E+02</rscale>
<asrwt>0</asrwt>
<pdfrwt beam="1">  1        4 0.69667863E-02 0.20109779E+02</pdfrwt>
<pdfrwt beam="2">  1       -4 0.34347520E-03 0.20109779E+02</pdfrwt>
<totfact> 0.11498063E+06</totfact>
</mgrwt>
</event>
<event>
 5    1  0.4710515E-007  0.2000128E+02  0.7818608E-02  0.1745303E+00
          4   -1    0    0  501    0  0.00000000000E+00  0.00000000000E+00  0.72278800414E+00  0.15933682873E+01  0.14200000000E+01 0. -1.
         -4   -1    0    0    0  501 -0.00000000000E+00 -0.00000000000E+00 -0.85482348989E+02  0.85494142424E+02  0.14200000000E+01 0.  1.
       1023    2    1    2    0    0  0.00000000000E+00  0.00000000000E+00 -0.84759560985E+02  0.87087510711E+02  0.20001283544E+02 0.  0.
        -13    1    3    3    0    0  0.45366433713E+01  0.89117789433E+01 -0.42497127129E+02  0.43657965181E+02  0.10570000000E+00 0. -1.
         13    1    3    3    0    0 -0.45366433713E+01 -0.89117789433E+01 -0.42262433856E+02  0.43429545530E+02  0.10570000000E+00 0.  1.
<mgrwt>
<rscale>  0 0.20001284E+02</rscale>
<asrwt>0</asrwt>
<pdfrwt beam="1">  1        4 0.17907312E-03 0.20001284E+02</pdfrwt>
<pdfrwt beam="2">  1       -4 0.13219001E-01 0.20001284E+02</pdfrwt>
<totfact> 0.10184021E+06</totfact>
</mgrwt>
</event>
<event>
 5    1  0.4710515E-007  0.2000476E+02  0.7818608E-02  0.1745233E+00
          4   -1    0    0  501    0  0.00000000000E+00  0.00000000000E+00  0.16522691821E+01  0.21786219154E+01  0.14200000000E+01 0.  1.
         -4   -1    0    0    0  501 -0.00000000000E+00 -0.00000000000E+00 -0.51694590971E+02  0.51714090301E+02  0.14200000000E+01 0. -1.
       1023    2    1    2    0    0  0.00000000000E+00  0.00000000000E+00 -0.50042321788E+02  0.53892712216E+02  0.20004760933E+02 0.  0.
        -13    1    3    3    0    0  0.88393099690E+01  0.46781969558E+01 -0.24664625980E+02  0.26615294000E+02  0.10570000000E+00 0.  1.
         13    1    3    3    0    0 -0.88393099690E+01 -0.46781969558E+01 -0.25377695809E+02  0.27277418216E+02  0.10570000000E+00 0. -1.
<mgrwt>
<rscale>  0 0.20004761E+02</rscale>
<asrwt>0</asrwt>
<pdfrwt beam="1">  1        4 0.29618392E-03 0.20004761E+02</pdfrwt>
<pdfrwt beam="2">  1       -4 0.79950015E-02 0.20004761E+02</pdfrwt>
<totfact> 0.11354096E+06</totfact>
</mgrwt>
</event>
<event>
 5    1  0.5160634E-007  0.2000281E+02  0.7818608E-02  0.1745272E+00
          4   -1    0    0  501    0  0.00000000000E+00  0.00000000000E+00  0.91301444811E+01  0.92399100778E+01  0.14200000000E+01 0. -1.
         -4   -1    0    0    0  501 -0.00000000000E+00 -0.00000000000E+00 -0.10733535454E+02  0.10827057927E+02  0.14200000000E+01 0.  1.
       1023    2    1    2    0    0  0.00000000000E+00  0.00000000000E+00 -0.16033909733E+01  0.20066968005E+02  0.20002808360E+02 0.  0.
        -13    1    3    3    0    0 -0.99724171507E+01  0.75258786738E+00 -0.83950929667E+00  0.10036505402E+02  0.10570000000E+00 0. -1.
         13    1    3    3    0    0  0.99724171507E+01 -0.75258786738E+00 -0.76388167660E+00  0.10030462603E+02  0.10570000000E+00 0.  1.
<mgrwt>
<rscale>  0 0.20002808E+02</rscale>
<asrwt>0</asrwt>
<pdfrwt beam="1">  1        4 0.14202752E-02 0.20002808E+02</pdfrwt>
<pdfrwt beam="2">  1       -4 0.16669507E-02 0.20002808E+02</pdfrwt>
<totfact> 0.13006342E+06</totfact>
</mgrwt>
</event>
<event>
 5    1  0.4710515E-007  0.2000117E+02  0.7818608E-02  0.1745305E+00
         -4   -1    0    0    0  501 -0.00000000000E+00  0.00000000000E+00  0.89275359233E+02  0.89286651668E+02  0.14200000000E+01 0.  1.
          4   -1    0    0  501    0  0.00000000000E+00 -0.00000000000E+00 -0.65426079963E+00  0.15634759972E+01  0.14200000000E+01 0. -1.
       1023    2    1    2    0    0  0.00000000000E+00  0.00000000000E+00  0.88621098433E+02  0.90850127665E+02  0.20001165200E+02 0.  0.
        -13    1    3    3    0    0 -0.98207144948E+01 -0.18851131782E+01  0.44400820398E+02  0.45513120189E+02  0.10570000000E+00 0. -1.
         13    1    3    3    0    0  0.98207144948E+01  0.18851131782E+01  0.44220278035E+02  0.45337007476E+02  0.10570000000E+00 0.  1.
<mgrwt>
<rscale>  0 0.20001165E+02</rscale>
<asrwt>0</asrwt>
<pdfrwt beam="2">  1        4 0.17146382E-03 0.20001165E+02</pdfrwt>
<pdfrwt beam="1">  1       -4 0.13805476E-01 0.20001165E+02</pdfrwt>
<totfact> 0.10068716E+06</totfact>
</mgrwt>
</event>
<event>
 5    1  0.4710515E-007  0.2000125E+02  0.7818608E-02  0.1745303E+00
          4   -1    0    0  501    0  0.00000000000E+00  0.00000000000E+00  0.16558577176E+02  0.16619352517E+02  0.14200000000E+01 0.  1.
         -4   -1    0    0    0  501 -0.00000000000E+00 -0.00000000000E+00 -0.58834590509E+01  0.60523954269E+01  0.14200000000E+01 0. -1.
       1023    2    1    2    0    0  0.00000000000E+00  0.00000000000E+00  0.10675118125E+02  0.22671747944E+02  0.20001250157E+02 0.  0.
        -13    1    3    3    0    0  0.92191690268E+01  0.38740421907E+01  0.53454964763E+01  0.11339611347E+02  0.10570000000E+00 0.  1.
         13    1    3    3    0    0 -0.92191690268E+01 -0.38740421907E+01  0.53296216489E+01  0.11332136597E+02  0.10570000000E+00 0. -1.
<mgrwt>
<rscale>  0 0.20001250E+02</rscale>
<asrwt>0</asrwt>
<pdfrwt beam="1">  1        4 0.25651435E-02 0.20001250E+02</pdfrwt>
<pdfrwt beam="2">  1       -4 0.92281768E-03 0.20001250E+02</pdfrwt>
<totfact> 0.12855771E+06</totfact>
</mgrwt>
</event>
<event>
 5    1  0.4710515E-007  0.2000161E+02  0.7818608E-02  0.1745296E+00
          4   -1    0    0  501    0  0.00000000000E+00  0.00000000000E+00  0.82149218132E+02  0.82161490005E+02  0.14200000000E+01 0.  1.
         -4   -1    0    0    0  501 -0.00000000000E+00 -0.00000000000E+00 -0.78679262535E+00  0.16234046431E+01  0.14200000000E+01 0. -1.
       1023    2    1    2    0    0  0.00000000000E+00  0.00000000000E+00  0.81362425507E+02  0.83784894648E+02  0.20001607104E+02 0.  0.
        -13    1    3    3    0    0  0.93136222258E+01 -0.36415976499E+01  0.40724499338E+02  0.41934482365E+02  0.10570000000E+00 0.  1.
         13    1    3    3    0    0 -0.93136222258E+01  0.36415976499E+01  0.40637926169E+02  0.41850412282E+02  0.10570000000E+00 0. -1.
<mgrwt>
<rscale>  0 0.20001607E+02</rscale>
<asrwt>0</asrwt>
<pdfrwt beam="1">  1        4 0.12703640E-01 0.20001607E+02</pdfrwt>
<pdfrwt beam="2">  1       -4 0.18634378E-03 0.20001607E+02</pdfrwt>
<totfact> 0.10287505E+06</totfact>
</mgrwt>
</event>
<event>
 5    1  0.4710515E-007  0.2000524E+02  0.7818608E-02  0.1745224E+00
          4   -1    0    0  501    0  0.00000000000E+00  0.00000000000E+00  0.39146256788E+01  0.41642159172E+01  0.14200000000E+01 0. -1.
         -4   -1    0    0    0  501 -0.00000000000E+00 -0.00000000000E+00 -0.24498210525E+02  0.24539330043E+02  0.14200000000E+01 0.  1.
       1023    2    1    2    0    0  0.00000000000E+00  0.00000000000E+00 -0.20583584846E+02  0.28703545960E+02  0.20005238952E+02 0.  0.
        -13    1    3    3    0    0 -0.51366905938E+01 -0.85820648121E+01 -0.10380206909E+02  0.14415175846E+02  0.10570000000E+00 0. -1.
         13    1    3    3    0    0  0.51366905938E+01  0.85820648121E+01 -0.10203377938E+02  0.14288370114E+02  0.10570000000E+00 0.  1.
<mgrwt>
<rscale>  0 0.20005239E+02</rscale>
<asrwt>0</asrwt>
<pdfrwt beam="1">  1        4 0.62461241E-03 0.20005239E+02</pdfrwt>
<pdfrwt beam="2">  1       -4 0.37913177E-02 0.20005239E+02</pdfrwt>
<totfact> 0.12517349E+06</totfact>
</mgrwt>
</event>
<event>
 5    1  0.4710515E-007  0.2000499E+02  0.7818608E-02  0.1745229E+00
         -4   -1    0    0    0  501 -0.00000000000E+00  0.00000000000E+00  0.20821139457E+02  0.20869505224E+02  0.14200000000E+01 0. -1.
          4   -1    0    0  501    0  0.00000000000E+00 -0.00000000000E+00 -0.46450426465E+01  0.48572441968E+01  0.14200000000E+01 0.  1.
       1023    2    1    2    0    0  0.00000000000E+00  0.00000000000E+00  0.16176096811E+02  0.25726749421E+02  0.20004987572E+02 0.  0.
        -13    1    3    3    0    0  0.95319655759E+01  0.30280954721E+01  0.82228013469E+01  0.12948102734E+02  0.10570000000E+00 0.  1.
         13    1    3    3    0    0 -0.95319655759E+01 -0.30280954721E+01  0.79532954641E+01  0.12778646687E+02  0.10570000000E+00 0. -1.
<mgrwt>
<rscale>  0 0.20004988E+02</rscale>
<asrwt>0</asrwt>
<pdfrwt beam="2">  1        4 0.73466558E-03 0.20004988E+02</pdfrwt>
<pdfrwt beam="1">  1       -4 0.32232959E-02 0.20004988E+02</pdfrwt>
<totfact> 0.12678800E+06</totfact>
</mgrwt>
</event>
<event>
 5    1  0.4710515E-007  0.2000851E+02  0.7818608E-02  0.1745159E+00
         -4   -1    0    0    0  501 -0.00000000000E+00  0.00000000000E+00  0.31878936535E+02  0.31910546761E+02  0.14200000000E+01 0. -1.
          4   -1    0    0  501    0  0.00000000000E+00 -0.00000000000E+00 -0.29440068172E+01  0.32685740224E+01  0.14200000000E+01 0.  1.
       1023    2    1    2    0    0  0.00000000000E+00  0.00000000000E+00  0.28934929718E+02  0.35179120783E+02  0.20008507724E+02 0.  0.
        -13    1    3    3    0    0  0.93882896402E+01 -0.34491239962E+01  0.14807868366E+02  0.17869543272E+02  0.10570000000E+00 0. -1.
         13    1    3    3    0    0 -0.93882896402E+01  0.34491239962E+01  0.14127061352E+02  0.17309577512E+02  0.10570000000E+00 0.  1.
<mgrwt>
<rscale>  0 0.20008508E+02</rscale>
<asrwt>0</asrwt>
<pdfrwt beam="2">  1        4 0.48032234E-03 0.20008508E+02</pdfrwt>
<pdfrwt beam="1">  1       -4 0.49318505E-02 0.20008508E+02</pdfrwt>
<totfact> 0.12182662E+06</totfact>
</mgrwt>
</event>
<event>
 5    1  0.4710515E-007  0.2000246E+02  0.7818608E-02  0.1745279E+00
          4   -1    0    0  501    0  0.00000000000E+00  0.00000000000E+00  0.17990497551E+01  0.22919380492E+01  0.14200000000E+01 0.  1.
         -4   -1    0    0    0  501 -0.00000000000E+00 -0.00000000000E+00 -0.48395440856E+02  0.48416268915E+02  0.14200000000E+01 0. -1.
       1023    2    1    2    0    0  0.00000000000E+00  0.00000000000E+00 -0.46596391101E+02  0.50708206964E+02  0.20002464595E+02 0.  0.
        -13    1    3    3    0    0  0.91082901118E+01 -0.41287011566E+01 -0.23500257051E+02  0.25539780264E+02  0.10570000000E+00 0.  1.
         13    1    3    3    0    0 -0.91082901118E+01  0.41287011566E+01 -0.23096134050E+02  0.25168426700E+02  0.10570000000E+00 0. -1.
<mgrwt>
<rscale>  0 0.20002465E+02</rscale>
<asrwt>0</asrwt>
<pdfrwt beam="1">  1        4 0.31629357E-03 0.20002465E+02</pdfrwt>
<pdfrwt beam="2">  1       -4 0.74849682E-02 0.20002465E+02</pdfrwt>
<totfact> 0.11487679E+06</totfact>
</mgrwt>
</event>
<event>
 5    1  0.4710515E-007  0.2000857E+02  0.7818608E-02  0.1745158E+00
         -4   -1    0    0    0  501 -0.00000000000E+00  0.00000000000E+00  0.24496513521E+01  0.28314645940E+01  0.14200000000E+01 0.  1.
          4   -1    0    0  501    0  0.00000000000E+00 -0.00000000000E+00 -0.37507034434E+02  0.37533905100E+02  0.14200000000E+01 0. -1.
       1023    2    1    2    0    0  0.00000000000E+00  0.00000000000E+00 -0.35057383082E+02  0.40365369694E+02  0.20008572212E+02 0.  0.
        -13    1    3    3    0    0  0.49002520904E+01  0.87198930415E+01 -0.17206141562E+02  0.19902549715E+02  0.10570000000E+00 0. -1.
         13    1    3    3    0    0 -0.49002520904E+01 -0.87198930415E+01 -0.17851241520E+02  0.20462819979E+02  0.10570000000E+00 0.  1.
<mgrwt>
<rscale>  0 0.20008572E+02</rscale>
<asrwt>0</asrwt>
<pdfrwt beam="2">  1        4 0.58017498E-02 0.20008572E+02</pdfrwt>
<pdfrwt beam="1">  1       -4 0.40830669E-03 0.20008572E+02</pdfrwt>
<totfact> 0.11935281E+06</totfact>
</mgrwt>
</event>
<event>
 4    1  0.4710515E-007  0.2002944E+02  0.7818608E-02  0.1744743E+00
          4   -1    0    0  501    0  0.00000000000E+00  0.00000000000E+00  0.12036314799E+02  0.12119788527E+02  0.14200000000E+01 0. -1.
         -4   -1    0    0    0  501 -0.00000000000E+00 -0.00000000000E+00 -0.81588638573E+01  0.82815131130E+01  0.14200000000E+01 0.  1.
        -13    1    1    2    0    0 -0.11878925045E+01 -0.99359791265E+01  0.15459783462E+01  0.10126005695E+02  0.10570000000E+00 0. -1.
         13    1    1    2    0    0  0.11878925045E+01  0.99359791265E+01  0.23314725959E+01  0.10275295945E+02  0.10570000000E+00 0.  1.
<mgrwt>
<rscale>  0 0.20029440E+02</rscale>
<asrwt>0</asrwt>
<pdfrwt beam="1">  1        4 0.18675963E-02 0.20029440E+02</pdfrwt>
<pdfrwt beam="2">  1       -4 0.12710654E-02 0.20029440E+02</pdfrwt>
<totfact> 0.12951223E+06</totfact>
</mgrwt>
</event>
<event>
 5    1  0.4710515E-007  0.2000554E+02  0.7818608E-02  0.1745218E+00
         -4   -1    0    0    0  501 -0.00000000000E+00  0.00000000000E+00  0.69759263983E+01  0.71189851183E+01  0.14200000000E+01 0. -1.
          4   -1    0    0  501    0  0.00000000000E+00 -0.00000000000E+00 -0.14018082278E+02  0.14089820111E+02  0.14200000000E+01 0.  1.
       1023    2    1    2    0    0  0.00000000000E+00  0.00000000000E+00 -0.70421558798E+01  0.21208805229E+02  0.20005535729E+02 0.  0.
        -13    1    3    3    0    0 -0.76849992439E+01  0.64002709881E+01 -0.36765634351E+01  0.10656029902E+02  0.10570000000E+00 0.  1.
         13    1    3    3    0    0  0.76849992439E+01 -0.64002709881E+01 -0.33655924447E+01  0.10552775327E+02  0.10570000000E+00 0. -1.
<mgrwt>
<rscale>  0 0.20005536E+02</rscale>
<asrwt>0</asrwt>
<pdfrwt beam="2">  1        4 0.21731509E-02 0.20005536E+02</pdfrwt>
<pdfrwt beam="1">  1       -4 0.10897423E-02 0.20005536E+02</pdfrwt>
<totfact> 0.12935142E+06</totfact>
</mgrwt>
</event>
<event>
 5    1  0.4710515E-007  0.2000237E+02  0.7818608E-02  0.1745281E+00
          4   -1    0    0  501    0  0.00000000000E+00  0.00000000000E+00  0.18406922670E+02  0.18461614290E+02  0.14200000000E+01 0. -1.
         -4   -1    0    0    0  501 -0.00000000000E+00 -0.00000000000E+00 -0.52772821626E+01  0.54649892062E+01  0.14200000000E+01 0.  1.
       1023    2    1    2    0    0  0.00000000000E+00  0.00000000000E+00  0.13129640508E+02  0.23926603496E+02  0.20002372234E+02 0.  0.
        -13    1    3    3    0    0 -0.10374813303E+01 -0.99461174890E+01  0.66898813970E+01  0.12031928616E+02  0.10570000000E+00 0. -1.
         13    1    3    3    0    0  0.10374813303E+01  0.99461174890E+01  0.64397591106E+01  0.11894674880E+02  0.10570000000E+00 0.  1.
<mgrwt>
<rscale>  0 0.20002372E+02</rscale>
<asrwt>0</asrwt>
<pdfrwt beam="1">  1        4 0.28504803E-02 0.20002372E+02</pdfrwt>
<pdfrwt beam="2">  1       -4 0.83053563E-03 0.20002372E+02</pdfrwt>
<totfact> 0.12782813E+06</totfact>
</mgrwt>
</event>
<event>
 5    1  0.4785536E-007  0.2000133E+02  0.7818608E-02  0.1745302E+00
          4   -1    0    0  501    0  0.00000000000E+00  0.00000000000E+00  0.53481690952E+02  0.53500538942E+02  0.14200000000E+01 0.  1.
         -4   -1    0    0    0  501 -0.00000000000E+00 -0.00000000000E+00 -0.15784558930E+01  0.21231869928E+01  0.14200000000E+01 0. -1.
       1023    2    1    2    0    0  0.00000000000E+00  0.00000000000E+00  0.51903235059E+02  0.55623725935E+02  0.20001326888E+02 0.  0.
        -13    1    3    3    0    0  0.98594595387E+01 -0.16712572718E+01  0.25971971327E+02  0.27830855366E+02  0.10570000000E+00 0.  1.
         13    1    3    3    0    0 -0.98594595387E+01  0.16712572718E+01  0.25931263732E+02  0.27792870569E+02  0.10570000000E+00 0. -1.
<mgrwt>
<rscale>  0 0.20001327E+02</rscale>
<asrwt>0</asrwt>
<pdfrwt beam="1">  1        4 0.82713046E-02 0.20001327E+02</pdfrwt>
<pdfrwt beam="2">  1       -4 0.28619161E-03 0.20001327E+02</pdfrwt>
<totfact> 0.11288460E+06</totfact>
</mgrwt>
</event>
<event>
 5    1  0.4710515E-007  0.2001130E+02  0.7818608E-02  0.1745103E+00
         -4   -1    0    0    0  501 -0.00000000000E+00  0.00000000000E+00  0.97167502092E+01  0.98199610299E+01  0.14200000000E+01 0. -1.
          4   -1    0    0  501    0  0.00000000000E+00 -0.00000000000E+00 -0.10095546785E+02  0.10194923486E+02  0.14200000000E+01 0.  1.
       1023    2    1    2    0    0  0.00000000000E+00  0.00000000000E+00 -0.37879657530E+00  0.20014884516E+02  0.20011299691E+02 0.  0.
        -13    1    3    3    0    0 -0.98913442549E-01 -0.10004507459E+02 -0.23302923274E+00  0.10008268006E+02  0.10570000000E+00 0.  1.
         13    1    3    3    0    0  0.98913442549E-01  0.10004507459E+02 -0.14576734256E+00  0.10006616510E+02  0.10570000000E+00 0. -1.
<mgrwt>
<rscale>  0 0.20011300E+02</rscale>
<asrwt>0</asrwt>
<pdfrwt beam="2">  1        4 0.15687447E-02 0.20011300E+02</pdfrwt>
<pdfrwt beam="1">  1       -4 0.15104683E-02 0.20011300E+02</pdfrwt>
<totfact> 0.12998160E+06</totfact>
</mgrwt>
</event>
<event>
 4    1  0.4710515E-007  0.2020157E+02  0.7818608E-02  0.1741349E+00
         -4   -1    0    0    0  501 -0.00000000000E+00  0.00000000000E+00  0.52513699634E+01  0.54399711849E+01  0.14200000000E+01 0.  1.
          4   -1    0    0  501    0  0.00000000000E+00 -0.00000000000E+00 -0.18869959247E+02  0.18923312658E+02  0.14200000000E+01 0. -1.
        -13    1    1    2    0    0  0.39995923569E+01 -0.92261864781E+01 -0.56680518513E+01  0.11543709985E+02  0.10570000000E+00 0. -1.
         13    1    1    2    0    0 -0.39995923569E+01  0.92261864781E+01 -0.79505374320E+01  0.12819573858E+02  0.10570000000E+00 0.  1.
<mgrwt>
<rscale>  0 0.20201575E+02</rscale>
<asrwt>0</asrwt>
<pdfrwt beam="2">  1        4 0.29216825E-02 0.20201575E+02</pdfrwt>
<pdfrwt beam="1">  1       -4 0.82651497E-03 0.20201575E+02</pdfrwt>
<totfact> 0.12502917E+06</totfact>
</mgrwt>
</event>
<event>
 4    1  0.4710515E-007  0.2115564E+02  0.7818608E-02  0.1723277E+00
         -4   -1    0    0    0  501 -0.00000000000E+00  0.00000000000E+00  0.62853783573E+02  0.62869821929E+02  0.14200000000E+01 0.  1.
          4   -1    0    0  501    0  0.00000000000E+00 -0.00000000000E+00 -0.14780737069E+01  0.20496589675E+01  0.14200000000E+01 0.  1.
        -13    1    1    2    0    0 -0.35603014224E+01 -0.99136520661E+01  0.33635835530E+02  0.35246799114E+02  0.10570000000E+00 0.  1.
         13    1    1    2    0    0  0.35603014224E+01  0.99136520661E+01  0.27739874335E+02  0.29672681782E+02  0.10570000000E+00 0. -1.
<mgrwt>
<rscale>  0 0.21155643E+02</rscale>
<asrwt>0</asrwt>
<pdfrwt beam="2">  1        4 0.27259781E-03 0.21155643E+02</pdfrwt>
<pdfrwt beam="1">  1       -4 0.97150132E-02 0.21155643E+02</pdfrwt>
<totfact> 0.97542724E+05</totfact>
</mgrwt>
</event>
<event>
 4    1  0.4710515E-007  0.2005505E+02  0.7818608E-02  0.1744236E+00
          4   -1    0    0  501    0  0.00000000000E+00  0.00000000000E+00  0.25739125283E+02  0.25778265464E+02  0.14200000000E+01 0. -1.
         -4   -1    0    0    0  501 -0.00000000000E+00 -0.00000000000E+00 -0.37338948657E+01  0.39947929694E+01  0.14200000000E+01 0.  1.
        -13    1    1    2    0    0  0.13920506371E+01  0.99218612371E+01  0.10410827964E+02  0.14449140001E+02  0.10570000000E+00 0. -1.
         13    1    1    2    0    0 -0.13920506371E+01 -0.99218612371E+01  0.11594402453E+02  0.15323918433E+02  0.10570000000E+00 0.  1.
<mgrwt>
<rscale>  0 0.20055045E+02</rscale>
<asrwt>0</asrwt>
<pdfrwt beam="1">  1        4 0.39829454E-02 0.20055045E+02</pdfrwt>
<pdfrwt beam="2">  1       -4 0.59752522E-03 0.20055045E+02</pdfrwt>
<totfact> 0.12398144E+06</totfact>
</mgrwt>
</event>
<event>
 5    1  0.4710515E-007  0.2000139E+02  0.7818608E-02  0.1745301E+00
          4   -1    0    0  501    0  0.00000000000E+00  0.00000000000E+00  0.15490680265E+02  0.15555628405E+02  0.14200000000E+01 0. -1.
         -4   -1    0    0    0  501 -0.00000000000E+00 -0.00000000000E+00 -0.62987294761E+01  0.64568098170E+01  0.14200000000E+01 0.  1.
       1023    2    1    2    0    0  0.00000000000E+00  0.00000000000E+00  0.91919507888E+01  0.22012438222E+02  0.20001386881E+02 0.  0.
        -13    1    3    3    0    0  0.71300756107E+01  0.70117510469E+01  0.46049057473E+01  0.11009948246E+02  0.10570000000E+00 0. -1.
         13    1    3    3    0    0 -0.71300756107E+01 -0.70117510469E+01  0.45870450415E+01  0.11002489975E+02  0.10570000000E+00 0.  1.
<mgrwt>
<rscale>  0 0.20001387E+02</rscale>
<asrwt>0</asrwt>
<pdfrwt beam="1">  1        4 0.24003376E-02 0.20001387E+02</pdfrwt>
<pdfrwt beam="2">  1       -4 0.98619136E-03 0.20001387E+02</pdfrwt>
<totfact> 0.12893678E+06</totfact>
</mgrwt>
</event>
<event>
 5    1  0.4710515E-007  0.2000255E+02  0.7818608E-02  0.1745277E+00
         -4   -1    0    0    0  501 -0.00000000000E+00  0.00000000000E+00  0.19780564638E+02  0.19831468362E+02  0.14200000000E+01 0. -1.
          4   -1    0    0  501    0  0.00000000000E+00 -0.00000000000E+00 -0.48983904209E+01  0.51000616384E+01  0.14200000000E+01 0.  1.
       1023    2    1    2    0    0  0.00000000000E+00  0.00000000000E+00  0.14882174217E+02  0.24931530000E+02  0.20002551806E+02 0.  0.
        -13    1    3    3    0    0  0.81622672272E+00 -0.99671841662E+01  0.73688279046E+01  0.12422631905E+02  0.10570000000E+00 0.  1.
         13    1    3    3    0    0 -0.81622672272E+00  0.99671841662E+01  0.75133463124E+01  0.12508898096E+02  0.10570000000E+00 0. -1.
<mgrwt>
<rscale>  0 0.20002552E+02</rscale>
<asrwt>0</asrwt>
<pdfrwt beam="2">  1        4 0.77302737E-03 0.20002552E+02</pdfrwt>
<pdfrwt beam="1">  1       -4 0.30625926E-02 0.20002552E+02</pdfrwt>
<totfact> 0.12726113E+06</totfact>
</mgrwt>
</event>
<event>
 5    1  0.4710515E-007  0.2000322E+02  0.7818608E-02  0.1745264E+00
         -4   -1    0    0    0  501 -0.00000000000E+00  0.00000000000E+00  0.42413607317E+00  0.14819890042E+01  0.14200000000E+01 0. -1.
          4   -1    0    0  501    0  0.00000000000E+00 -0.00000000000E+00 -0.10389325555E+03  0.10390295929E+03  0.14200000000E+01 0.  1.
       1023    2    1    2    0    0  0.00000000000E+00  0.00000000000E+00 -0.10346911948E+03  0.10538494830E+03  0.20003215772E+02 0.  0.
        -13    1    3    3    0    0  0.55092769689E+01  0.83457139236E+01 -0.52439703233E+02  0.53384798597E+02  0.10570000000E+00 0. -1.
         13    1    3    3    0    0 -0.55092769689E+01 -0.83457139236E+01 -0.51029416247E+02  0.52000149698E+02  0.10570000000E+00 0.  1.
<mgrwt>
<rscale>  0 0.20003216E+02</rscale>
<asrwt>0</asrwt>
<pdfrwt beam="2">  1        4 0.16065689E-01 0.20003216E+02</pdfrwt>
<pdfrwt beam="1">  1       -4 0.14737153E-03 0.20003216E+02</pdfrwt>
<totfact> 0.96474391E+05</totfact>
</mgrwt>
</event>
<event>
 5    1  0.4710515E-007  0.2000282E+02  0.7818608E-02  0.1745272E+00
         -4   -1    0    0    0  501 -0.00000000000E+00  0.00000000000E+00  0.64931372025E+01  0.66465954240E+01  0.14200000000E+01 0.  1.
          4   -1    0    0  501    0  0.00000000000E+00 -0.00000000000E+00 -0.15038004804E+02  0.15104899486E+02  0.14200000000E+01 0. -1.
       1023    2    1    2    0    0  0.00000000000E+00  0.00000000000E+00 -0.85448676011E+01  0.21751494910E+02  0.20002819013E+02 0.  0.
        -13    1    3    3    0    0 -0.12524847263E+01 -0.99218324422E+01 -0.43533910801E+01  0.10907550751E+02  0.10570000000E+00 0. -1.
         13    1    3    3    0    0  0.12524847263E+01  0.99218324422E+01 -0.41914765210E+01  0.10843944159E+02  0.10570000000E+00 0.  1.
<mgrwt>
<rscale>  0 0.20002819E+02</rscale>
<asrwt>0</asrwt>
<pdfrwt beam="2">  1        4 0.23304894E-02 0.20002819E+02</pdfrwt>
<pdfrwt beam="1">  1       -4 0.10158944E-02 0.20002819E+02</pdfrwt>
<totfact> 0.12906967E+06</totfact>
</mgrwt>
</event>
<event>
 5    1  0.4710515E-007  0.2000133E+02  0.7818608E-02  0.1745302E+00
         -4   -1    0    0    0  501 -0.00000000000E+00  0.00000000000E+00  0.97847695914E+02  0.97857999140E+02  0.14200000000E+01 0. -1.
          4   -1    0    0  501    0  0.00000000000E+00 -0.00000000000E+00 -0.51350303121E+00  0.15099951533E+01  0.14200000000E+01 0.  1.
       1023    2    1    2    0    0  0.00000000000E+00  0.00000000000E+00  0.97334192883E+02  0.99367994293E+02  0.20001329599E+02 0.  0.
        -13    1    3    3    0    0  0.97830916891E+00 -0.99521204562E+01  0.48576364549E+02  0.49595122297E+02  0.10570000000E+00 0.  1.
         13    1    3    3    0    0 -0.97830916891E+00  0.99521204562E+01  0.48757828334E+02  0.49772871996E+02  0.10570000000E+00 0. -1.
<mgrwt>
<rscale>  0 0.20001330E+02</rscale>
<asrwt>0</asrwt>
<pdfrwt beam="2">  1        4 0.15644618E-03 0.20001330E+02</pdfrwt>
<pdfrwt beam="1">  1       -4 0.15130946E-01 0.20001330E+02</pdfrwt>
<totfact> 0.98179784E+05</totfact>
</mgrwt>
</event>
<event>
 5    1  0.4710515E-007  0.2000624E+02  0.7818608E-02  0.1745204E+00
         -4   -1    0    0    0  501 -0.00000000000E+00  0.00000000000E+00  0.73881767406E+01  0.75234005311E+01  0.14200000000E+01 0.  1.
          4   -1    0    0  501    0  0.00000000000E+00 -0.00000000000E+00 -0.13247254293E+02  0.13323143259E+02  0.14200000000E+01 0. -1.
       1023    2    1    2    0    0  0.00000000000E+00  0.00000000000E+00 -0.58590775526E+01  0.20846543790E+02  0.20006238983E+02 0.  0.
        -13    1    3    3    0    0 -0.93485252372E+01 -0.35564835847E+01 -0.30211370555E+01  0.10449016279E+02  0.10570000000E+00 0.  1.
         13    1    3    3    0    0  0.93485252372E+01  0.35564835847E+01 -0.28379404971E+01  0.10397527512E+02  0.10570000000E+00 0. -1.
<mgrwt>
<rscale>  0 0.20006239E+02</rscale>
<asrwt>0</asrwt>
<pdfrwt beam="2">  1        4 0.20542786E-02 0.20006239E+02</pdfrwt>
<pdfrwt beam="1">  1       -4 0.11528820E-02 0.20006239E+02</pdfrwt>
<totfact> 0.12955573E+06</totfact>
</mgrwt>
</event>
<event>
 5    1  0.4853102E-007  0.2000152E+02  0.7818608E-02  0.1745298E+00
         -4   -1    0    0    0  501 -0.00000000000E+00  0.00000000000E+00  0.33896779554E+02  0.33926509755E+02  0.14200000000E+01 0. -1.
          4   -1    0    0  501    0  0.00000000000E+00 -0.00000000000E+00 -0.27468155495E+01  0.30921506534E+01  0.14200000000E+01 0.  1.
       1023    2    1    2    0    0  0.00000000000E+00  0.00000000000E+00  0.31149964005E+02  0.37018660409E+02  0.20001523965E+02 0.  0.
        -13    1    3    3    0    0  0.33927956616E+01 -0.94070036613E+01  0.15508573437E+02  0.18453449619E+02  0.10570000000E+00 0.  1.
         13    1    3    3    0    0 -0.33927956616E+01  0.94070036613E+01  0.15641390568E+02  0.18565210790E+02  0.10570000000E+00 0. -1.
<mgrwt>
<rscale>  0 0.20001524E+02</rscale>
<asrwt>0</asrwt>
<pdfrwt beam="2">  1        4 0.45143819E-03 0.20001524E+02</pdfrwt>
<pdfrwt beam="1">  1       -4 0.52437403E-02 0.20001524E+02</pdfrwt>
<totfact> 0.12101830E+06</totfact>
</mgrwt>
</event>
<event>
 5    1  0.4710515E-007  0.2000972E+02  0.7818608E-02  0.1745135E+00
          4   -1    0    0  501    0  0.00000000000E+00  0.00000000000E+00  0.64086888935E+01  0.65641216727E+01  0.14200000000E+01 0. -1.
         -4   -1    0    0    0  501 -0.00000000000E+00 -0.00000000000E+00 -0.15243019319E+02  0.15309018191E+02  0.14200000000E+01 0.  1.
       1023    2    1    2    0    0  0.00000000000E+00  0.00000000000E+00 -0.88343304256E+01  0.21873139863E+02  0.20009718974E+02 0.  0.
        -13    1    3    3    0    0  0.96379478840E+01 -0.26749556001E+01 -0.46374618905E+01  0.11025545436E+02  0.10570000000E+00 0.  1.
         13    1    3    3    0    0 -0.96379478840E+01  0.26749556001E+01 -0.41968685351E+01  0.10847594428E+02  0.10570000000E+00 0. -1.
<mgrwt>
<rscale>  0 0.20009719E+02</rscale>
<asrwt>0</asrwt>
<pdfrwt beam="1">  1        4 0.10029853E-02 0.20009719E+02</pdfrwt>
<pdfrwt beam="2">  1       -4 0.23621131E-02 0.20009719E+02</pdfrwt>
<totfact> 0.12890815E+06</totfact>
</mgrwt>
</event>
<event>
 5    1  0.4710515E-007  0.2000331E+02  0.7818608E-02  0.1745262E+00
         -4   -1    0    0    0  501 -0.00000000000E+00  0.00000000000E+00  0.14384045306E+02  0.14453966907E+02  0.14200000000E+01 0.  1.
          4   -1    0    0  501    0  0.00000000000E+00 -0.00000000000E+00 -0.67940855241E+01  0.69408931781E+01  0.14200000000E+01 0. -1.
       1023    2    1    2    0    0  0.00000000000E+00  0.00000000000E+00  0.75899597814E+01  0.21394860085E+02  0.20003313440E+02 0.  0.
        -13    1    3    3    0    0 -0.78841093008E+01 -0.61530571012E+01  0.38502827265E+01  0.10717049068E+02  0.10570000000E+00 0. -1.
         13    1    3    3    0    0  0.78841093008E+01  0.61530571012E+01  0.37396770549E+01  0.10677811017E+02  0.10570000000E+00 0.  1.
<mgrwt>
<rscale>  0 0.20003313E+02</rscale>
<asrwt>0</asrwt>
<pdfrwt beam="2">  1        4 0.10619154E-02 0.20003313E+02</pdfrwt>
<pdfrwt beam="1">  1       -4 0.22296015E-02 0.20003313E+02</pdfrwt>
<totfact> 0.12927154E+06</totfact>
</mgrwt>
</event>
<event>
 4    1  0.4710515E-007  0.2032752E+02  0.7818608E-02  0.1738892E+00
          4   -1    0    0  501    0  0.00000000000E+00  0.00000000000E+00  0.38441176044E+02  0.38467394189E+02  0.14200000000E+01 0. -1.
         -4   -1    0    0    0  501 -0.00000000000E+00 -0.00000000000E+00 -0.24705701968E+01  0.28495819162E+01  0.14200000000E+01 0.  1.
        -13    1    1    2    0    0 -0.10147188438E+02  0.54438515260E+00  0.17638892609E+02  0.20356902843E+02  0.10570000000E+00 0.  1.
         13    1    1    2    0    0  0.10147188438E+02 -0.54438515260E+00  0.18331713238E+02  0.20960073262E+02  0.10570000000E+00 0. -1.
<mgrwt>
<rscale>  0 0.20327519E+02</rscale>
<asrwt>0</asrwt>
<pdfrwt beam="1">  1        4 0.59451984E-02 0.20327519E+02</pdfrwt>
<pdfrwt beam="2">  1       -4 0.41125926E-03 0.20327519E+02</pdfrwt>
<totfact> 0.11515615E+06</totfact>
</mgrwt>
</event>
<event>
 4    1  0.4710515E-007  0.2001757E+02  0.7818608E-02  0.1744979E+00
          4   -1    0    0  501    0  0.00000000000E+00  0.00000000000E+00  0.80952262189E+02  0.80964715484E+02  0.14200000000E+01 0. -1.
         -4   -1    0    0    0  501 -0.00000000000E+00 -0.00000000000E+00 -0.81333905307E+00  0.16364352768E+01  0.14200000000E+01 0.  1.
        -13    1    1    2    0    0  0.34594142853E+01 -0.93903436044E+01  0.40630773780E+02  0.41845155641E+02  0.10570000000E+00 0.  1.
         13    1    1    2    0    0 -0.34594142853E+01  0.93903436044E+01  0.39508149356E+02  0.40755995120E+02  0.10570000000E+00 0. -1.
<mgrwt>
<rscale>  0 0.20017570E+02</rscale>
<asrwt>0</asrwt>
<pdfrwt beam="1">  1        4 0.12518474E-01 0.20017570E+02</pdfrwt>
<pdfrwt beam="2">  1       -4 0.18940202E-03 0.20017570E+02</pdfrwt>
<totfact> 0.10308818E+06</totfact>
</mgrwt>
</event>
<event>
 5    1  0.4710515E-007  0.2000154E+02  0.7818608E-02  0.1745297E+00
          4   -1    0    0  501    0  0.00000000000E+00  0.00000000000E+00  0.77251322060E+00  0.16165322997E+01  0.14200000000E+01 0.  1.
         -4   -1    0    0    0  501 -0.00000000000E+00 -0.00000000000E+00 -0.82876108228E+02  0.82888272482E+02  0.14200000000E+01 0. -1.
       1023    2    1    2    0    0  0.00000000000E+00  0.00000000000E+00 -0.82103595007E+02  0.84504804782E+02  0.20001542891E+02 0.  0.
        -13    1    3    3    0    0 -0.37914252095E+01 -0.92536112898E+01 -0.41074936067E+02  0.42274883470E+02  0.10570000000E+00 0. -1.
         13    1    3    3    0    0  0.37914252095E+01  0.92536112898E+01 -0.41028658940E+02  0.42229921311E+02  0.10570000000E+00 0.  1.
<mgrwt>
<rscale>  0 0.20001543E+02</rscale>
<asrwt>0</asrwt>
<pdfrwt beam="1">  1        4 0.18470851E-03 0.20001543E+02</pdfrwt>
<pdfrwt beam="2">  1       -4 0.12816026E-01 0.20001543E+02</pdfrwt>
<totfact> 0.10264749E+06</totfact>
</mgrwt>
</event>
<event>
 4    1  0.4710515E-007  0.2001488E+02  0.7818608E-02  0.1745032E+00
         -4   -1    0    0    0  501 -0.00000000000E+00  0.00000000000E+00  0.28030874764E+00  0.14474021535E+01  0.14200000000E+01 0. -1.
          4   -1    0    0  501    0  0.00000000000E+00 -0.00000000000E+00 -0.11475802482E+03  0.11476680993E+03  0.14200000000E+01 0.  1.
        -13    1    1    2    0    0  0.70811158320E+01 -0.70671744607E+01 -0.55933075340E+02  0.56820834609E+02  0.10570000000E+00 0. -1.
         13    1    1    2    0    0 -0.70811158320E+01  0.70671744607E+01 -0.58544640737E+02  0.59393377474E+02  0.10570000000E+00 0.  1.
<mgrwt>
<rscale>  0 0.20014885E+02</rscale>
<asrwt>0</asrwt>
<pdfrwt beam="2">  1        4 0.17745521E-01 0.20014885E+02</pdfrwt>
<pdfrwt beam="1">  1       -4 0.13357671E-03 0.20014885E+02</pdfrwt>
<totfact> 0.93483670E+05</totfact>
</mgrwt>
</event>
<event>
 4    1  0.4710515E-007  0.2005006E+02  0.7818608E-02  0.1744334E+00
         -4   -1    0    0    0  501 -0.00000000000E+00  0.00000000000E+00  0.10844912786E+01  0.17867628084E+01  0.14200000000E+01 0.  1.
          4   -1    0    0  501    0  0.00000000000E+00 -0.00000000000E+00 -0.69293765960E+02  0.69308314082E+02  0.14200000000E+01 0. -1.
        -13    1    1    2    0    0 -0.59061207706E+01 -0.80928136067E+01 -0.35302568670E+02  0.36696844848E+02  0.10570000000E+00 0. -1.
         13    1    1    2    0    0  0.59061207706E+01  0.80928136067E+01 -0.32906706012E+02  0.34398232042E+02  0.10570000000E+00 0.  1.
<mgrwt>
<rscale>  0 0.20050057E+02</rscale>
<asrwt>0</asrwt>
<pdfrwt beam="2">  1        4 0.10715717E-01 0.20050057E+02</pdfrwt>
<pdfrwt beam="1">  1       -4 0.22198484E-03 0.20050057E+02</pdfrwt>
<totfact> 0.10658702E+06</totfact>
</mgrwt>
</event>
<event>
 5    1  0.4710515E-007  0.2000265E+02  0.7818608E-02  0.1745275E+00
         -4   -1    0    0    0  501 -0.00000000000E+00  0.00000000000E+00  0.86496026189E+01  0.87653879244E+01  0.14200000000E+01 0.  1.
          4   -1    0    0  501    0  0.00000000000E+00 -0.00000000000E+00 -0.11326991310E+02  0.11415652944E+02  0.14200000000E+01 0. -1.
       1023    2    1    2    0    0  0.00000000000E+00  0.00000000000E+00 -0.26773886907E+01  0.20181040868E+02  0.20002649832E+02 0.  0.
        -13    1    3    3    0    0 -0.14453711006E+00  0.99996617434E+01 -0.13736680346E+01  0.10095160341E+02  0.10570000000E+00 0.  1.
         13    1    3    3    0    0  0.14453711006E+00 -0.99996617434E+01 -0.13037206561E+01  0.10085880527E+02  0.10570000000E+00 0. -1.
<mgrwt>
<rscale>  0 0.20002650E+02</rscale>
<asrwt>0</asrwt>
<pdfrwt beam="2">  1        4 0.17583407E-02 0.20002650E+02</pdfrwt>
<pdfrwt beam="1">  1       -4 0.13464348E-02 0.20002650E+02</pdfrwt>
<totfact> 0.12999758E+06</totfact>
</mgrwt>
</event>
<event>
 5    1  0.4710515E-007  0.2000307E+02  0.7818608E-02  0.1745267E+00
         -4   -1    0    0    0  501 -0.00000000000E+00  0.00000000000E+00  0.13652597225E+02  0.13726245334E+02  0.14200000000E+01 0. -1.
          4   -1    0    0  501    0  0.00000000000E+00 -0.00000000000E+00 -0.71636238358E+01  0.73030066726E+01  0.14200000000E+01 0.  1.
       1023    2    1    2    0    0  0.00000000000E+00  0.00000000000E+00  0.64889733889E+01  0.21029252007E+02  0.20003066373E+02 0.  0.
        -13    1    3    3    0    0  0.79425291309E+01 -0.60769618487E+01  0.33276611020E+01  0.10540291040E+02  0.10570000000E+00 0.  1.
         13    1    3    3    0    0 -0.79425291309E+01  0.60769618487E+01  0.31613122869E+01  0.10488960967E+02  0.10570000000E+00 0. -1.
<mgrwt>
<rscale>  0 0.20003066E+02</rscale>
<asrwt>0</asrwt>
<pdfrwt beam="2">  1        4 0.11184830E-02 0.20003066E+02</pdfrwt>
<pdfrwt beam="1">  1       -4 0.21167865E-02 0.20003066E+02</pdfrwt>
<totfact> 0.12948973E+06</totfact>
</mgrwt>
</event>
<event>
 5    1  0.4710515E-007  0.2000855E+02  0.7818608E-02  0.1745158E+00
         -4   -1    0    0    0  501 -0.00000000000E+00  0.00000000000E+00  0.18793355142E+01  0.23554833845E+01  0.14200000000E+01 0. -1.
          4   -1    0    0  501    0  0.00000000000E+00 -0.00000000000E+00 -0.46779757216E+02  0.46801304310E+02  0.14200000000E+01 0.  1.
       1023    2    1    2    0    0  0.00000000000E+00  0.00000000000E+00 -0.44900421701E+02  0.49156787695E+02  0.20008545862E+02 0.  0.
        -13    1    3    3    0    0 -0.13853039864E+01  0.99072780449E+01 -0.22369510114E+02  0.24504680790E+02  0.10570000000E+00 0.  1.
         13    1    3    3    0    0  0.13853039864E+01 -0.99072780449E+01 -0.22530911588E+02  0.24652106905E+02  0.10570000000E+00 0. -1.
<mgrwt>
<rscale>  0 0.20008546E+02</rscale>
<asrwt>0</asrwt>
<pdfrwt beam="2">  1        4 0.72351692E-02 0.20008546E+02</pdfrwt>
<pdfrwt beam="1">  1       -4 0.32741280E-03 0.20008546E+02</pdfrwt>
<totfact> 0.11545867E+06</totfact>
</mgrwt>
</event>
<event>
 5    1  0.4710515E-007  0.2000242E+02  0.7818608E-02  0.1745280E+00
         -4   -1    0    0    0  501 -0.00000000000E+00  0.00000000000E+00  0.10529718075E+02  0.10625034717E+02  0.14200000000E+01 0. -1.
          4   -1    0    0  501    0  0.00000000000E+00 -0.00000000000E+00 -0.93070218713E+01  0.94147254932E+01  0.14200000000E+01 0.  1.
       1023    2    1    2    0    0  0.00000000000E+00  0.00000000000E+00  0.12226962039E+01  0.20039760210E+02  0.20002424935E+02 0.  0.
        -13    1    3    3    0    0  0.70919319063E+01 -0.70510662154E+01  0.60459802642E+00  0.10019468259E+02  0.10570000000E+00 0. -1.
         13    1    3    3    0    0 -0.70919319063E+01  0.70510662154E+01  0.61809817746E+00  0.10020291951E+02  0.10570000000E+00 0.  1.
<mgrwt>
<rscale>  0 0.20002425E+02</rscale>
<asrwt>0</asrwt>
<pdfrwt beam="2">  1        4 0.14474665E-02 0.20002425E+02</pdfrwt>
<pdfrwt beam="1">  1       -4 0.16355736E-02 0.20002425E+02</pdfrwt>
<totfact> 0.13008464E+06</totfact>
</mgrwt>
</event>
<event>
 5    1  0.4710515E-007  0.2000820E+02  0.7818608E-02  0.1745165E+00
          4   -1    0    0  501    0  0.00000000000E+00  0.00000000000E+00  0.74205343229E+00  0.16021995183E+01  0.14200000000E+01 0. -1.
         -4   -1    0    0    0  501 -0.00000000000E+00 -0.00000000000E+00 -0.84516667041E+02  0.84528595207E+02  0.14200000000E+01 0.  1.
       1023    2    1    2    0    0  0.00000000000E+00  0.00000000000E+00 -0.83774613609E+02  0.86130794726E+02  0.20008196190E+02 0.  0.
        -13    1    3    3    0    0  0.73640014202E+01  0.67701973050E+01 -0.42240133961E+02  0.43408572633E+02  0.10570000000E+00 0.  1.
         13    1    3    3    0    0 -0.73640014202E+01 -0.67701973050E+01 -0.41534479647E+02  0.42722222093E+02  0.10570000000E+00 0. -1.
<mgrwt>
<rscale>  0 0.20008196E+02</rscale>
<asrwt>0</asrwt>
<pdfrwt beam="1">  1        4 0.18124477E-03 0.20008196E+02</pdfrwt>
<pdfrwt beam="2">  1       -4 0.13069642E-01 0.20008196E+02</pdfrwt>
<totfact> 0.10206803E+06</totfact>
</mgrwt>
</event>
<event>
 5    1  0.5304157E-007  0.2000184E+02  0.7818608E-02  0.1745291E+00
          4   -1    0    0  501    0  0.00000000000E+00  0.00000000000E+00  0.33018103487E+02  0.33048624145E+02  0.14200000000E+01 0.  1.
         -4   -1    0    0    0  501 -0.00000000000E+00 -0.00000000000E+00 -0.28290110373E+01  0.31653915159E+01  0.14200000000E+01 0. -1.
       1023    2    1    2    0    0  0.00000000000E+00  0.00000000000E+00  0.30189092450E+02  0.36214015661E+02  0.20001840599E+02 0.  0.
        -13    1    3    3    0    0 -0.99989987573E+01  0.15016923250E+00  0.14970324540E+02  0.18003452898E+02  0.10570000000E+00 0.  1.
         13    1    3    3    0    0  0.99989987573E+01 -0.15016923250E+00  0.15218767910E+02  0.18210562763E+02  0.10570000000E+00 0. -1.
<mgrwt>
<rscale>  0 0.20001841E+02</rscale>
<asrwt>0</asrwt>
<pdfrwt beam="1">  1        4 0.51079318E-02 0.20001841E+02</pdfrwt>
<pdfrwt beam="2">  1       -4 0.46345560E-03 0.20001841E+02</pdfrwt>
<totfact> 0.12140337E+06</totfact>
</mgrwt>
</event>
<event>
 5    1  0.4710515E-007  0.2000220E+02  0.7818608E-02  0.1745284E+00
         -4   -1    0    0    0  501 -0.00000000000E+00  0.00000000000E+00  0.18814402173E+02  0.18867912686E+02  0.14200000000E+01 0.  1.
          4   -1    0    0  501    0  0.00000000000E+00 -0.00000000000E+00 -0.51591229131E+01  0.53509764747E+01  0.14200000000E+01 0. -1.
       1023    2    1    2    0    0  0.00000000000E+00  0.00000000000E+00  0.13655279260E+02  0.24218889161E+02  0.20002198392E+02 0.  0.
        -13    1    3    3    0    0  0.84349056562E+01  0.53722719009E+01  0.67752263144E+01  0.12079892504E+02  0.10570000000E+00 0. -1.
         13    1    3    3    0    0 -0.84349056562E+01 -0.53722719009E+01  0.68800529453E+01  0.12138996657E+02  0.10570000000E+00 0.  1.
<mgrwt>
<rscale>  0 0.20002198E+02</rscale>
<asrwt>0</asrwt>
<pdfrwt beam="2">  1        4 0.81258538E-03 0.20002198E+02</pdfrwt>
<pdfrwt beam="1">  1       -4 0.29133976E-02 0.20002198E+02</pdfrwt>
<totfact> 0.12766571E+06</totfact>
</mgrwt>
</event>
<event>
 4    1  0.4710515E-007  0.2002658E+02  0.7818608E-02  0.1744800E+00
          4   -1    0    0  501    0  0.00000000000E+00  0.00000000000E+00  0.10783434787E+02  0.10876528206E+02  0.14200000000E+01 0. -1.
         -4   -1    0    0    0  501 -0.00000000000E+00 -0.00000000000E+00 -0.91098538144E+01  0.92198609816E+01  0.14200000000E+01 0.  1.
        -13    1    1    2    0    0 -0.90710682013E+01  0.42128863173E+01  0.36383631531E+00  0.10008808060E+02  0.10570000000E+00 0.  1.
         13    1    1    2    0    0  0.90710682013E+01 -0.42128863173E+01  0.13097446575E+01  0.10087581127E+02  0.10570000000E+00 0. -1.
<mgrwt>
<rscale>  0 0.20026582E+02</rscale>
<asrwt>0</asrwt>
<pdfrwt beam="1">  1        4 0.16746131E-02 0.20026582E+02</pdfrwt>
<pdfrwt beam="2">  1       -4 0.14171391E-02 0.20026582E+02</pdfrwt>
<totfact> 0.12973088E+06</totfact>
</mgrwt>
</event>
<event>
 5    1  0.5126159E-007  0.2000329E+02  0.7818608E-02  0.1745263E+00
         -4   -1    0    0    0  501 -0.00000000000E+00  0.00000000000E+00  0.82303955999E+02  0.82316204802E+02  0.14200000000E+01 0.  1.
          4   -1    0    0  501    0  0.00000000000E+00 -0.00000000000E+00 -0.78401553735E+00  0.16220605299E+01  0.14200000000E+01 0. -1.
       1023    2    1    2    0    0  0.00000000000E+00  0.00000000000E+00  0.81519940462E+02  0.83938265332E+02  0.20003292083E+02 0.  0.
        -13    1    3    3    0    0 -0.99865206192E+01  0.52811775652E+00  0.40295559970E+02  0.41518102416E+02  0.10570000000E+00 0.  1.
         13    1    3    3    0    0  0.99865206192E+01 -0.52811775652E+00  0.41224380491E+02  0.42420162916E+02  0.10570000000E+00 0. -1.
<mgrwt>
<rscale>  0 0.20003292E+02</rscale>
<asrwt>0</asrwt>
<pdfrwt beam="2">  1        4 0.18602501E-03 0.20003292E+02</pdfrwt>
<pdfrwt beam="1">  1       -4 0.12727553E-01 0.20003292E+02</pdfrwt>
<totfact> 0.10280900E+06</totfact>
</mgrwt>
</event>
<event>
 5    1  0.4710515E-007  0.2000344E+02  0.7818608E-02  0.1745260E+00
          4   -1    0    0  501    0  0.00000000000E+00  0.00000000000E+00  0.25860418269E+01  0.29502563161E+01  0.14200000000E+01 0. -1.
         -4   -1    0    0    0  501 -0.00000000000E+00 -0.00000000000E+00 -0.35758400139E+02  0.35786583806E+02  0.14200000000E+01 0.  1.
       1023    2    1    2    0    0  0.00000000000E+00  0.00000000000E+00 -0.33172358312E+02  0.38736840122E+02  0.20003435371E+02 0.  0.
        -13    1    3    3    0    0 -0.99914173948E+01  0.43815175730E+00 -0.16688386760E+02  0.19455945715E+02  0.10570000000E+00 0. -1.
         13    1    3    3    0    0  0.99914173948E+01 -0.43815175730E+00 -0.16483971551E+02  0.19280894406E+02  0.10570000000E+00 0.  1.
<mgrwt>
<rscale>  0 0.20003435E+02</rscale>
<asrwt>0</asrwt>
<pdfrwt beam="1">  1        4 0.42803709E-03 0.20003435E+02</pdfrwt>
<pdfrwt beam="2">  1       -4 0.55314765E-02 0.20003435E+02</pdfrwt>
<totfact> 0.12017633E+06</totfact>
</mgrwt>
</event>
<event>
 4    1  0.4710515E-007  0.2002718E+02  0.7818608E-02  0.1744788E+00
         -4   -1    0    0    0  501 -0.00000000000E+00  0.00000000000E+00  0.29926069039E+00  0.14511915659E+01  0.14200000000E+01 0.  1.
          4   -1    0    0  501    0  0.00000000000E+00 -0.00000000000E+00 -0.11340762579E+03  0.11341651549E+03  0.14200000000E+01 0. -1.
        -13    1    1    2    0    0 -0.95118610783E+01 -0.30993163401E+01 -0.58984423077E+02  0.59826871898E+02  0.10570000000E+00 0.  1.
         13    1    1    2    0    0  0.95118610783E+01  0.30993163401E+01 -0.54123942021E+02  0.55040835162E+02  0.10570000000E+00 0. -1.
<mgrwt>
<rscale>  0 0.20027178E+02</rscale>
<asrwt>0</asrwt>
<pdfrwt beam="2">  1        4 0.17536609E-01 0.20027178E+02</pdfrwt>
<pdfrwt beam="1">  1       -4 0.13533409E-03 0.20027178E+02</pdfrwt>
<totfact> 0.93716672E+05</totfact>
</mgrwt>
</event>
<event>
 4    1  0.4710515E-007  0.2001890E+02  0.7818608E-02  0.1744953E+00
         -4   -1    0    0    0  501 -0.00000000000E+00  0.00000000000E+00  0.10960473416E+02  0.11052075710E+02  0.14200000000E+01 0. -1.
          4   -1    0    0  501    0  0.00000000000E+00 -0.00000000000E+00 -0.89551248645E+01  0.90670095037E+01  0.14200000000E+01 0.  1.
        -13    1    1    2    0    0  0.16542427700E+01  0.98711360357E+01  0.10478826418E+01  0.10064048703E+02  0.10570000000E+00 0.  1.
         13    1    1    2    0    0 -0.16542427700E+01 -0.98711360357E+01  0.95746590979E+00  0.10055036511E+02  0.10570000000E+00 0. -1.
<mgrwt>
<rscale>  0 0.20018895E+02</rscale>
<asrwt>0</asrwt>
<pdfrwt beam="2">  1        4 0.13933644E-02 0.20018895E+02</pdfrwt>
<pdfrwt beam="1">  1       -4 0.17018795E-02 0.20018895E+02</pdfrwt>
<totfact> 0.12981922E+06</totfact>
</mgrwt>
</event>
<event>
 4    1  0.4710515E-007  0.2005314E+02  0.7818608E-02  0.1744273E+00
         -4   -1    0    0    0  501 -0.00000000000E+00  0.00000000000E+00  0.21686159352E+01  0.25921603103E+01  0.14200000000E+01 0. -1.
          4   -1    0    0  501    0  0.00000000000E+00 -0.00000000000E+00 -0.41796826660E+02  0.41820941152E+02  0.14200000000E+01 0.  1.
        -13    1    1    2    0    0 -0.78186203134E+01  0.62662475766E+01 -0.20594852792E+02  0.22903183541E+02  0.10570000000E+00 0. -1.
         13    1    1    2    0    0  0.78186203134E+01 -0.62662475766E+01 -0.19033357933E+02  0.21509917921E+02  0.10570000000E+00 0.  1.
<mgrwt>
<rscale>  0 0.20053142E+02</rscale>
<asrwt>0</asrwt>
<pdfrwt beam="2">  1        4 0.64647158E-02 0.20053142E+02</pdfrwt>
<pdfrwt beam="1">  1       -4 0.36806855E-03 0.20053142E+02</pdfrwt>
<totfact> 0.11698906E+06</totfact>
</mgrwt>
</event>
<event>
 5    1  0.4710515E-007  0.2001065E+02  0.7818608E-02  0.1745116E+00
          4   -1    0    0  501    0  0.00000000000E+00  0.00000000000E+00  0.24787958178E+02  0.24828597839E+02  0.14200000000E+01 0.  1.
         -4   -1    0    0    0  501 -0.00000000000E+00 -0.00000000000E+00 -0.38682626487E+01  0.41206620729E+01  0.14200000000E+01 0. -1.
       1023    2    1    2    0    0  0.00000000000E+00  0.00000000000E+00  0.20919695529E+02  0.28949259911E+02  0.20010646876E+02 0.  0.
        -13    1    3    3    0    0 -0.48383251328E+01 -0.87535963791E+01  0.10815642891E+02  0.14731739316E+02  0.10570000000E+00 0.  1.
         13    1    3    3    0    0  0.48383251328E+01  0.87535963791E+01  0.10104052639E+02  0.14217520595E+02  0.10570000000E+00 0. -1.
<mgrwt>
<rscale>  0 0.20010647E+02</rscale>
<asrwt>0</asrwt>
<pdfrwt beam="1">  1        4 0.38360735E-02 0.20010647E+02</pdfrwt>
<pdfrwt beam="2">  1       -4 0.61765880E-03 0.20010647E+02</pdfrwt>
<totfact> 0.12497460E+06</totfact>
</mgrwt>
</event>
<event>
 4    1  0.4710515E-007  0.2118965E+02  0.7818608E-02  0.1722655E+00
         -4   -1    0    0    0  501 -0.00000000000E+00  0.00000000000E+00  0.16796389942E+02  0.16856307872E+02  0.14200000000E+01 0. -1.
          4   -1    0    0  501    0  0.00000000000E+00 -0.00000000000E+00 -0.65347989533E+01  0.66873012015E+01  0.14200000000E+01 0.  1.
        -13    1    1    2    0    0 -0.67904641481E+01 -0.81248953589E+01  0.55072881837E+01  0.11935900618E+02  0.10570000000E+00 0. -1.
         13    1    1    2    0    0  0.67904641481E+01  0.81248953589E+01  0.47543028051E+01  0.11607708456E+02  0.10570000000E+00 0.  1.
<mgrwt>
<rscale>  0 0.21189650E+02</rscale>
<asrwt>0</asrwt>
<pdfrwt beam="2">  1        4 0.10216937E-02 0.21189650E+02</pdfrwt>
<pdfrwt beam="1">  1       -4 0.26004000E-02 0.21189650E+02</pdfrwt>
<totfact> 0.11368783E+06</totfact>
</mgrwt>
</event>
<event>
 4    1  0.4710515E-007  0.2008383E+02  0.7818608E-02  0.1743666E+00
         -4   -1    0    0    0  501 -0.00000000000E+00  0.00000000000E+00  0.30359064651E+01  0.33515859030E+01  0.14200000000E+01 0. -1.
          4   -1    0    0  501    0  0.00000000000E+00 -0.00000000000E+00 -0.31241630713E+02  0.31273885106E+02  0.14200000000E+01 0.  1.
        -13    1    1    2    0    0  0.84983383540E+01 -0.52991856304E+01 -0.12852726061E+02  0.16294381326E+02  0.10570000000E+00 0. -1.
         13    1    1    2    0    0 -0.84983383540E+01  0.52991856304E+01 -0.15352998188E+02  0.18331089683E+02  0.10570000000E+00 0.  1.
<mgrwt>
<rscale>  0 0.20083833E+02</rscale>
<asrwt>0</asrwt>
<pdfrwt beam="2">  1        4 0.48331687E-02 0.20083833E+02</pdfrwt>
<pdfrwt beam="1">  1       -4 0.49382670E-03 0.20083833E+02</pdfrwt>
<totfact> 0.12117190E+06</totfact>
</mgrwt>
</event>
<event>
 5    1  0.4710515E-007  0.2000190E+02  0.7818608E-02  0.1745290E+00
         -4   -1    0    0    0  501 -0.00000000000E+00  0.00000000000E+00  0.16774987957E+02  0.16834982060E+02  0.14200000000E+01 0. -1.
          4   -1    0    0  501    0  0.00000000000E+00 -0.00000000000E+00 -0.58060384454E+01  0.59771634100E+01  0.14200000000E+01 0.  1.
       1023    2    1    2    0    0  0.00000000000E+00  0.00000000000E+00  0.10968949512E+02  0.22812145470E+02  0.20001903098E+02 0.  0.
        -13    1    3    3    0    0  0.75806334961E+01  0.65221853014E+01  0.54224868658E+01  0.11376266594E+02  0.10570000000E+00 0.  1.
         13    1    3    3    0    0 -0.75806334961E+01 -0.65221853014E+01  0.55464626461E+01  0.11435878877E+02  0.10570000000E+00 0. -1.
<mgrwt>
<rscale>  0 0.20001903E+02</rscale>
<asrwt>0</asrwt>
<pdfrwt beam="2">  1        4 0.91101508E-03 0.20001903E+02</pdfrwt>
<pdfrwt beam="1">  1       -4 0.25985457E-02 0.20001903E+02</pdfrwt>
<totfact> 0.12846851E+06</totfact>
</mgrwt>
</event>
<event>
 5    1  0.4710515E-007  0.2001035E+02  0.7818608E-02  0.1745122E+00
         -4   -1    0    0    0  501 -0.00000000000E+00  0.00000000000E+00  0.11355780898E+01  0.18182237481E+01  0.14200000000E+01 0. -1.
          4   -1    0    0  501    0  0.00000000000E+00 -0.00000000000E+00 -0.67087579854E+02  0.67102606288E+02  0.14200000000E+01 0.  1.
       1023    2    1    2    0    0  0.00000000000E+00  0.00000000000E+00 -0.65952001764E+02  0.68920830036E+02  0.20010354224E+02 0.  0.
        -13    1    3    3    0    0  0.18084361658E+01  0.98398018349E+01 -0.33031005806E+02  0.34513050554E+02  0.10570000000E+00 0. -1.
         13    1    3    3    0    0 -0.18084361658E+01 -0.98398018349E+01 -0.32920995958E+02  0.34407779482E+02  0.10570000000E+00 0.  1.
<mgrwt>
<rscale>  0 0.20010354E+02</rscale>
<asrwt>0</asrwt>
<pdfrwt beam="2">  1        4 0.10374831E-01 0.20010354E+02</pdfrwt>
<pdfrwt beam="1">  1       -4 0.22837146E-03 0.20010354E+02</pdfrwt>
<totfact> 0.10777861E+06</totfact>
</mgrwt>
</event>
<event>
 5    1  0.4710515E-007  0.2000510E+02  0.7818608E-02  0.1745227E+00
         -4   -1    0    0    0  501 -0.00000000000E+00  0.00000000000E+00  0.34516632269E+00  0.14613486204E+01  0.14200000000E+01 0.  1.
          4   -1    0    0  501    0  0.00000000000E+00 -0.00000000000E+00 -0.10964326385E+03  0.10965245874E+03  0.14200000000E+01 0. -1.
       1023    2    1    2    0    0  0.00000000000E+00  0.00000000000E+00 -0.10929809753E+03  0.11111380737E+03  0.20005100925E+02 0.  0.
        -13    1    3    3    0    0  0.47488703606E+01  0.88011610279E+01 -0.55572431046E+02  0.56465196980E+02  0.10570000000E+00 0. -1.
         13    1    3    3    0    0 -0.47488703606E+01 -0.88011610279E+01 -0.53725666486E+02  0.54648610385E+02  0.10570000000E+00 0.  1.
<mgrwt>
<rscale>  0 0.20005101E+02</rscale>
<asrwt>0</asrwt>
<pdfrwt beam="2">  1        4 0.16954751E-01 0.20005101E+02</pdfrwt>
<pdfrwt beam="1">  1       -4 0.13967007E-03 0.20005101E+02</pdfrwt>
<totfact> 0.94907929E+05</totfact>
</mgrwt>
</event>
<event>
 4    1  0.4710515E-007  0.2053526E+02  0.7818608E-02  0.1734889E+00
          4   -1    0    0  501    0  0.00000000000E+00  0.00000000000E+00  0.29222067189E+02  0.29256548169E+02  0.14200000000E+01 0. -1.
         -4   -1    0    0    0  501 -0.00000000000E+00 -0.00000000000E+00 -0.34298342367E+01  0.37121641789E+01  0.14200000000E+01 0.  1.
        -13    1    1    2    0    0  0.73226658448E+01 -0.71912064441E+01  0.12447386866E+02  0.16133303986E+02  0.10570000000E+00 0.  1.
         13    1    1    2    0    0 -0.73226658448E+01  0.71912064441E+01  0.13344846085E+02  0.16835408362E+02  0.10570000000E+00 0. -1.
<mgrwt>
<rscale>  0 0.20535255E+02</rscale>
<asrwt>0</asrwt>
<pdfrwt beam="1">  1        4 0.45200729E-02 0.20535255E+02</pdfrwt>
<pdfrwt beam="2">  1       -4 0.55203686E-03 0.20535255E+02</pdfrwt>
<totfact> 0.11657168E+06</totfact>
</mgrwt>
</event>
<event>
 5    1  0.4710515E-007  0.2000373E+02  0.7818608E-02  0.1745254E+00
         -4   -1    0    0    0  501 -0.00000000000E+00  0.00000000000E+00  0.10511945291E+03  0.10512904347E+03  0.14200000000E+01 0.  1.
          4   -1    0    0  501    0  0.00000000000E+00 -0.00000000000E+00 -0.40685476052E+00  0.14771360114E+01  0.14200000000E+01 0. -1.
       1023    2    1    2    0    0  0.00000000000E+00  0.00000000000E+00  0.10471259815E+03  0.10660617948E+03  0.20003731941E+02 0.  0.
        -13    1    3    3    0    0 -0.74591343187E+01  0.66607381945E+01  0.53147344665E+02  0.54080084463E+02  0.10570000000E+00 0. -1.
         13    1    3    3    0    0  0.74591343187E+01 -0.66607381945E+01  0.51565253487E+02  0.52526095017E+02  0.10570000000E+00 0.  1.
<mgrwt>
<rscale>  0 0.20003732E+02</rscale>
<asrwt>0</asrwt>
<pdfrwt beam="2">  1        4 0.14566015E-03 0.20003732E+02</pdfrwt>
<pdfrwt beam="1">  1       -4 0.16255285E-01 0.20003732E+02</pdfrwt>
<totfact> 0.96134635E+05</totfact>
</mgrwt>
</event>
<event>
 5    1  0.4710515E-007  0.2000528E+02  0.7818608E-02  0.1745223E+00
          4   -1    0    0  501    0  0.00000000000E+00  0.00000000000E+00  0.68201682827E+00  0.15752926566E+01  0.14200000000E+01 0. -1.
         -4   -1    0    0    0  501 -0.00000000000E+00 -0.00000000000E+00 -0.87746583715E+02  0.87758072869E+02  0.14200000000E+01 0.  1.
       1023    2    1    2    0    0  0.00000000000E+00  0.00000000000E+00 -0.87064566887E+02  0.89333365525E+02  0.20005284025E+02 0.  0.
        -13    1    3    3    0    0 -0.18217589009E+01 -0.98328169511E+01 -0.42655180842E+02  0.43811855928E+02  0.10570000000E+00 0. -1.
         13    1    3    3    0    0  0.18217589009E+01  0.98328169511E+01 -0.44409386045E+02  0.45521509598E+02  0.10570000000E+00 0.  1.
<mgrwt>
<rscale>  0 0.20005284E+02</rscale>
<asrwt>0</asrwt>
<pdfrwt beam="1">  1        4 0.17452304E-03 0.20005284E+02</pdfrwt>
<pdfrwt beam="2">  1       -4 0.13569066E-01 0.20005284E+02</pdfrwt>
<totfact> 0.10110720E+06</totfact>
</mgrwt>
</event>
<event>
 5    1  0.4710515E-007  0.2000350E+02  0.7818608E-02  0.1745258E+00
         -4   -1    0    0    0  501 -0.00000000000E+00  0.00000000000E+00  0.22535833252E+01  0.26636512166E+01  0.14200000000E+01 0.  1.
          4   -1    0    0  501    0  0.00000000000E+00 -0.00000000000E+00 -0.40263888199E+02  0.40288920225E+02  0.14200000000E+01 0. -1.
       1023    2    1    2    0    0  0.00000000000E+00  0.00000000000E+00 -0.38010304874E+02  0.42952571442E+02  0.20003502615E+02 0.  0.
        -13    1    3    3    0    0  0.61444484359E+01  0.78897008636E+01 -0.18684999864E+02  0.21192970974E+02  0.10570000000E+00 0.  1.
         13    1    3    3    0    0 -0.61444484359E+01 -0.78897008636E+01 -0.19325305010E+02  0.21759600468E+02  0.10570000000E+00 0. -1.
<mgrwt>
<rscale>  0 0.20003503E+02</rscale>
<asrwt>0</asrwt>
<pdfrwt beam="2">  1        4 0.62279131E-02 0.20003503E+02</pdfrwt>
<pdfrwt beam="1">  1       -4 0.38017438E-03 0.20003503E+02</pdfrwt>
<totfact> 0.11823122E+06</totfact>
</mgrwt>
</event>
<event>
 5    1  0.4710515E-007  0.2000572E+02  0.7818608E-02  0.1745214E+00
          4   -1    0    0  501    0  0.00000000000E+00  0.00000000000E+00  0.65186224382E+00  0.15624738030E+01  0.14200000000E+01 0.  1.
         -4   -1    0    0    0  501 -0.00000000000E+00 -0.00000000000E+00 -0.89453643047E+02  0.89464912979E+02  0.14200000000E+01 0. -1.
       1023    2    1    2    0    0  0.00000000000E+00  0.00000000000E+00 -0.88801780803E+02  0.91027386782E+02  0.20005720946E+02 0.  0.
        -13    1    3    3    0    0  0.45653130822E+01  0.88987201832E+01 -0.44989605102E+02  0.46088014105E+02  0.10570000000E+00 0. -1.
         13    1    3    3    0    0 -0.45653130822E+01 -0.88987201832E+01 -0.43812175702E+02  0.44939372677E+02  0.10570000000E+00 0.  1.
<mgrwt>
<rscale>  0 0.20005721E+02</rscale>
<asrwt>0</asrwt>
<pdfrwt beam="1">  1        4 0.17120053E-03 0.20005721E+02</pdfrwt>
<pdfrwt beam="2">  1       -4 0.13833007E-01 0.20005721E+02</pdfrwt>
<totfact> 0.10058775E+06</totfact>
</mgrwt>
</event>
<event>
 4    1  0.4710515E-007  0.2067553E+02  0.7818608E-02  0.1732219E+00
          4   -1    0    0  501    0  0.00000000000E+00  0.00000000000E+00  0.10966079137E+03  0.10966998479E+03  0.14200000000E+01 0.  1.
         -4   -1    0    0    0  501 -0.00000000000E+00 -0.00000000000E+00 -0.44306148173E+00  0.14875158744E+01  0.14200000000E+01 0. -1.
        -13    1    1    2    0    0 -0.69235969899E+01 -0.75663524282E+01  0.61561339774E+02  0.62409899949E+02  0.10570000000E+00 0.  1.
         13    1    1    2    0    0  0.69235969899E+01  0.75663524282E+01  0.47656390112E+02  0.48747600714E+02  0.10570000000E+00 0. -1.
<mgrwt>
<rscale>  0 0.20675527E+02</rscale>
<asrwt>0</asrwt>
<pdfrwt beam="1">  1        4 0.16951939E-01 0.20675527E+02</pdfrwt>
<pdfrwt beam="2">  1       -4 0.14921315E-03 0.20675527E+02</pdfrwt>
<totfact> 0.88825274E+05</totfact>
</mgrwt>
</event>
<event>
 4    1  0.4710515E-007  0.2008782E+02  0.7818608E-02  0.1743587E+00
         -4   -1    0    0    0  501 -0.00000000000E+00  0.00000000000E+00  0.20239742296E+01  0.24724222297E+01  0.14200000000E+01 0. -1.
          4   -1    0    0  501    0  0.00000000000E+00 -0.00000000000E+00 -0.44410610072E+02  0.44433306055E+02  0.14200000000E+01 0.  1.
        -13    1    1    2    0    0 -0.80224353403E+01  0.60252175240E+01 -0.20132933799E+02  0.22494641826E+02  0.10570000000E+00 0.  1.
         13    1    1    2    0    0  0.80224353403E+01 -0.60252175240E+01 -0.22253702043E+02  0.24411086459E+02  0.10570000000E+00 0. -1.
<mgrwt>
<rscale>  0 0.20087818E+02</rscale>
<asrwt>0</asrwt>
<pdfrwt beam="2">  1        4 0.68686427E-02 0.20087818E+02</pdfrwt>
<pdfrwt beam="1">  1       -4 0.34762253E-03 0.20087818E+02</pdfrwt>
<totfact> 0.11549654E+06</totfact>
</mgrwt>
</event>
<event>
 5    1  0.4710515E-007  0.2000169E+02  0.7818608E-02  0.1745294E+00
          4   -1    0    0  501    0  0.00000000000E+00  0.00000000000E+00  0.19103283594E+02  0.19155987160E+02  0.14200000000E+01 0. -1.
         -4   -1    0    0    0  501 -0.00000000000E+00 -0.00000000000E+00 -0.50781390034E+01  0.52729399520E+01  0.14200000000E+01 0.  1.
       1023    2    1    2    0    0  0.00000000000E+00  0.00000000000E+00  0.14025144590E+02  0.24428927112E+02  0.20001694904E+02 0.  0.
        -13    1    3    3    0    0  0.75753750196E+01 -0.65283142707E+01  0.70420713626E+01  0.12231399571E+02  0.10570000000E+00 0.  1.
         13    1    3    3    0    0 -0.75753750196E+01  0.65283142707E+01  0.69830732276E+01  0.12197527540E+02  0.10570000000E+00 0. -1.
<mgrwt>
<rscale>  0 0.20001695E+02</rscale>
<asrwt>0</asrwt>
<pdfrwt beam="1">  1        4 0.29580055E-02 0.20001695E+02</pdfrwt>
<pdfrwt beam="2">  1       -4 0.80029098E-03 0.20001695E+02</pdfrwt>
<totfact> 0.12755395E+06</totfact>
</mgrwt>
</event>
<event>
 5    1  0.4710515E-007  0.2000424E+02  0.7818608E-02  0.1745244E+00
         -4   -1    0    0    0  501 -0.00000000000E+00  0.00000000000E+00  0.19238828407E+02  0.19291161667E+02  0.14200000000E+01 0.  1.
          4   -1    0    0  501    0  0.00000000000E+00 -0.00000000000E+00 -0.50424335142E+01  0.52385623739E+01  0.14200000000E+01 0. -1.
       1023    2    1    2    0    0  0.00000000000E+00  0.00000000000E+00  0.14196394892E+02  0.24529724041E+02  0.20004242889E+02 0.  0.
        -13    1    3    3    0    0 -0.71499705104E-01  0.10001299799E+02  0.71132672224E+01  0.12273583541E+02  0.10570000000E+00 0.  1.
         13    1    3    3    0    0  0.71499705104E-01 -0.10001299799E+02  0.70831276699E+01  0.12256140500E+02  0.10570000000E+00 0. -1.
<mgrwt>
<rscale>  0 0.20004243E+02</rscale>
<asrwt>0</asrwt>
<pdfrwt beam="2">  1        4 0.79487148E-03 0.20004243E+02</pdfrwt>
<pdfrwt beam="1">  1       -4 0.29789322E-02 0.20004243E+02</pdfrwt>
<totfact> 0.12746422E+06</totfact>
</mgrwt>
</event>
<event>
 5    1  0.4710515E-007  0.2000214E+02  0.7818608E-02  0.1745286E+00
         -4   -1    0    0    0  501 -0.00000000000E+00  0.00000000000E+00  0.53643766758E+02  0.53662557822E+02  0.14200000000E+01 0. -1.
          4   -1    0    0  501    0  0.00000000000E+00 -0.00000000000E+00 -0.15722140059E+01  0.21185506556E+01  0.14200000000E+01 0.  1.
       1023    2    1    2    0    0  0.00000000000E+00  0.00000000000E+00  0.52071552752E+02  0.55781108478E+02  0.20002136310E+02 0.  0.
        -13    1    3    3    0    0  0.41013756363E+01  0.91202391564E+01  0.25754853201E+02  0.27628313019E+02  0.10570000000E+00 0. -1.
         13    1    3    3    0    0 -0.41013756363E+01 -0.91202391564E+01  0.26316699551E+02  0.28152795458E+02  0.10570000000E+00 0.  1.
<mgrwt>
<rscale>  0 0.20002136E+02</rscale>
<asrwt>0</asrwt>
<pdfrwt beam="2">  1        4 0.28535043E-03 0.20002136E+02</pdfrwt>
<pdfrwt beam="1">  1       -4 0.82963587E-02 0.20002136E+02</pdfrwt>
<totfact> 0.11281271E+06</totfact>
</mgrwt>
</event>
<event>
 4    1  0.4710515E-007  0.2002856E+02  0.7818608E-02  0.1744761E+00
         -4   -1    0    0    0  501 -0.00000000000E+00  0.00000000000E+00  0.43911621866E+01  0.46150520419E+01  0.14200000000E+01 0. -1.
          4   -1    0    0  501    0  0.00000000000E+00 -0.00000000000E+00 -0.22023027158E+02  0.22068759032E+02  0.14200000000E+01 0.  1.
        -13    1    1    2    0    0  0.74102288549E+01  0.67269913406E+01 -0.92592084092E+01  0.13634809021E+02  0.10570000000E+00 0.  1.
         13    1    1    2    0    0 -0.74102288549E+01 -0.67269913406E+01 -0.83726565623E+01  0.13049002053E+02  0.10570000000E+00 0. -1.
<mgrwt>
<rscale>  0 0.20028557E+02</rscale>
<asrwt>0</asrwt>
<pdfrwt beam="2">  1        4 0.34088981E-02 0.20028557E+02</pdfrwt>
<pdfrwt beam="1">  1       -4 0.69630356E-03 0.20028557E+02</pdfrwt>
<totfact> 0.12596070E+06</totfact>
</mgrwt>
</event>
<event>
 4    1  0.4710515E-007  0.2001430E+02  0.7818608E-02  0.1745044E+00
          4   -1    0    0  501    0  0.00000000000E+00  0.00000000000E+00  0.56099345636E+02  0.56117314448E+02  0.14200000000E+01 0. -1.
         -4   -1    0    0    0  501 -0.00000000000E+00 -0.00000000000E+00 -0.14814842678E+01  0.20521197908E+01  0.14200000000E+01 0.  1.
        -13    1    1    2    0    0 -0.62545706916E+01 -0.78107583516E+01  0.27499554078E+02  0.29263701877E+02  0.10570000000E+00 0.  1.
         13    1    1    2    0    0  0.62545706916E+01  0.78107583516E+01  0.27118307291E+02  0.28905732362E+02  0.10570000000E+00 0. -1.
<mgrwt>
<rscale>  0 0.20014302E+02</rscale>
<asrwt>0</asrwt>
<pdfrwt beam="1">  1        4 0.86759449E-02 0.20014302E+02</pdfrwt>
<pdfrwt beam="2">  1       -4 0.27319794E-03 0.20014302E+02</pdfrwt>
<totfact> 0.11173539E+06</totfact>
</mgrwt>
</event>
<event>
 4    1  0.4710515E-007  0.2001304E+02  0.7818608E-02  0.1745069E+00
         -4   -1    0    0    0  501 -0.00000000000E+00  0.00000000000E+00  0.73758488659E+02  0.73772156328E+02  0.14200000000E+01 0.  1.
          4   -1    0    0  501    0  0.00000000000E+00 -0.00000000000E+00 -0.96856365637E+00  0.17188704304E+01  0.14200000000E+01 0. -1.
        -13    1    1    2    0    0 -0.91979880453E+01 -0.39337595454E+01  0.35623166022E+02  0.37001332114E+02  0.10570000000E+00 0.  1.
         13    1    1    2    0    0  0.91979880453E+01  0.39337595454E+01  0.37166758981E+02  0.38489694645E+02  0.10570000000E+00 0. -1.
<mgrwt>
<rscale>  0 0.20013044E+02</rscale>
<asrwt>0</asrwt>
<pdfrwt beam="2">  1        4 0.20777703E-03 0.20013044E+02</pdfrwt>
<pdfrwt beam="1">  1       -4 0.11406229E-01 0.20013044E+02</pdfrwt>
<totfact> 0.10547281E+06</totfact>
</mgrwt>
</event>
<event>
 5    1  0.4710515E-007  0.2000355E+02  0.7818608E-02  0.1745258E+00
          4   -1    0    0  501    0  0.00000000000E+00  0.00000000000E+00  0.57064061434E+02  0.57081726562E+02  0.14200000000E+01 0. -1.
         -4   -1    0    0    0  501 -0.00000000000E+00 -0.00000000000E+00 -0.14445190544E+01  0.20255950480E+01  0.14200000000E+01 0. -1.
       1023    2    1    2    0    0  0.00000000000E+00  0.00000000000E+00  0.55619542379E+02  0.59107321610E+02  0.20003549021E+02 0.  0.
        -13    1    3    3    0    0 -0.28042195342E+01 -0.95998840454E+01  0.27968893922E+02  0.29703394093E+02  0.10570000000E+00 0. -1.
         13    1    3    3    0    0  0.28042195342E+01  0.95998840454E+01  0.27650648457E+02  0.29403927518E+02  0.10570000000E+00 0.  1.
<mgrwt>
<rscale>  0 0.20003549E+02</rscale>
<asrwt>0</asrwt>
<pdfrwt beam="1">  1        4 0.88251441E-02 0.20003549E+02</pdfrwt>
<pdfrwt beam="2">  1       -4 0.26829069E-03 0.20003549E+02</pdfrwt>
<totfact> 0.11149255E+06</totfact>
</mgrwt>
</event>
<event>
 5    1  0.4710515E-007  0.2000146E+02  0.7818608E-02  0.1745299E+00
         -4   -1    0    0    0  501 -0.00000000000E+00  0.00000000000E+00  0.14571368042E+01  0.20346124118E+01  0.14200000000E+01 0. -1.
          4   -1    0    0  501    0  0.00000000000E+00 -0.00000000000E+00 -0.56698417174E+02  0.56716196188E+02  0.14200000000E+01 0.  1.
       1023    2    1    2    0    0  0.00000000000E+00  0.00000000000E+00 -0.55241280370E+02  0.58750808600E+02  0.20001461303E+02 0.  0.
        -13    1    3    3    0    0  0.84285907745E+01  0.53815923205E+01 -0.27539518824E+02  0.29299128791E+02  0.10570000000E+00 0.  1.
         13    1    3    3    0    0 -0.84285907745E+01 -0.53815923205E+01 -0.27701761546E+02  0.29451679810E+02  0.10570000000E+00 0. -1.
<mgrwt>
<rscale>  0 0.20001461E+02</rscale>
<asrwt>0</asrwt>
<pdfrwt beam="2">  1        4 0.87686208E-02 0.20001461E+02</pdfrwt>
<pdfrwt beam="1">  1       -4 0.26996375E-03 0.20001461E+02</pdfrwt>
<totfact> 0.11165393E+06</totfact>
</mgrwt>
</event>
<event>
 5    1  0.4710515E-007  0.2000866E+02  0.7818608E-02  0.1745156E+00
          4   -1    0    0  501    0  0.00000000000E+00  0.00000000000E+00  0.10439052582E+02  0.10535189548E+02  0.14200000000E+01 0. -1.
         -4   -1    0    0    0  501 -0.00000000000E+00 -0.00000000000E+00 -0.93940228021E+01  0.95007402031E+01  0.14200000000E+01 0.  1.
       1023    2    1    2    0    0  0.00000000000E+00  0.00000000000E+00  0.10450297799E+01  0.20035929751E+02  0.20008657970E+02 0.  0.
        -13    1    3    3    0    0  0.65072018607E+01 -0.75954350131E+01  0.31946560271E+00  0.10007374274E+02  0.10570000000E+00 0. -1.
         13    1    3    3    0    0 -0.65072018607E+01  0.75954350131E+01  0.72556417722E+00  0.10028555477E+02  0.10570000000E+00 0.  1.
<mgrwt>
<rscale>  0 0.20008658E+02</rscale>
<asrwt>0</asrwt>
<pdfrwt beam="1">  1        4 0.16216123E-02 0.20008658E+02</pdfrwt>
<pdfrwt beam="2">  1       -4 0.14608385E-02 0.20008658E+02</pdfrwt>
<totfact> 0.13000417E+06</totfact>
</mgrwt>
</event>
<event>
 5    1  0.4745065E-007  0.2000189E+02  0.7818608E-02  0.1745291E+00
         -4   -1    0    0    0  501 -0.00000000000E+00  0.00000000000E+00  0.29219600942E+01  0.32487306432E+01  0.14200000000E+01 0.  1.
          4   -1    0    0  501    0  0.00000000000E+00 -0.00000000000E+00 -0.32074091493E+02  0.32105509575E+02  0.14200000000E+01 0. -1.
       1023    2    1    2    0    0  0.00000000000E+00  0.00000000000E+00 -0.29152131398E+02  0.35354240218E+02  0.20001888319E+02 0.  0.
        -13    1    3    3    0    0  0.21017394419E+00 -0.99978525877E+01 -0.14433757535E+02  0.17559776722E+02  0.10570000000E+00 0.  1.
         13    1    3    3    0    0 -0.21017394419E+00  0.99978525877E+01 -0.14718373864E+02  0.17794463497E+02  0.10570000000E+00 0. -1.
<mgrwt>
<rscale>  0 0.20001888E+02</rscale>
<asrwt>0</asrwt>
<pdfrwt beam="2">  1        4 0.49620284E-02 0.20001888E+02</pdfrwt>
<pdfrwt beam="1">  1       -4 0.47708531E-03 0.20001888E+02</pdfrwt>
<totfact> 0.12182240E+06</totfact>
</mgrwt>
</event>
<event>
 4    1  0.4710515E-007  0.2002386E+02  0.7818608E-02  0.1744854E+00
         -4   -1    0    0    0  501 -0.00000000000E+00  0.00000000000E+00  0.11425754584E+03  0.11426636943E+03  0.14200000000E+01 0.  1.
          4   -1    0    0  501    0  0.00000000000E+00 -0.00000000000E+00 -0.28794997862E+00  0.14489013735E+01  0.14200000000E+01 0. -1.
        -13    1    1    2    0    0  0.57842473819E+01  0.81684675622E+01  0.58227270269E+02  0.59081363860E+02  0.10570000000E+00 0. -1.
         13    1    1    2    0    0 -0.57842473819E+01 -0.81684675622E+01  0.55742325594E+02  0.56633906939E+02  0.10570000000E+00 0.  1.
<mgrwt>
<rscale>  0 0.20023864E+02</rscale>
<asrwt>0</asrwt>
<pdfrwt beam="2">  1        4 0.13428268E-03 0.20023864E+02</pdfrwt>
<pdfrwt beam="1">  1       -4 0.17668067E-01 0.20023864E+02</pdfrwt>
<totfact> 0.93528598E+05</totfact>
</mgrwt>
</event>
<event>
 5    1  0.4930126E-007  0.2000133E+02  0.7818608E-02  0.1745302E+00
          4   -1    0    0  501    0  0.00000000000E+00  0.00000000000E+00  0.37028675367E+01  0.39658073572E+01  0.14200000000E+01 0. -1.
         -4   -1    0    0    0  501 -0.00000000000E+00 -0.00000000000E+00 -0.25800460640E+02  0.25839507914E+02  0.14200000000E+01 0.  1.
       1023    2    1    2    0    0  0.00000000000E+00  0.00000000000E+00 -0.22097593103E+02  0.29805315271E+02  0.20001329892E+02 0.  0.
        -13    1    3    3    0    0  0.98720645248E+01 -0.15950196732E+01 -0.11019704635E+02  0.14881088954E+02  0.10570000000E+00 0.  1.
         13    1    3    3    0    0 -0.98720645248E+01  0.15950196732E+01 -0.11077888468E+02  0.14924226317E+02  0.10570000000E+00 0. -1.
<mgrwt>
<rscale>  0 0.20001330E+02</rscale>
<asrwt>0</asrwt>
<pdfrwt beam="1">  1        4 0.59290172E-03 0.20001330E+02</pdfrwt>
<pdfrwt beam="2">  1       -4 0.39925313E-02 0.20001330E+02</pdfrwt>
<totfact> 0.12464237E+06</totfact>
</mgrwt>
</event>
<event>
 4    1  0.4710515E-007  0.2001997E+02  0.7818608E-02  0.1744931E+00
         -4   -1    0    0    0  501 -0.00000000000E+00  0.00000000000E+00  0.11173204015E+01  0.18068771069E+01  0.14200000000E+01 0.  1.
          4   -1    0    0  501    0  0.00000000000E+00 -0.00000000000E+00 -0.67832732234E+02  0.67847593637E+02  0.14200000000E+01 0. -1.
        -13    1    1    2    0    0  0.23565557189E+01  0.97280283954E+01 -0.33450794555E+02  0.34916396151E+02  0.10570000000E+00 0. -1.
         13    1    1    2    0    0 -0.23565557189E+01 -0.97280283954E+01 -0.33264617277E+02  0.34738074593E+02  0.10570000000E+00 0.  1.
<mgrwt>
<rscale>  0 0.20019968E+02</rscale>
<asrwt>0</asrwt>
<pdfrwt beam="2">  1        4 0.10489988E-01 0.20019968E+02</pdfrwt>
<pdfrwt beam="1">  1       -4 0.22608151E-03 0.20019968E+02</pdfrwt>
<totfact> 0.10741479E+06</totfact>
</mgrwt>
</event>
<event>
 5    1  0.4710515E-007  0.2000759E+02  0.7818608E-02  0.1745177E+00
          4   -1    0    0  501    0  0.00000000000E+00  0.00000000000E+00  0.20573345239E+01  0.24998050611E+01  0.14200000000E+01 0.  1.
         -4   -1    0    0    0  501 -0.00000000000E+00 -0.00000000000E+00 -0.43465288922E+02  0.43488478257E+02  0.14200000000E+01 0. -1.
       1023    2    1    2    0    0  0.00000000000E+00  0.00000000000E+00 -0.41407954398E+02  0.45988283318E+02  0.20007586438E+02 0.  0.
        -13    1    3    3    0    0 -0.58263434338E+01 -0.81298317489E+01 -0.21062020475E+02  0.23316524635E+02  0.10570000000E+00 0. -1.
         13    1    3    3    0    0  0.58263434338E+01  0.81298317489E+01 -0.20345933923E+02  0.22671758683E+02  0.10570000000E+00 0.  1.
<mgrwt>
<rscale>  0 0.20007586E+02</rscale>
<asrwt>0</asrwt>
<pdfrwt beam="1">  1        4 0.35233303E-03 0.20007586E+02</pdfrwt>
<pdfrwt beam="2">  1       -4 0.67227869E-02 0.20007586E+02</pdfrwt>
<totfact> 0.11683374E+06</totfact>
</mgrwt>
</event>
<event>
 5    1  0.4710515E-007  0.2000398E+02  0.7818608E-02  0.1745249E+00
         -4   -1    0    0    0  501 -0.00000000000E+00  0.00000000000E+00  0.23200608284E+02  0.23244023420E+02  0.14200000000E+01 0.  1.
          4   -1    0    0  501    0  0.00000000000E+00 -0.00000000000E+00 -0.41461788697E+01  0.43826018778E+01  0.14200000000E+01 0. -1.
       1023    2    1    2    0    0  0.00000000000E+00  0.00000000000E+00  0.19054429414E+02  0.27626625298E+02  0.20003978230E+02 0.  0.
        -13    1    3    3    0    0  0.96855442431E+01 -0.24910174689E+01  0.93656933429E+01  0.13701909341E+02  0.10570000000E+00 0.  1.
         13    1    3    3    0    0 -0.96855442431E+01  0.24910174689E+01  0.96887360715E+01  0.13924715956E+02  0.10570000000E+00 0. -1.
<mgrwt>
<rscale>  0 0.20003978E+02</rscale>
<asrwt>0</asrwt>
<pdfrwt beam="2">  1        4 0.65939968E-03 0.20003978E+02</pdfrwt>
<pdfrwt beam="1">  1       -4 0.35908504E-02 0.20003978E+02</pdfrwt>
<totfact> 0.12576521E+06</totfact>
</mgrwt>
</event>
<event>
 4    1  0.4710515E-007  0.2003828E+02  0.7818608E-02  0.1744568E+00
          4   -1    0    0  501    0  0.00000000000E+00  0.00000000000E+00  0.47639264131E+02  0.47660422647E+02  0.14200000000E+01 0.  1.
         -4   -1    0    0    0  501 -0.00000000000E+00 -0.00000000000E+00 -0.18437522589E+01  0.23271919543E+01  0.14200000000E+01 0. -1.
        -13    1    1    2    0    0 -0.76564041898E+01  0.64615381822E+01  0.22902220510E+02  0.24997897463E+02  0.10570000000E+00 0. -1.
         13    1    1    2    0    0  0.76564041898E+01 -0.64615381822E+01  0.22893291362E+02  0.24989717138E+02  0.10570000000E+00 0.  1.
<mgrwt>
<rscale>  0 0.20038281E+02</rscale>
<asrwt>0</asrwt>
<pdfrwt beam="1">  1        4 0.73679319E-02 0.20038281E+02</pdfrwt>
<pdfrwt beam="2">  1       -4 0.32246948E-03 0.20038281E+02</pdfrwt>
<totfact> 0.11476366E+06</totfact>
</mgrwt>
</event>
<event>
 5    1  0.4710515E-007  0.2000721E+02  0.7818608E-02  0.1745185E+00
         -4   -1    0    0    0  501 -0.00000000000E+00  0.00000000000E+00  0.59963933163E+01  0.61622344002E+01  0.14200000000E+01 0.  1.
          4   -1    0    0  501    0  0.00000000000E+00 -0.00000000000E+00 -0.16263880671E+02  0.16325753106E+02  0.14200000000E+01 0. -1.
       1023    2    1    2    0    0  0.00000000000E+00  0.00000000000E+00 -0.10267487355E+02  0.22487987507E+02  0.20007205840E+02 0.  0.
        -13    1    3    3    0    0 -0.59084102239E+00 -0.99849711786E+01 -0.50098167938E+01  0.11187411646E+02  0.10570000000E+00 0. -1.
         13    1    3    3    0    0  0.59084102239E+00  0.99849711786E+01 -0.52576705613E+01  0.11300575860E+02  0.10570000000E+00 0.  1.
<mgrwt>
<rscale>  0 0.20007206E+02</rscale>
<asrwt>0</asrwt>
<pdfrwt beam="2">  1        4 0.25196519E-02 0.20007206E+02</pdfrwt>
<pdfrwt beam="1">  1       -4 0.94003848E-03 0.20007206E+02</pdfrwt>
<totfact> 0.12858545E+06</totfact>
</mgrwt>
</event>
<event>
 5    1  0.4710515E-007  0.2000380E+02  0.7818608E-02  0.1745252E+00
         -4   -1    0    0    0  501 -0.00000000000E+00  0.00000000000E+00  0.34981375013E+01  0.37753630260E+01  0.14200000000E+01 0.  1.
          4   -1    0    0  501    0  0.00000000000E+00 -0.00000000000E+00 -0.27211094056E+02  0.27248119930E+02  0.14200000000E+01 0. -1.
       1023    2    1    2    0    0  0.00000000000E+00  0.00000000000E+00 -0.23712956554E+02  0.31023482956E+02  0.20003804292E+02 0.  0.
        -13    1    3    3    0    0  0.89017382689E+01  0.45587506819E+01 -0.11761861165E+02  0.15439420409E+02  0.10570000000E+00 0. -1.
         13    1    3    3    0    0 -0.89017382689E+01 -0.45587506819E+01 -0.11951095389E+02  0.15584062547E+02  0.10570000000E+00 0.  1.
<mgrwt>
<rscale>  0 0.20003804E+02</rscale>
<asrwt>0</asrwt>
<pdfrwt beam="2">  1        4 0.42104952E-02 0.20003804E+02</pdfrwt>
<pdfrwt beam="1">  1       -4 0.56234820E-03 0.20003804E+02</pdfrwt>
<totfact> 0.12397834E+06</totfact>
</mgrwt>
</event>
<event>
 5    1  0.4710515E-007  0.2000178E+02  0.7818608E-02  0.1745293E+00
          4   -1    0    0  501    0  0.00000000000E+00  0.00000000000E+00  0.81056922265E+02  0.81069359483E+02  0.14200000000E+01 0. -1.
         -4   -1    0    0    0  501 -0.00000000000E+00 -0.00000000000E+00 -0.80861982697E+00  0.16340948640E+01  0.14200000000E+01 0.  1.
       1023    2    1    2    0    0  0.00000000000E+00  0.00000000000E+00  0.80248302438E+02  0.82703454347E+02  0.20001782841E+02 0.  0.
        -13    1    3    3    0    0  0.86627573867E+01 -0.49962234503E+01  0.40257649252E+02  0.41481262156E+02  0.10570000000E+00 0.  1.
         13    1    3    3    0    0 -0.86627573867E+01  0.49962234503E+01  0.39990653186E+02  0.41222192191E+02  0.10570000000E+00 0. -1.
<mgrwt>
<rscale>  0 0.20001783E+02</rscale>
<asrwt>0</asrwt>
<pdfrwt beam="1">  1        4 0.12534749E-01 0.20001783E+02</pdfrwt>
<pdfrwt beam="2">  1       -4 0.18885786E-03 0.20001783E+02</pdfrwt>
<totfact> 0.10321832E+06</totfact>
</mgrwt>
</event>
<event>
 5    1  0.4710515E-007  0.2000209E+02  0.7818608E-02  0.1745287E+00
         -4   -1    0    0    0  501 -0.00000000000E+00  0.00000000000E+00  0.58185870935E+01  0.59893535348E+01  0.14200000000E+01 0. -1.
          4   -1    0    0  501    0  0.00000000000E+00 -0.00000000000E+00 -0.16740031329E+02  0.16800150264E+02  0.14200000000E+01 0.  1.
       1023    2    1    2    0    0  0.00000000000E+00  0.00000000000E+00 -0.10921444235E+02  0.22789503799E+02  0.20002088371E+02 0.  0.
        -13    1    3    3    0    0  0.66043918105E+00 -0.99786410053E+01 -0.54424893210E+01  0.11386014172E+02  0.10570000000E+00 0.  1.
         13    1    3    3    0    0 -0.66043918105E+00  0.99786410053E+01 -0.54789549143E+01  0.11403489627E+02  0.10570000000E+00 0. -1.
<mgrwt>
<rscale>  0 0.20002088E+02</rscale>
<asrwt>0</asrwt>
<pdfrwt beam="2">  1        4 0.25931498E-02 0.20002088E+02</pdfrwt>
<pdfrwt beam="1">  1       -4 0.91292767E-03 0.20002088E+02</pdfrwt>
<totfact> 0.12847907E+06</totfact>
</mgrwt>
</event>
<event>
 4    1  0.4710515E-007  0.2009025E+02  0.7818608E-02  0.1743539E+00
          4   -1    0    0  501    0  0.00000000000E+00  0.00000000000E+00  0.27424716924E+02  0.27461454775E+02  0.14200000000E+01 0.  1.
         -4   -1    0    0    0  501 -0.00000000000E+00 -0.00000000000E+00 -0.35015472831E+01  0.37785226446E+01  0.14200000000E+01 0. -1.
        -13    1    1    2    0    0 -0.48139498004E+01  0.87958527724E+01  0.11038725970E+02  0.14913275368E+02  0.10570000000E+00 0. -1.
         13    1    1    2    0    0  0.48139498004E+01 -0.87958527724E+01  0.12884443671E+02  0.16326702051E+02  0.10570000000E+00 0.  1.
<mgrwt>
<rscale>  0 0.20090250E+02</rscale>
<asrwt>0</asrwt>
<pdfrwt beam="1">  1        4 0.42433190E-02 0.20090250E+02</pdfrwt>
<pdfrwt beam="2">  1       -4 0.56283137E-03 0.20090250E+02</pdfrwt>
<totfact> 0.12278609E+06</totfact>
</mgrwt>
</event>
<event>
 5    1  0.4710515E-007  0.2000842E+02  0.7818608E-02  0.1745161E+00
          4   -1    0    0  501    0  0.00000000000E+00  0.00000000000E+00  0.15326682836E+02  0.15392322981E+02  0.14200000000E+01 0.  1.
         -4   -1    0    0    0  501 -0.00000000000E+00 -0.00000000000E+00 -0.63721551600E+01  0.65284578104E+01  0.14200000000E+01 0. -1.
       1023    2    1    2    0    0  0.00000000000E+00  0.00000000000E+00  0.89545276763E+01  0.21920780792E+02  0.20008424841E+02 0.  0.
        -13    1    3    3    0    0  0.51621775545E+01 -0.85668911934E+01  0.46774634840E+01  0.11042170935E+02  0.10570000000E+00 0. -1.
         13    1    3    3    0    0 -0.51621775545E+01  0.85668911934E+01  0.42770641923E+01  0.10878609857E+02  0.10570000000E+00 0.  1.
<mgrwt>
<rscale>  0 0.20008425E+02</rscale>
<asrwt>0</asrwt>
<pdfrwt beam="1">  1        4 0.23750237E-02 0.20008425E+02</pdfrwt>
<pdfrwt beam="2">  1       -4 0.99740409E-03 0.20008425E+02</pdfrwt>
<totfact> 0.12889748E+06</totfact>
</mgrwt>
</event>
<event>
 5    1  0.4710515E-007  0.2000508E+02  0.7818608E-02  0.1745227E+00
          4   -1    0    0  501    0  0.00000000000E+00  0.00000000000E+00  0.26499382675E+02  0.26537401571E+02  0.14200000000E+01 0.  1.
         -4   -1    0    0    0  501 -0.00000000000E+00 -0.00000000000E+00 -0.35997937898E+01  0.38697435741E+01  0.14200000000E+01 0. -1.
       1023    2    1    2    0    0  0.00000000000E+00  0.00000000000E+00  0.22899588885E+02  0.30407145146E+02  0.20005081974E+02 0.  0.
        -13    1    3    3    0    0 -0.81339584153E+01  0.58196916881E+01  0.11301156671E+02  0.15091633624E+02  0.10570000000E+00 0. -1.
         13    1    3    3    0    0  0.81339584153E+01 -0.58196916881E+01  0.11598432214E+02  0.15315511521E+02  0.10570000000E+00 0.  1.
<mgrwt>
<rscale>  0 0.20005082E+02</rscale>
<asrwt>0</asrwt>
<pdfrwt beam="1">  1        4 0.41005182E-02 0.20005082E+02</pdfrwt>
<pdfrwt beam="2">  1       -4 0.57750431E-03 0.20005082E+02</pdfrwt>
<totfact> 0.12428112E+06</totfact>
</mgrwt>
</event>
<event>
 5    1  0.4710515E-007  0.2001121E+02  0.7818608E-02  0.1745105E+00
          4   -1    0    0  501    0  0.00000000000E+00  0.00000000000E+00  0.11170505054E+01  0.18067102235E+01  0.14200000000E+01 0.  1.
         -4   -1    0    0    0  501 -0.00000000000E+00 -0.00000000000E+00 -0.67782920205E+02  0.67797792526E+02  0.14200000000E+01 0. -1.
       1023    2    1    2    0    0  0.00000000000E+00  0.00000000000E+00 -0.66665869699E+02  0.69604502750E+02  0.20011212365E+02 0.  0.
        -13    1    3    3    0    0  0.78802169933E+01 -0.61607837894E+01 -0.34094238845E+02  0.35531413871E+02  0.10570000000E+00 0.  1.
         13    1    3    3    0    0 -0.78802169933E+01  0.61607837894E+01 -0.32571630854E+02  0.34073088879E+02  0.10570000000E+00 0. -1.
<mgrwt>
<rscale>  0 0.20011212E+02</rscale>
<asrwt>0</asrwt>
<pdfrwt beam="1">  1        4 0.22604875E-03 0.20011212E+02</pdfrwt>
<pdfrwt beam="2">  1       -4 0.10482334E-01 0.20011212E+02</pdfrwt>
<totfact> 0.10752683E+06</totfact>
</mgrwt>
</event>
<event>
 5    1  0.4710515E-007  0.2001128E+02  0.7818608E-02  0.1745104E+00
          4   -1    0    0  501    0  0.00000000000E+00  0.00000000000E+00  0.74055734135E+00  0.16015071576E+01  0.14200000000E+01 0.  1.
         -4   -1    0    0    0  501 -0.00000000000E+00 -0.00000000000E+00 -0.84622020857E+02  0.84633934175E+02  0.14200000000E+01 0. -1.
       1023    2    1    2    0    0  0.00000000000E+00  0.00000000000E+00 -0.83881463516E+02  0.86235441333E+02  0.20011282325E+02 0.  0.
        -13    1    3    3    0    0  0.84611362898E+01 -0.53388619173E+01 -0.42311653024E+02  0.43478516856E+02  0.10570000000E+00 0. -1.
         13    1    3    3    0    0 -0.84611362898E+01  0.53388619173E+01 -0.41569810492E+02  0.42756924477E+02  0.10570000000E+00 0.  1.
<mgrwt>
<rscale>  0 0.20011282E+02</rscale>
<asrwt>0</asrwt>
<pdfrwt beam="1">  1        4 0.18107528E-03 0.20011282E+02</pdfrwt>
<pdfrwt beam="2">  1       -4 0.13085911E-01 0.20011282E+02</pdfrwt>
<totfact> 0.10200385E+06</totfact>
</mgrwt>
</event>
<event>
 4    1  0.4710515E-007  0.2001259E+02  0.7818608E-02  0.1745078E+00
          4   -1    0    0  501    0  0.00000000000E+00  0.00000000000E+00  0.17846043196E+01  0.22806167099E+01  0.14200000000E+01 0. -1.
         -4   -1    0    0    0  501 -0.00000000000E+00 -0.00000000000E+00 -0.48752179980E+02  0.48772855697E+02  0.14200000000E+01 0.  1.
        -13    1    1    2    0    0  0.98525273184E+01 -0.17426185377E+01 -0.23677801842E+02  0.25705222942E+02  0.10570000000E+00 0. -1.
         13    1    1    2    0    0 -0.98525273184E+01  0.17426185377E+01 -0.23289773818E+02  0.25348249465E+02  0.10570000000E+00 0.  1.
<mgrwt>
<rscale>  0 0.20012593E+02</rscale>
<asrwt>0</asrwt>
<pdfrwt beam="1">  1        4 0.31429979E-03 0.20012593E+02</pdfrwt>
<pdfrwt beam="2">  1       -4 0.75400797E-02 0.20012593E+02</pdfrwt>
<totfact> 0.11461577E+06</totfact>
</mgrwt>
</event>
<event>
 4    1  0.4710515E-007  0.2003834E+02  0.7818608E-02  0.1744567E+00
         -4   -1    0    0    0  501 -0.00000000000E+00  0.00000000000E+00  0.47868503362E+02  0.47889560597E+02  0.14200000000E+01 0.  1.
          4   -1    0    0  501    0  0.00000000000E+00 -0.00000000000E+00 -0.18326215819E+01  0.23183834589E+01  0.14200000000E+01 0. -1.
        -13    1    1    2    0    0  0.30058638509E+01 -0.95437406199E+01  0.24281797969E+02  0.26262808067E+02  0.10570000000E+00 0.  1.
         13    1    1    2    0    0 -0.30058638509E+01  0.95437406199E+01  0.21754083812E+02  0.23945135988E+02  0.10570000000E+00 0. -1.
<mgrwt>
<rscale>  0 0.20038344E+02</rscale>
<asrwt>0</asrwt>
<pdfrwt beam="2">  1        4 0.32092789E-03 0.20038344E+02</pdfrwt>
<pdfrwt beam="1">  1       -4 0.74033706E-02 0.20038344E+02</pdfrwt>
<totfact> 0.11467075E+06</totfact>
</mgrwt>
</event>
<event>
 5    1  0.4710515E-007  0.2000477E+02  0.7818608E-02  0.1745233E+00
         -4   -1    0    0    0  501 -0.00000000000E+00  0.00000000000E+00  0.48182742521E+02  0.48203662483E+02  0.14200000000E+01 0.  1.
          4   -1    0    0  501    0  0.00000000000E+00 -0.00000000000E+00 -0.18096946190E+01  0.23003031570E+01  0.14200000000E+01 0. -1.
       1023    2    1    2    0    0  0.00000000000E+00  0.00000000000E+00  0.46373047902E+02  0.50503965640E+02  0.20004773773E+02 0.  0.
        -13    1    3    3    0    0  0.39116012959E+01 -0.92040055304E+01  0.22810126817E+02  0.24906372687E+02  0.10570000000E+00 0. -1.
         13    1    3    3    0    0 -0.39116012959E+01  0.92040055304E+01  0.23562921084E+02  0.25597592954E+02  0.10570000000E+00 0.  1.
<mgrwt>
<rscale>  0 0.20004774E+02</rscale>
<asrwt>0</asrwt>
<pdfrwt beam="2">  1        4 0.31776291E-03 0.20004774E+02</pdfrwt>
<pdfrwt beam="1">  1       -4 0.74520779E-02 0.20004774E+02</pdfrwt>
<totfact> 0.11493539E+06</totfact>
</mgrwt>
</event>
<event>
 4    1  0.4710515E-007  0.2046640E+02  0.7818608E-02  0.1736209E+00
         -4   -1    0    0    0  501 -0.00000000000E+00  0.00000000000E+00  0.29853732240E+02  0.29887484482E+02  0.14200000000E+01 0.  1.
          4   -1    0    0  501    0  0.00000000000E+00 -0.00000000000E+00 -0.33267028231E+01  0.36170916042E+01  0.14200000000E+01 0. -1.
        -13    1    1    2    0    0  0.92519997869E+01  0.43583422805E+01  0.12714400440E+02  0.16317530406E+02  0.10570000000E+00 0.  1.
         13    1    1    2    0    0 -0.92519997869E+01 -0.43583422805E+01  0.13812628976E+02  0.17187045680E+02  0.10570000000E+00 0. -1.
<mgrwt>
<rscale>  0 0.20466395E+02</rscale>
<asrwt>0</asrwt>
<pdfrwt beam="2">  1        4 0.53673436E-03 0.20466395E+02</pdfrwt>
<pdfrwt beam="1">  1       -4 0.46178158E-02 0.20466395E+02</pdfrwt>
<totfact> 0.11712250E+06</totfact>
</mgrwt>
</event>
<event>
 5    1  0.4710515E-007  0.2000248E+02  0.7818608E-02  0.1745279E+00
         -4   -1    0    0    0  501 -0.00000000000E+00  0.00000000000E+00  0.24526189947E+02  0.24567262633E+02  0.14200000000E+01 0.  1.
          4   -1    0    0  501    0  0.00000000000E+00 -0.00000000000E+00 -0.39087231538E+01  0.41586676584E+01  0.14200000000E+01 0. -1.
       1023    2    1    2    0    0  0.00000000000E+00  0.00000000000E+00  0.20617466793E+02  0.28725930292E+02  0.20002478201E+02 0.  0.
        -13    1    3    3    0    0  0.70733394339E+01 -0.70695200112E+01  0.10392066876E+02  0.14422776098E+02  0.10570000000E+00 0.  1.
         13    1    3    3    0    0 -0.70733394339E+01  0.70695200112E+01  0.10225399917E+02  0.14303154193E+02  0.10570000000E+00 0. -1.
<mgrwt>
<rscale>  0 0.20002478E+02</rscale>
<asrwt>0</asrwt>
<pdfrwt beam="2">  1        4 0.62372797E-03 0.20002478E+02</pdfrwt>
<pdfrwt beam="1">  1       -4 0.37956459E-02 0.20002478E+02</pdfrwt>
<totfact> 0.12519674E+06</totfact>
</mgrwt>
</event>
<event>
 5    1  0.4710515E-007  0.2000311E+02  0.7818608E-02  0.1745266E+00
          4   -1    0    0  501    0  0.00000000000E+00  0.00000000000E+00  0.22255869859E+01  0.26400070894E+01  0.14200000000E+01 0. -1.
         -4   -1    0    0    0  501 -0.00000000000E+00 -0.00000000000E+00 -0.40689874519E+02  0.40714644643E+02  0.14200000000E+01 0.  1.
       1023    2    1    2    0    0  0.00000000000E+00  0.00000000000E+00 -0.38464287533E+02  0.43354651732E+02  0.20003110043E+02 0.  0.
        -13    1    3    3    0    0 -0.58712085616E+01  0.80950208775E+01 -0.18929659098E+02  0.21408961186E+02  0.10570000000E+00 0. -1.
         13    1    3    3    0    0  0.58712085616E+01 -0.80950208775E+01 -0.19534628435E+02  0.21945690547E+02  0.10570000000E+00 0.  1.
<mgrwt>
<rscale>  0 0.20003110E+02</rscale>
<asrwt>0</asrwt>
<pdfrwt beam="1">  1        4 0.37618189E-03 0.20003110E+02</pdfrwt>
<pdfrwt beam="2">  1       -4 0.62937641E-02 0.20003110E+02</pdfrwt>
<totfact> 0.11805474E+06</totfact>
</mgrwt>
</event>
<event>
 5    1  0.4710515E-007  0.2000325E+02  0.7818608E-02  0.1745263E+00
          4   -1    0    0  501    0  0.00000000000E+00  0.00000000000E+00  0.15910379189E+01  0.21325575395E+01  0.14200000000E+01 0.  1.
         -4   -1    0    0    0  501 -0.00000000000E+00 -0.00000000000E+00 -0.53176619349E+02  0.53195575430E+02  0.14200000000E+01 0. -1.
       1023    2    1    2    0    0  0.00000000000E+00  0.00000000000E+00 -0.51585581430E+02  0.55328132970E+02  0.20003251898E+02 0.  0.
        -13    1    3    3    0    0 -0.46400285117E+01  0.88590564782E+01 -0.25536243857E+02  0.27424873182E+02  0.10570000000E+00 0. -1.
         13    1    3    3    0    0  0.46400285117E+01 -0.88590564782E+01 -0.26049337573E+02  0.27903259787E+02  0.10570000000E+00 0.  1.
<mgrwt>
<rscale>  0 0.20003252E+02</rscale>
<asrwt>0</asrwt>
<pdfrwt beam="1">  1        4 0.28788862E-03 0.20003252E+02</pdfrwt>
<pdfrwt beam="2">  1       -4 0.82241307E-02 0.20003252E+02</pdfrwt>
<totfact> 0.11298070E+06</totfact>
</mgrwt>
</event>
<event>
 5    1  0.4710515E-007  0.2000499E+02  0.7818608E-02  0.1745229E+00
          4   -1    0    0  501    0  0.00000000000E+00  0.00000000000E+00  0.26075515090E+01  0.29691286385E+01  0.14200000000E+01 0. -1.
         -4   -1    0    0    0  501 -0.00000000000E+00 -0.00000000000E+00 -0.35504856093E+02  0.35533240863E+02  0.14200000000E+01 0. -1.
       1023    2    1    2    0    0  0.00000000000E+00  0.00000000000E+00 -0.32897304584E+02  0.38502369501E+02  0.20004994584E+02 0.  0.
        -13    1    3    3    0    0 -0.96397938100E+01 -0.26611117062E+01 -0.16790996476E+02  0.19543691447E+02  0.10570000000E+00 0.  1.
         13    1    3    3    0    0  0.96397938100E+01  0.26611117062E+01 -0.16106308108E+02  0.18958678055E+02  0.10570000000E+00 0. -1.
<mgrwt>
<rscale>  0 0.20004995E+02</rscale>
<asrwt>0</asrwt>
<pdfrwt beam="1">  1        4 0.43115887E-03 0.20004995E+02</pdfrwt>
<pdfrwt beam="2">  1       -4 0.54922823E-02 0.20004995E+02</pdfrwt>
<totfact> 0.12026811E+06</totfact>
</mgrwt>
</event>
<event>
 5    1  0.4710515E-007  0.2000446E+02  0.7818608E-02  0.1745239E+00
         -4   -1    0    0    0  501 -0.00000000000E+00  0.00000000000E+00  0.23477784185E+02  0.23520687708E+02  0.14200000000E+01 0. -1.
          4   -1    0    0  501    0  0.00000000000E+00 -0.00000000000E+00 -0.40947292326E+01  0.43339597931E+01  0.14200000000E+01 0.  1.
       1023    2    1    2    0    0  0.00000000000E+00  0.00000000000E+00  0.19383054953E+02  0.27854647501E+02  0.20004463705E+02 0.  0.
        -13    1    3    3    0    0  0.42997785883E+01  0.90302168149E+01  0.97244164703E+01  0.13950210027E+02  0.10570000000E+00 0. -1.
         13    1    3    3    0    0 -0.42997785883E+01 -0.90302168149E+01  0.96586384822E+01  0.13904437473E+02  0.10570000000E+00 0.  1.
<mgrwt>
<rscale>  0 0.20004464E+02</rscale>
<asrwt>0</asrwt>
<pdfrwt beam="2">  1        4 0.65166097E-03 0.20004464E+02</pdfrwt>
<pdfrwt beam="1">  1       -4 0.36336694E-02 0.20004464E+02</pdfrwt>
<totfact> 0.12563644E+06</totfact>
</mgrwt>
</event>
<event>
 5    1  0.4710515E-007  0.2001225E+02  0.7818608E-02  0.1745085E+00
          4   -1    0    0  501    0  0.00000000000E+00  0.00000000000E+00  0.50579213001E+01  0.52534719831E+01  0.14200000000E+01 0.  1.
         -4   -1    0    0    0  501 -0.00000000000E+00 -0.00000000000E+00 -0.19197516616E+02  0.19249962187E+02  0.14200000000E+01 0. -1.
       1023    2    1    2    0    0  0.00000000000E+00  0.00000000000E+00 -0.14139595316E+02  0.24503434171E+02  0.20012249510E+02 0.  0.
        -13    1    3    3    0    0 -0.96384287783E+01 -0.26816558189E+01 -0.68933242037E+01  0.12149883881E+02  0.10570000000E+00 0.  1.
         13    1    3    3    0    0  0.96384287783E+01  0.26816558189E+01 -0.72462711121E+01  0.12353550290E+02  0.10570000000E+00 0. -1.
<mgrwt>
<rscale>  0 0.20012250E+02</rscale>
<asrwt>0</asrwt>
<pdfrwt beam="1">  1        4 0.79721838E-03 0.20012250E+02</pdfrwt>
<pdfrwt beam="2">  1       -4 0.29725407E-02 0.20012250E+02</pdfrwt>
<totfact> 0.12737511E+06</totfact>
</mgrwt>
</event>
<event>
 5    1  0.4710515E-007  0.2000250E+02  0.7818608E-02  0.1745278E+00
          4   -1    0    0  501    0  0.00000000000E+00  0.00000000000E+00  0.33328156551E+01  0.36227144782E+01  0.14200000000E+01 0. -1.
         -4   -1    0    0    0  501 -0.00000000000E+00 -0.00000000000E+00 -0.28452940272E+02  0.28488352183E+02  0.14200000000E+01 0.  1.
       1023    2    1    2    0    0  0.00000000000E+00  0.00000000000E+00 -0.25120124616E+02  0.32111066661E+02  0.20002498378E+02 0.  0.
        -13    1    3    3    0    0  0.20114064312E+01 -0.97963167944E+01 -0.12584634411E+02  0.16074755809E+02  0.10570000000E+00 0.  1.
         13    1    3    3    0    0 -0.20114064312E+01  0.97963167944E+01 -0.12535490205E+02  0.16036310852E+02  0.10570000000E+00 0. -1.
<mgrwt>
<rscale>  0 0.20002498E+02</rscale>
<asrwt>0</asrwt>
<pdfrwt beam="1">  1        4 0.53776479E-03 0.20002498E+02</pdfrwt>
<pdfrwt beam="2">  1       -4 0.44023992E-02 0.20002498E+02</pdfrwt>
<totfact> 0.12343665E+06</totfact>
</mgrwt>
</event>
<event>
 5    1  0.4710515E-007  0.2000536E+02  0.7818608E-02  0.1745221E+00
          4   -1    0    0  501    0  0.00000000000E+00  0.00000000000E+00  0.28315129852E+01  0.31676277852E+01  0.14200000000E+01 0.  1.
         -4   -1    0    0    0  501 -0.00000000000E+00 -0.00000000000E+00 -0.33003745707E+02  0.33034279631E+02  0.14200000000E+01 0. -1.
       1023    2    1    2    0    0  0.00000000000E+00  0.00000000000E+00 -0.30172232722E+02  0.36201907416E+02  0.20005361109E+02 0.  0.
        -13    1    3    3    0    0 -0.97763124111E+01  0.21130885666E+01 -0.15028374810E+02  0.18052829406E+02  0.10570000000E+00 0. -1.
         13    1    3    3    0    0  0.97763124111E+01 -0.21130885666E+01 -0.15143857912E+02  0.18149078010E+02  0.10570000000E+00 0.  1.
<mgrwt>
<rscale>  0 0.20005361E+02</rscale>
<asrwt>0</asrwt>
<pdfrwt beam="1">  1        4 0.46382115E-03 0.20005361E+02</pdfrwt>
<pdfrwt beam="2">  1       -4 0.51057028E-02 0.20005361E+02</pdfrwt>
<totfact> 0.12136595E+06</totfact>
</mgrwt>
</event>
<event>
 4    1  0.4710515E-007  0.2007259E+02  0.7818608E-02  0.1743888E+00
          4   -1    0    0  501    0  0.00000000000E+00  0.00000000000E+00  0.36868602332E+02  0.36895937959E+02  0.14200000000E+01 0.  1.
         -4   -1    0    0    0  501 -0.00000000000E+00 -0.00000000000E+00 -0.25171901571E+01  0.28900945118E+01  0.14200000000E+01 0. -1.
        -13    1    1    2    0    0  0.38186070753E+01  0.92678146916E+01  0.16200852244E+02  0.19051323709E+02  0.10570000000E+00 0.  1.
         13    1    1    2    0    0 -0.38186070753E+01 -0.92678146916E+01  0.18150559930E+02  0.20734708762E+02  0.10570000000E+00 0. -1.
<mgrwt>
<rscale>  0 0.20072590E+02</rscale>
<asrwt>0</asrwt>
<pdfrwt beam="1">  1        4 0.57028798E-02 0.20072590E+02</pdfrwt>
<pdfrwt beam="2">  1       -4 0.41804775E-03 0.20072590E+02</pdfrwt>
<totfact> 0.11885055E+06</totfact>
</mgrwt>
</event>
<event>
 5    1  0.4710515E-007  0.2001235E+02  0.7818608E-02  0.1745083E+00
          4   -1    0    0  501    0  0.00000000000E+00  0.00000000000E+00  0.82724777912E+01  0.83934670314E+01  0.14200000000E+01 0.  1.
         -4   -1    0    0    0  501 -0.00000000000E+00 -0.00000000000E+00 -0.11851669140E+02  0.11936434199E+02  0.14200000000E+01 0. -1.
       1023    2    1    2    0    0  0.00000000000E+00  0.00000000000E+00 -0.35791913483E+01  0.20329901231E+02  0.20012353019E+02 0.  0.
        -13    1    3    3    0    0  0.25551459008E+01  0.96737502265E+01 -0.17421444707E+01  0.10156596569E+02  0.10570000000E+00 0.  1.
         13    1    3    3    0    0 -0.25551459008E+01 -0.96737502265E+01 -0.18370468776E+01  0.10173304662E+02  0.10570000000E+00 0. -1.
<mgrwt>
<rscale>  0 0.20012353E+02</rscale>
<asrwt>0</asrwt>
<pdfrwt beam="1">  1        4 0.12885161E-02 0.20012353E+02</pdfrwt>
<pdfrwt beam="2">  1       -4 0.18391610E-02 0.20012353E+02</pdfrwt>
<totfact> 0.12978043E+06</totfact>
</mgrwt>
</event>
<event>
 5    1  0.4867187E-007  0.2000455E+02  0.7818608E-02  0.1745238E+00
         -4   -1    0    0    0  501 -0.00000000000E+00  0.00000000000E+00  0.89767369809E+01  0.90883555621E+01  0.14200000000E+01 0. -1.
          4   -1    0    0  501    0  0.00000000000E+00 -0.00000000000E+00 -0.10918238459E+02  0.11010192144E+02  0.14200000000E+01 0.  1.
       1023    2    1    2    0    0  0.00000000000E+00  0.00000000000E+00 -0.19415014778E+01  0.20098547706E+02  0.20004554279E+02 0.  0.
        -13    1    3    3    0    0 -0.99857613204E+01 -0.56474090723E+00 -0.96698566161E+00  0.10048910150E+02  0.10570000000E+00 0. -1.
         13    1    3    3    0    0  0.99857613204E+01  0.56474090723E+00 -0.97451581622E+00  0.10049637556E+02  0.10570000000E+00 0.  1.
<mgrwt>
<rscale>  0 0.20004554E+02</rscale>
<asrwt>0</asrwt>
<pdfrwt beam="2">  1        4 0.16953884E-02 0.20004554E+02</pdfrwt>
<pdfrwt beam="1">  1       -4 0.13966959E-02 0.20004554E+02</pdfrwt>
<totfact> 0.13002152E+06</totfact>
</mgrwt>
</event>
<event>
 5    1  0.4710516E-007  0.2000159E+02  0.7818608E-02  0.1745296E+00
         -4   -1    0    0    0  501 -0.00000000000E+00  0.00000000000E+00  0.18842426461E+02  0.18895857613E+02  0.14200000000E+01 0.  1.
          4   -1    0    0  501    0  0.00000000000E+00 -0.00000000000E+00 -0.51508588773E+01  0.53430091871E+01  0.14200000000E+01 0. -1.
       1023    2    1    2    0    0  0.00000000000E+00  0.00000000000E+00  0.13691567583E+02  0.24238866800E+02  0.20001590958E+02 0.  0.
        -13    1    3    3    0    0 -0.68215560106E+01  0.73122953577E+01  0.68918964342E+01  0.12145480590E+02  0.10570000000E+00 0. -1.
         13    1    3    3    0    0  0.68215560106E+01 -0.73122953577E+01  0.67996711490E+01  0.12093386210E+02  0.10570000000E+00 0.  1.
<mgrwt>
<rscale>  0 0.20001591E+02</rscale>
<asrwt>0</asrwt>
<pdfrwt beam="2">  1        4 0.81133071E-03 0.20001591E+02</pdfrwt>
<pdfrwt beam="1">  1       -4 0.29177257E-02 0.20001591E+02</pdfrwt>
<totfact> 0.12766236E+06</totfact>
</mgrwt>
</event>
<event>
 5    1  0.4710515E-007  0.2000156E+02  0.7818608E-02  0.1745297E+00
          4   -1    0    0  501    0  0.00000000000E+00  0.00000000000E+00  0.24575536001E+01  0.28383040178E+01  0.14200000000E+01 0. -1.
         -4   -1    0    0    0  501 -0.00000000000E+00 -0.00000000000E+00 -0.37376050243E+02  0.37403015009E+02  0.14200000000E+01 0.  1.
       1023    2    1    2    0    0  0.00000000000E+00  0.00000000000E+00 -0.34918496643E+02  0.40241319027E+02  0.20001558670E+02 0.  0.
        -13    1    3    3    0    0  0.52488659721E+01  0.85118522257E+01 -0.17553454402E+02  0.20202404714E+02  0.10570000000E+00 0.  1.
         13    1    3    3    0    0 -0.52488659721E+01 -0.85118522257E+01 -0.17365042241E+02  0.20038914312E+02  0.10570000000E+00 0. -1.
<mgrwt>
<rscale>  0 0.20001559E+02</rscale>
<asrwt>0</asrwt>
<pdfrwt beam="1">  1        4 0.40944790E-03 0.20001559E+02</pdfrwt>
<pdfrwt beam="2">  1       -4 0.57815239E-02 0.20001559E+02</pdfrwt>
<totfact> 0.11949507E+06</totfact>
</mgrwt>
</event>
<event>
 5    1  0.4984693E-007  0.2000270E+02  0.7818608E-02  0.1745274E+00
         -4   -1    0    0    0  501 -0.00000000000E+00  0.00000000000E+00  0.30475152111E+01  0.33621048410E+01  0.14200000000E+01 0. -1.
          4   -1    0    0  501    0  0.00000000000E+00 -0.00000000000E+00 -0.30879801993E+02  0.30912433924E+02  0.14200000000E+01 0.  1.
       1023    2    1    2    0    0  0.00000000000E+00  0.00000000000E+00 -0.27832286782E+02  0.34274538765E+02  0.20002695320E+02 0.  0.
        -13    1    3    3    0    0  0.37584616763E+01 -0.92676516880E+01 -0.13882717273E+02  0.17110126047E+02  0.10570000000E+00 0. -1.
         13    1    3    3    0    0 -0.37584616763E+01  0.92676516880E+01 -0.13949569509E+02  0.17164412718E+02  0.10570000000E+00 0.  1.
<mgrwt>
<rscale>  0 0.20002695E+02</rscale>
<asrwt>0</asrwt>
<pdfrwt beam="2">  1        4 0.47774479E-02 0.20002695E+02</pdfrwt>
<pdfrwt beam="1">  1       -4 0.49555787E-03 0.20002695E+02</pdfrwt>
<totfact> 0.12234538E+06</totfact>
</mgrwt>
</event>
<event>
 4    1  0.4710515E-007  0.2023889E+02  0.7818608E-02  0.1740619E+00
         -4   -1    0    0    0  501 -0.00000000000E+00  0.00000000000E+00  0.23812614805E+01  0.27725090150E+01  0.14200000000E+01 0. -1.
          4   -1    0    0  501    0  0.00000000000E+00 -0.00000000000E+00 -0.39334112567E+02  0.39359735917E+02  0.14200000000E+01 0.  1.
        -13    1    1    2    0    0 -0.68132691790E+01 -0.74796020936E+01 -0.18818225329E+02  0.21365904179E+02  0.10570000000E+00 0.  1.
         13    1    1    2    0    0  0.68132691790E+01  0.74796020936E+01 -0.18134625758E+02  0.20766340753E+02  0.10570000000E+00 0. -1.
<mgrwt>
<rscale>  0 0.20238895E+02</rscale>
<asrwt>0</asrwt>
<pdfrwt beam="2">  1        4 0.60834685E-02 0.20238895E+02</pdfrwt>
<pdfrwt beam="1">  1       -4 0.39841494E-03 0.20238895E+02</pdfrwt>
<totfact> 0.11582487E+06</totfact>
</mgrwt>
</event>
<event>
 5    1  0.4710515E-007  0.2000167E+02  0.7818608E-02  0.1745295E+00
          4   -1    0    0  501    0  0.00000000000E+00  0.00000000000E+00  0.22794509900E+02  0.22838697020E+02  0.14200000000E+01 0.  1.
         -4   -1    0    0    0  501 -0.00000000000E+00 -0.00000000000E+00 -0.42230326125E+01  0.44553792708E+01  0.14200000000E+01 0. -1.
       1023    2    1    2    0    0  0.00000000000E+00  0.00000000000E+00  0.18571477288E+02  0.27294076291E+02  0.20001670729E+02 0.  0.
        -13    1    3    3    0    0  0.54337314547E+01  0.83950676602E+01  0.92117865122E+01  0.13596719523E+02  0.10570000000E+00 0. -1.
         13    1    3    3    0    0 -0.54337314547E+01 -0.83950676602E+01  0.93596907756E+01  0.13697356769E+02  0.10570000000E+00 0.  1.
<mgrwt>
<rscale>  0 0.20001671E+02</rscale>
<asrwt>0</asrwt>
<pdfrwt beam="1">  1        4 0.35281195E-02 0.20001671E+02</pdfrwt>
<pdfrwt beam="2">  1       -4 0.67096915E-03 0.20001671E+02</pdfrwt>
<totfact> 0.12597417E+06</totfact>
</mgrwt>
</event>
<event>
 4    1  0.4710515E-007  0.2003242E+02  0.7818608E-02  0.1744684E+00
          4   -1    0    0  501    0  0.00000000000E+00  0.00000000000E+00  0.10971813822E+02  0.11063322220E+02  0.14200000000E+01 0. -1.
         -4   -1    0    0    0  501 -0.00000000000E+00 -0.00000000000E+00 -0.89582006475E+01  0.90700473450E+01  0.14200000000E+01 0.  1.
        -13    1    1    2    0    0  0.68502551645E+01 -0.73028814185E+01  0.77059524357E+00  0.10043060408E+02  0.10570000000E+00 0. -1.
         13    1    1    2    0    0 -0.68502551645E+01  0.73028814185E+01  0.12430179312E+01  0.10090309158E+02  0.10570000000E+00 0.  1.
<mgrwt>
<rscale>  0 0.20032422E+02</rscale>
<asrwt>0</asrwt>
<pdfrwt beam="1">  1        4 0.17036141E-02 0.20032422E+02</pdfrwt>
<pdfrwt beam="2">  1       -4 0.13938274E-02 0.20032422E+02</pdfrwt>
<totfact> 0.12963179E+06</totfact>
</mgrwt>
</event>
<event>
 5    1  0.4710515E-007  0.2000646E+02  0.7818608E-02  0.1745200E+00
          4   -1    0    0  501    0  0.00000000000E+00  0.00000000000E+00  0.11482421657E+02  0.11569892269E+02  0.14200000000E+01 0.  1.
         -4   -1    0    0    0  501 -0.00000000000E+00 -0.00000000000E+00 -0.85351692229E+01  0.86524859817E+01  0.14200000000E+01 0. -1.
       1023    2    1    2    0    0  0.00000000000E+00  0.00000000000E+00  0.29472524343E+01  0.20222378251E+02  0.20006456088E+02 0.  0.
        -13    1    3    3    0    0  0.98339160541E+01  0.18269377155E+01  0.13736014931E+01  0.10096611309E+02  0.10570000000E+00 0.  1.
         13    1    3    3    0    0 -0.98339160541E+01 -0.18269377155E+01  0.15736509412E+01  0.10125766941E+02  0.10570000000E+00 0. -1.
<mgrwt>
<rscale>  0 0.20006456E+02</rscale>
<asrwt>0</asrwt>
<pdfrwt beam="1">  1        4 0.17822793E-02 0.20006456E+02</pdfrwt>
<pdfrwt beam="2">  1       -4 0.13288558E-02 0.20006456E+02</pdfrwt>
<totfact> 0.12992247E+06</totfact>
</mgrwt>
</event>
<event>
 5    1  0.4742696E-007  0.2000132E+02  0.7818608E-02  0.1745302E+00
         -4   -1    0    0    0  501 -0.00000000000E+00  0.00000000000E+00  0.89758098316E+01  0.90874398008E+01  0.14200000000E+01 0.  1.
          4   -1    0    0  501    0  0.00000000000E+00 -0.00000000000E+00 -0.10915761897E+02  0.11007736270E+02  0.14200000000E+01 0. -1.
       1023    2    1    2    0    0  0.00000000000E+00  0.00000000000E+00 -0.19399520652E+01  0.20095176071E+02  0.20001317139E+02 0.  0.
        -13    1    3    3    0    0  0.75494100346E+01  0.65580416307E+01 -0.99238389034E+00  0.10049751250E+02  0.10570000000E+00 0.  1.
         13    1    3    3    0    0 -0.75494100346E+01 -0.65580416307E+01 -0.94756817487E+00  0.10045424821E+02  0.10570000000E+00 0. -1.
<mgrwt>
<rscale>  0 0.20001317E+02</rscale>
<asrwt>0</asrwt>
<pdfrwt beam="2">  1        4 0.16950098E-02 0.20001317E+02</pdfrwt>
<pdfrwt beam="1">  1       -4 0.13965557E-02 0.20001317E+02</pdfrwt>
<totfact> 0.13006649E+06</totfact>
</mgrwt>
</event>
<event>
 5    1  0.4710515E-007  0.2000516E+02  0.7818608E-02  0.1745225E+00
         -4   -1    0    0    0  501 -0.00000000000E+00  0.00000000000E+00  0.24450124799E+00  0.14408958534E+01  0.14200000000E+01 0.  1.
          4   -1    0    0  501    0  0.00000000000E+00 -0.00000000000E+00 -0.11752392996E+03  0.11753250832E+03  0.14200000000E+01 0. -1.
       1023    2    1    2    0    0  0.00000000000E+00  0.00000000000E+00 -0.11727942871E+03  0.11897340418E+03  0.20005161905E+02 0.  0.
        -13    1    3    3    0    0 -0.99824876846E+01  0.62480103042E+00 -0.58663885992E+02  0.59510529563E+02  0.10570000000E+00 0. -1.
         13    1    3    3    0    0  0.99824876846E+01 -0.62480103042E+00 -0.58615542716E+02  0.59462874612E+02  0.10570000000E+00 0.  1.
<mgrwt>
<rscale>  0 0.20005162E+02</rscale>
<asrwt>0</asrwt>
<pdfrwt beam="2">  1        4 0.18173282E-01 0.20005162E+02</pdfrwt>
<pdfrwt beam="1">  1       -4 0.13030590E-03 0.20005162E+02</pdfrwt>
<totfact> 0.92869731E+05</totfact>
</mgrwt>
</event>
<event>
 4    1  0.4710515E-007  0.2002069E+02  0.7818608E-02  0.1744917E+00
         -4   -1    0    0    0  501 -0.00000000000E+00  0.00000000000E+00  0.26770195099E+02  0.26807829931E+02  0.14200000000E+01 0.  1.
          4   -1    0    0  501    0  0.00000000000E+00 -0.00000000000E+00 -0.35667342689E+01  0.38390094224E+01  0.14200000000E+01 0. -1.
        -13    1    1    2    0    0  0.35406197952E+01  0.93581376142E+01  0.12048390167E+02  0.15661596542E+02  0.10570000000E+00 0.  1.
         13    1    1    2    0    0 -0.35406197952E+01 -0.93581376142E+01  0.11155070663E+02  0.14985242812E+02  0.10570000000E+00 0. -1.
<mgrwt>
<rscale>  0 0.20020693E+02</rscale>
<asrwt>0</asrwt>
<pdfrwt beam="2">  1        4 0.57256759E-03 0.20020693E+02</pdfrwt>
<pdfrwt beam="1">  1       -4 0.41423307E-02 0.20020693E+02</pdfrwt>
<totfact> 0.12396021E+06</totfact>
</mgrwt>
</event>
<event>
 5    1  0.4710515E-007  0.2000207E+02  0.7818608E-02  0.1745287E+00
         -4   -1    0    0    0  501 -0.00000000000E+00  0.00000000000E+00  0.10273163181E+02  0.10370838045E+02  0.14200000000E+01 0.  1.
          4   -1    0    0  501    0  0.00000000000E+00 -0.00000000000E+00 -0.95395712392E+01  0.96446782957E+01  0.14200000000E+01 0. -1.
       1023    2    1    2    0    0  0.00000000000E+00  0.00000000000E+00  0.73359194219E+00  0.20015516340E+02  0.20002068324E+02 0.  0.
        -13    1    3    3    0    0  0.77367465447E+01  0.63362392881E+01  0.30090030644E+00  0.10005343018E+02  0.10570000000E+00 0.  1.
         13    1    3    3    0    0 -0.77367465447E+01 -0.63362392881E+01  0.43269163575E+00  0.10010173323E+02  0.10570000000E+00 0. -1.
<mgrwt>
<rscale>  0 0.20002068E+02</rscale>
<asrwt>0</asrwt>
<pdfrwt beam="2">  1        4 0.14832250E-02 0.20002068E+02</pdfrwt>
<pdfrwt beam="1">  1       -4 0.15960852E-02 0.20002068E+02</pdfrwt>
<totfact> 0.13010376E+06</totfact>
</mgrwt>
</event>
<event>
 4    1  0.4710515E-007  0.2005246E+02  0.7818608E-02  0.1744287E+00
         -4   -1    0    0    0  501 -0.00000000000E+00  0.00000000000E+00  0.31798313599E+01  0.34824886902E+01  0.14200000000E+01 0. -1.
          4   -1    0    0  501    0  0.00000000000E+00 -0.00000000000E+00 -0.29856959410E+02  0.29890708008E+02  0.14200000000E+01 0.  1.
        -13    1    1    2    0    0 -0.93083772802E+01 -0.37213724229E+01 -0.13105554345E+02  0.16500340223E+02  0.10570000000E+00 0.  1.
         13    1    1    2    0    0  0.93083772802E+01  0.37213724229E+01 -0.13571573705E+02  0.16872856474E+02  0.10570000000E+00 0. -1.
<mgrwt>
<rscale>  0 0.20052459E+02</rscale>
<asrwt>0</asrwt>
<pdfrwt beam="2">  1        4 0.46192556E-02 0.20052459E+02</pdfrwt>
<pdfrwt beam="1">  1       -4 0.51508222E-03 0.20052459E+02</pdfrwt>
<totfact> 0.12217777E+06</totfact>
</mgrwt>
</event>
<event>
 4    1  0.4710515E-007  0.2012290E+02  0.7818608E-02  0.1742895E+00
         -4   -1    0    0    0  501 -0.00000000000E+00  0.00000000000E+00  0.59887500645E+00  0.15411201359E+01  0.14200000000E+01 0. -1.
          4   -1    0    0  501    0  0.00000000000E+00 -0.00000000000E+00 -0.93660252689E+02  0.93671016509E+02  0.14200000000E+01 0.  1.
        -13    1    1    2    0    0 -0.79187736792E+01  0.61532865887E+01 -0.42711160458E+02  0.43872819748E+02  0.10570000000E+00 0. -1.
         13    1    1    2    0    0  0.79187736792E+01 -0.61532865887E+01 -0.50350217224E+02  0.51339316897E+02  0.10570000000E+00 0.  1.
<mgrwt>
<rscale>  0 0.20122896E+02</rscale>
<asrwt>0</asrwt>
<pdfrwt beam="2">  1        4 0.14482572E-01 0.20122896E+02</pdfrwt>
<pdfrwt beam="1">  1       -4 0.16544307E-03 0.20122896E+02</pdfrwt>
<totfact> 0.98188236E+05</totfact>
</mgrwt>
</event>
<event>
 5    1  0.4710515E-007  0.2000604E+02  0.7818608E-02  0.1745208E+00
          4   -1    0    0  501    0  0.00000000000E+00  0.00000000000E+00  0.66192619373E+01  0.67698617855E+01  0.14200000000E+01 0.  1.
         -4   -1    0    0    0  501 -0.00000000000E+00 -0.00000000000E+00 -0.14761460661E+02  0.14829602856E+02  0.14200000000E+01 0. -1.
       1023    2    1    2    0    0  0.00000000000E+00  0.00000000000E+00 -0.81421987241E+01  0.21599464641E+02  0.20006035907E+02 0.  0.
        -13    1    3    3    0    0 -0.98651220730E+01  0.16440508619E+01 -0.42440416902E+01  0.10864925177E+02  0.10570000000E+00 0. -1.
         13    1    3    3    0    0  0.98651220730E+01 -0.16440508619E+01 -0.38981570339E+01  0.10734539464E+02  0.10570000000E+00 0.  1.
<mgrwt>
<rscale>  0 0.20006036E+02</rscale>
<asrwt>0</asrwt>
<pdfrwt beam="1">  1        4 0.10351743E-02 0.20006036E+02</pdfrwt>
<pdfrwt beam="2">  1       -4 0.22878203E-02 0.20006036E+02</pdfrwt>
<totfact> 0.12911599E+06</totfact>
</mgrwt>
</event>
<event>
 4    1  0.4710515E-007  0.2005539E+02  0.7818608E-02  0.1744229E+00
         -4   -1    0    0    0  501 -0.00000000000E+00  0.00000000000E+00  0.15577716815E+02  0.15642303577E+02  0.14200000000E+01 0.  1.
          4   -1    0    0  501    0  0.00000000000E+00 -0.00000000000E+00 -0.62978778518E+01  0.64559790455E+01  0.14200000000E+01 0. -1.
        -13    1    1    2    0    0  0.98057511781E+01  0.20824803365E+01  0.48960116368E+01  0.11156683331E+02  0.10570000000E+00 0.  1.
         13    1    1    2    0    0 -0.98057511781E+01 -0.20824803365E+01  0.43838273269E+01  0.10941599291E+02  0.10570000000E+00 0. -1.
<mgrwt>
<rscale>  0 0.20055390E+02</rscale>
<asrwt>0</asrwt>
<pdfrwt beam="2">  1        4 0.98603412E-03 0.20055390E+02</pdfrwt>
<pdfrwt beam="1">  1       -4 0.24137017E-02 0.20055390E+02</pdfrwt>
<totfact> 0.12817996E+06</totfact>
</mgrwt>
</event>
<event>
 5    1  0.4710515E-007  0.2000210E+02  0.7818608E-02  0.1745286E+00
          4   -1    0    0  501    0  0.00000000000E+00  0.00000000000E+00  0.31671716823E+02  0.31703533660E+02  0.14200000000E+01 0. -1.
         -4   -1    0    0    0  501 -0.00000000000E+00 -0.00000000000E+00 -0.29632359530E+01  0.32859043372E+01  0.14200000000E+01 0.  1.
       1023    2    1    2    0    0  0.00000000000E+00  0.00000000000E+00  0.28708480870E+02  0.34989437997E+02  0.20002097327E+02 0.  0.
        -13    1    3    3    0    0  0.69682387754E+01  0.71727407595E+01  0.14480870627E+02  0.17598617793E+02  0.10570000000E+00 0.  1.
         13    1    3    3    0    0 -0.69682387754E+01 -0.71727407595E+01  0.14227610243E+02  0.17390820204E+02  0.10570000000E+00 0. -1.
<mgrwt>
<rscale>  0 0.20002097E+02</rscale>
<asrwt>0</asrwt>
<pdfrwt beam="1">  1        4 0.48998401E-02 0.20002097E+02</pdfrwt>
<pdfrwt beam="2">  1       -4 0.48315053E-03 0.20002097E+02</pdfrwt>
<totfact> 0.12199914E+06</totfact>
</mgrwt>
</event>
<event>
 5    1  0.4710515E-007  0.2000329E+02  0.7818608E-02  0.1745263E+00
         -4   -1    0    0    0  501 -0.00000000000E+00  0.00000000000E+00  0.33608457703E+02  0.33638442728E+02  0.14200000000E+01 0.  1.
          4   -1    0    0  501    0  0.00000000000E+00 -0.00000000000E+00 -0.27738621143E+01  0.31162013781E+01  0.14200000000E+01 0. -1.
       1023    2    1    2    0    0  0.00000000000E+00  0.00000000000E+00  0.30834595589E+02  0.36754644106E+02  0.20003289186E+02 0.  0.
        -13    1    3    3    0    0 -0.85397475845E+01  0.52047034767E+01  0.15281092443E+02  0.18263055216E+02  0.10570000000E+00 0. -1.
         13    1    3    3    0    0  0.85397475845E+01 -0.52047034767E+01  0.15553503146E+02  0.18491588890E+02  0.10570000000E+00 0.  1.
<mgrwt>
<rscale>  0 0.20003289E+02</rscale>
<asrwt>0</asrwt>
<pdfrwt beam="2">  1        4 0.45538833E-03 0.20003289E+02</pdfrwt>
<pdfrwt beam="1">  1       -4 0.51991724E-02 0.20003289E+02</pdfrwt>
<totfact> 0.12112387E+06</totfact>
</mgrwt>
</event>
<event>
 5    1  0.4710515E-007  0.2000384E+02  0.7818608E-02  0.1745252E+00
          4   -1    0    0  501    0  0.00000000000E+00  0.00000000000E+00  0.36242954550E+02  0.36270761703E+02  0.14200000000E+01 0. -1.
         -4   -1    0    0    0  501 -0.00000000000E+00 -0.00000000000E+00 -0.25467150506E+01  0.29158459405E+01  0.14200000000E+01 0.  1.
       1023    2    1    2    0    0  0.00000000000E+00  0.00000000000E+00  0.33696239500E+02  0.39186607644E+02  0.20003841186E+02 0.  0.
        -13    1    3    3    0    0  0.73005083224E+01 -0.68355456888E+01  0.16988515833E+02  0.19714029252E+02  0.10570000000E+00 0.  1.
         13    1    3    3    0    0 -0.73005083224E+01  0.68355456888E+01  0.16707723666E+02  0.19472578392E+02  0.10570000000E+00 0. -1.
<mgrwt>
<rscale>  0 0.20003841E+02</rscale>
<asrwt>0</asrwt>
<pdfrwt beam="1">  1        4 0.56063728E-02 0.20003841E+02</pdfrwt>
<pdfrwt beam="2">  1       -4 0.42233601E-03 0.20003841E+02</pdfrwt>
<totfact> 0.11995972E+06</totfact>
</mgrwt>
</event>
<event>
 5    1  0.4710515E-007  0.2000437E+02  0.7818608E-02  0.1745241E+00
         -4   -1    0    0    0  501 -0.00000000000E+00  0.00000000000E+00  0.77558093068E+02  0.77571091267E+02  0.14200000000E+01 0.  1.
          4   -1    0    0  501    0  0.00000000000E+00 -0.00000000000E+00 -0.88195914358E+00  0.16716016065E+01  0.14200000000E+01 0. -1.
       1023    2    1    2    0    0  0.00000000000E+00  0.00000000000E+00  0.76676133925E+02  0.79242692874E+02  0.20004371029E+02 0.  0.
        -13    1    3    3    0    0 -0.25287311650E+00 -0.99983883963E+01  0.38451999792E+02  0.39731589143E+02  0.10570000000E+00 0. -1.
         13    1    3    3    0    0  0.25287311650E+00  0.99983883963E+01  0.38224134133E+02  0.39511103731E+02  0.10570000000E+00 0.  1.
<mgrwt>
<rscale>  0 0.20004371E+02</rscale>
<asrwt>0</asrwt>
<pdfrwt beam="2">  1        4 0.19742757E-03 0.20004371E+02</pdfrwt>
<pdfrwt beam="1">  1       -4 0.11993758E-01 0.20004371E+02</pdfrwt>
<totfact> 0.10431417E+06</totfact>
</mgrwt>
</event>
<event>
 5    1  0.4710515E-007  0.2000146E+02  0.7818608E-02  0.1745299E+00
          4   -1    0    0  501    0  0.00000000000E+00  0.00000000000E+00  0.21456401342E+02  0.21503338312E+02  0.14200000000E+01 0.  1.
         -4   -1    0    0    0  501 -0.00000000000E+00 -0.00000000000E+00 -0.44997777699E+01  0.47185167138E+01  0.14200000000E+01 0. -1.
       1023    2    1    2    0    0  0.00000000000E+00  0.00000000000E+00  0.16956623572E+02  0.26221855026E+02  0.20001464897E+02 0.  0.
        -13    1    3    3    0    0 -0.58340886397E+01 -0.81219539372E+01  0.85142388377E+01  0.13134160098E+02  0.10570000000E+00 0.  1.
         13    1    3    3    0    0  0.58340886397E+01  0.81219539372E+01  0.84423847346E+01  0.13087694927E+02  0.10570000000E+00 0. -1.
<mgrwt>
<rscale>  0 0.20001465E+02</rscale>
<asrwt>0</asrwt>
<pdfrwt beam="1">  1        4 0.33214214E-02 0.20001465E+02</pdfrwt>
<pdfrwt beam="2">  1       -4 0.71271011E-03 0.20001465E+02</pdfrwt>
<totfact> 0.12656088E+06</totfact>
</mgrwt>
</event>
<event>
 4    1  0.4710515E-007  0.2002485E+02  0.7818608E-02  0.1744834E+00
          4   -1    0    0  501    0  0.00000000000E+00  0.00000000000E+00  0.61861809149E+00  0.15488990745E+01  0.14200000000E+01 0. -1.
         -4   -1    0    0    0  501 -0.00000000000E+00 -0.00000000000E+00 -0.91562777053E+02  0.91573787416E+02  0.14200000000E+01 0.  1.
        -13    1    1    2    0    0 -0.93485585728E+01  0.35675532072E+01 -0.47045774747E+02  0.48098223224E+02  0.10570000000E+00 0.  1.
         13    1    1    2    0    0  0.93485585728E+01 -0.35675532072E+01 -0.43898384215E+02  0.45024463266E+02  0.10570000000E+00 0. -1.
<mgrwt>
<rscale>  0 0.20024852E+02</rscale>
<asrwt>0</asrwt>
<pdfrwt beam="1">  1        4 0.16757911E-03 0.20024852E+02</pdfrwt>
<pdfrwt beam="2">  1       -4 0.14158982E-01 0.20024852E+02</pdfrwt>
<totfact> 0.99768307E+05</totfact>
</mgrwt>
</event>
<event>
 5    1  0.4710515E-007  0.2000142E+02  0.7818608E-02  0.1745300E+00
         -4   -1    0    0    0  501 -0.00000000000E+00  0.00000000000E+00  0.38883310198E+02  0.38909230421E+02  0.14200000000E+01 0.  1.
          4   -1    0    0  501    0  0.00000000000E+00 -0.00000000000E+00 -0.23472692897E+01  0.27433689359E+01  0.14200000000E+01 0. -1.
       1023    2    1    2    0    0  0.00000000000E+00  0.00000000000E+00  0.36536040908E+02  0.41652599357E+02  0.20001418648E+02 0.  0.
        -13    1    3    3    0    0 -0.79022926590E+01 -0.61283159647E+01  0.18315902262E+02  0.20868299739E+02  0.10570000000E+00 0.  1.
         13    1    3    3    0    0  0.79022926590E+01  0.61283159647E+01  0.18220138646E+02  0.20784299618E+02  0.10570000000E+00 0. -1.
<mgrwt>
<rscale>  0 0.20001419E+02</rscale>
<asrwt>0</asrwt>
<pdfrwt beam="2">  1        4 0.39358145E-03 0.20001419E+02</pdfrwt>
<pdfrwt beam="1">  1       -4 0.60145103E-02 0.20001419E+02</pdfrwt>
<totfact> 0.11884672E+06</totfact>
</mgrwt>
</event>
<event>
 5    1  0.4710515E-007  0.2000151E+02  0.7818608E-02  0.1745298E+00
          4   -1    0    0  501    0  0.00000000000E+00  0.00000000000E+00  0.58546139957E+02  0.58563358031E+02  0.14200000000E+01 0.  1.
         -4   -1    0    0    0  501 -0.00000000000E+00 -0.00000000000E+00 -0.13926563124E+01  0.19889423331E+01  0.14200000000E+01 0. -1.
       1023    2    1    2    0    0  0.00000000000E+00  0.00000000000E+00  0.57153483645E+02  0.60552300364E+02  0.20001509610E+02 0.  0.
        -13    1    3    3    0    0 -0.17901852812E-01 -0.10000155951E+02  0.28643389962E+02  0.30339057344E+02  0.10570000000E+00 0.  1.
         13    1    3    3    0    0  0.17901852812E-01  0.10000155951E+02  0.28510093683E+02  0.30213243020E+02  0.10570000000E+00 0. -1.
<mgrwt>
<rscale>  0 0.20001510E+02</rscale>
<asrwt>0</asrwt>
<pdfrwt beam="1">  1        4 0.90542913E-02 0.20001510E+02</pdfrwt>
<pdfrwt beam="2">  1       -4 0.26144743E-03 0.20001510E+02</pdfrwt>
<totfact> 0.11096016E+06</totfact>
</mgrwt>
</event>
<event>
 4    1  0.4710515E-007  0.2050584E+02  0.7818608E-02  0.1735452E+00
         -4   -1    0    0    0  501 -0.00000000000E+00  0.00000000000E+00  0.60084691855E+01  0.61739859048E+01  0.14200000000E+01 0. -1.
          4   -1    0    0  501    0  0.00000000000E+00 -0.00000000000E+00 -0.17062577922E+02  0.17121564337E+02  0.14200000000E+01 0.  1.
        -13    1    1    2    0    0 -0.54414016107E+01 -0.86668397966E+01 -0.62348743485E+01  0.11983646948E+02  0.10570000000E+00 0.  1.
         13    1    1    2    0    0  0.54414016107E+01  0.86668397966E+01 -0.48192343884E+01  0.11311903294E+02  0.10570000000E+00 0. -1.
<mgrwt>
<rscale>  0 0.20505837E+02</rscale>
<asrwt>0</asrwt>
<pdfrwt beam="2">  1        4 0.26422814E-02 0.20505837E+02</pdfrwt>
<pdfrwt beam="1">  1       -4 0.94164935E-03 0.20505837E+02</pdfrwt>
<totfact> 0.12181491E+06</totfact>
</mgrwt>
</event>
<event>
 4    1  0.4710515E-007  0.2002319E+02  0.7818608E-02  0.1744867E+00
         -4   -1    0    0    0  501 -0.00000000000E+00  0.00000000000E+00  0.71169265505E+02  0.71183430323E+02  0.14200000000E+01 0. -1.
          4   -1    0    0  501    0  0.00000000000E+00 -0.00000000000E+00 -0.10324046052E+01  0.17556364284E+01  0.14200000000E+01 0.  1.
        -13    1    1    2    0    0 -0.99557998824E+01 -0.10501493045E+01  0.35107164482E+02  0.36506779306E+02  0.10570000000E+00 0. -1.
         13    1    1    2    0    0  0.99557998824E+01  0.10501493045E+01  0.35029696418E+02  0.36432287445E+02  0.10570000000E+00 0.  1.
<mgrwt>
<rscale>  0 0.20023192E+02</rscale>
<asrwt>0</asrwt>
<pdfrwt beam="2">  1        4 0.21555421E-03 0.20023192E+02</pdfrwt>
<pdfrwt beam="1">  1       -4 0.11005845E-01 0.20023192E+02</pdfrwt>
<totfact> 0.10623526E+06</totfact>
</mgrwt>
</event>
<event>
 5    1  0.4710515E-007  0.2000324E+02  0.7818608E-02  0.1745264E+00
         -4   -1    0    0    0  501 -0.00000000000E+00  0.00000000000E+00  0.86392277208E+02  0.86403946445E+02  0.14200000000E+01 0.  1.
          4   -1    0    0  501    0  0.00000000000E+00 -0.00000000000E+00 -0.70627285101E+00  0.15859449360E+01  0.14200000000E+01 0. -1.
       1023    2    1    2    0    0  0.00000000000E+00  0.00000000000E+00  0.85686004357E+02  0.87989891381E+02  0.20003240800E+02 0.  0.
        -13    1    3    3    0    0  0.67253732305E+01 -0.74009247746E+01  0.43414937264E+02  0.44551905489E+02  0.10570000000E+00 0. -1.
         13    1    3    3    0    0 -0.67253732305E+01  0.74009247746E+01  0.42271067094E+02  0.43437985892E+02  0.10570000000E+00 0.  1.
<mgrwt>
<rscale>  0 0.20003241E+02</rscale>
<asrwt>0</asrwt>
<pdfrwt beam="2">  1        4 0.17722194E-03 0.20003241E+02</pdfrwt>
<pdfrwt beam="1">  1       -4 0.13359695E-01 0.20003241E+02</pdfrwt>
<totfact> 0.10154072E+06</totfact>
</mgrwt>
</event>
<event>
 5    1  0.4710515E-007  0.2000519E+02  0.7818608E-02  0.1745225E+00
          4   -1    0    0  501    0  0.00000000000E+00  0.00000000000E+00  0.42940331716E+02  0.42963804393E+02  0.14200000000E+01 0. -1.
         -4   -1    0    0    0  501 -0.00000000000E+00 -0.00000000000E+00 -0.20872342976E+01  0.25244696498E+01  0.14200000000E+01 0.  1.
       1023    2    1    2    0    0  0.00000000000E+00  0.00000000000E+00  0.40853097418E+02  0.45488274042E+02  0.20005186994E+02 0.  0.
        -13    1    3    3    0    0 -0.87485154897E+01  0.48455753776E+01  0.20070057168E+02  0.22423971353E+02  0.10570000000E+00 0. -1.
         13    1    3    3    0    0  0.87485154897E+01 -0.48455753776E+01  0.20783040251E+02  0.23064302690E+02  0.10570000000E+00 0.  1.
<mgrwt>
<rscale>  0 0.20005187E+02</rscale>
<asrwt>0</asrwt>
<pdfrwt beam="1">  1        4 0.66416434E-02 0.20005187E+02</pdfrwt>
<pdfrwt beam="2">  1       -4 0.35655208E-03 0.20005187E+02</pdfrwt>
<totfact> 0.11708135E+06</totfact>
</mgrwt>
</event>
<event>
 5    1  0.4710515E-007  0.2000193E+02  0.7818608E-02  0.1745290E+00
          4   -1    0    0  501    0  0.00000000000E+00  0.00000000000E+00  0.32149695026E+01  0.35146022396E+01  0.14200000000E+01 0. -1.
         -4   -1    0    0    0  501 -0.00000000000E+00 -0.00000000000E+00 -0.29407794441E+02  0.29442057909E+02  0.14200000000E+01 0.  1.
       1023    2    1    2    0    0  0.00000000000E+00  0.00000000000E+00 -0.26192824939E+02  0.32956660148E+02  0.20001934153E+02 0.  0.
        -13    1    3    3    0    0  0.99998746894E+01 -0.10226519996E+00 -0.13120740161E+02  0.16497664890E+02  0.10570000000E+00 0. -1.
         13    1    3    3    0    0 -0.99998746894E+01  0.10226519996E+00 -0.13072084778E+02  0.16458995258E+02  0.10570000000E+00 0.  1.
<mgrwt>
<rscale>  0 0.20001934E+02</rscale>
<asrwt>0</asrwt>
<pdfrwt beam="1">  1        4 0.52029504E-03 0.20001934E+02</pdfrwt>
<pdfrwt beam="2">  1       -4 0.45499602E-02 0.20001934E+02</pdfrwt>
<totfact> 0.12301474E+06</totfact>
</mgrwt>
</event>
<event>
 5    1  0.4710515E-007  0.2000669E+02  0.7818608E-02  0.1745195E+00
          4   -1    0    0  501    0  0.00000000000E+00  0.00000000000E+00  0.43132785217E+02  0.43156153218E+02  0.14200000000E+01 0.  1.
         -4   -1    0    0    0  501 -0.00000000000E+00 -0.00000000000E+00 -0.20763535935E+01  0.25154809173E+01  0.14200000000E+01 0. -1.
       1023    2    1    2    0    0  0.00000000000E+00  0.00000000000E+00  0.41056431624E+02  0.45671634136E+02  0.20006688555E+02 0.  0.
        -13    1    3    3    0    0 -0.28892006768E+01  0.95740496093E+01  0.21016855032E+02  0.23275078398E+02  0.10570000000E+00 0.  1.
         13    1    3    3    0    0  0.28892006768E+01 -0.95740496093E+01  0.20039576591E+02  0.22396555738E+02  0.10570000000E+00 0. -1.
<mgrwt>
<rscale>  0 0.20006689E+02</rscale>
<asrwt>0</asrwt>
<pdfrwt beam="1">  1        4 0.66713892E-02 0.20006689E+02</pdfrwt>
<pdfrwt beam="2">  1       -4 0.35501560E-03 0.20006689E+02</pdfrwt>
<totfact> 0.11698306E+06</totfact>
</mgrwt>
</event>
<event>
 5    1  0.4710515E-007  0.2000793E+02  0.7818608E-02  0.1745170E+00
          4   -1    0    0  501    0  0.00000000000E+00  0.00000000000E+00  0.69541311065E+01  0.70976291426E+01  0.14200000000E+01 0. -1.
         -4   -1    0    0    0  501 -0.00000000000E+00 -0.00000000000E+00 -0.14064772157E+02  0.14136273053E+02  0.14200000000E+01 0.  1.
       1023    2    1    2    0    0  0.00000000000E+00  0.00000000000E+00 -0.71106410500E+01  0.21233902195E+02  0.20007933084E+02 0.  0.
        -13    1    3    3    0    0  0.99691528435E+01  0.81041340741E+00 -0.33796619379E+01  0.10558127941E+02  0.10570000000E+00 0.  1.
         13    1    3    3    0    0 -0.99691528435E+01 -0.81041340741E+00 -0.37309791121E+01  0.10675774254E+02  0.10570000000E+00 0. -1.
<mgrwt>
<rscale>  0 0.20007933E+02</rscale>
<asrwt>0</asrwt>
<pdfrwt beam="1">  1        4 0.10864047E-02 0.20007933E+02</pdfrwt>
<pdfrwt beam="2">  1       -4 0.21803495E-02 0.20007933E+02</pdfrwt>
<totfact> 0.12930506E+06</totfact>
</mgrwt>
</event>
<event>
 5    1  0.4710515E-007  0.2000285E+02  0.7818608E-02  0.1745271E+00
         -4   -1    0    0    0  501 -0.00000000000E+00  0.00000000000E+00  0.70392571999E+01  0.71810543742E+01  0.14200000000E+01 0.  1.
          4   -1    0    0  501    0  0.00000000000E+00 -0.00000000000E+00 -0.13890045113E+02  0.13962440805E+02  0.14200000000E+01 0. -1.
       1023    2    1    2    0    0  0.00000000000E+00  0.00000000000E+00 -0.68507879129E+01  0.21143495179E+02  0.20002852131E+02 0.  0.
        -13    1    3    3    0    0 -0.75199453170E+01 -0.65929477835E+01 -0.34555294450E+01  0.10581511909E+02  0.10570000000E+00 0.  1.
         13    1    3    3    0    0  0.75199453170E+01  0.65929477835E+01 -0.33952584679E+01  0.10561983270E+02  0.10570000000E+00 0. -1.
<mgrwt>
<rscale>  0 0.20002852E+02</rscale>
<asrwt>0</asrwt>
<pdfrwt beam="2">  1        4 0.21534064E-02 0.20002852E+02</pdfrwt>
<pdfrwt beam="1">  1       -4 0.10994390E-02 0.20002852E+02</pdfrwt>
<totfact> 0.12942525E+06</totfact>
</mgrwt>
</event>
<event>
 4    1  0.5546500E-007  0.2059945E+02  0.7818608E-02  0.1733663E+00
          4   -1    0    0  501    0  0.00000000000E+00  0.00000000000E+00  0.32043062615E+01  0.35048507269E+01  0.14200000000E+01 0.  1.
         -4   -1    0    0    0  501 -0.00000000000E+00 -0.00000000000E+00 -0.31306382953E+02  0.31338570701E+02  0.14200000000E+01 0. -1.
        -13    1    1    2    0    0  0.99631622202E+01  0.17484801076E+01 -0.17327160459E+02  0.20063983806E+02  0.10570000000E+00 0. -1.
         13    1    1    2    0    0 -0.99631622202E+01 -0.17484801076E+01 -0.10774916232E+02  0.14779437622E+02  0.10570000000E+00 0.  1.
<mgrwt>
<rscale>  0 0.20599449E+02</rscale>
<asrwt>0</asrwt>
<pdfrwt beam="1">  1        4 0.51856500E-03 0.20599449E+02</pdfrwt>
<pdfrwt beam="2">  1       -4 0.48419612E-02 0.20599449E+02</pdfrwt>
<totfact> 0.11495052E+06</totfact>
</mgrwt>
</event>
<event>
 5    1  0.4820727E-007  0.2000391E+02  0.7818608E-02  0.1745250E+00
          4   -1    0    0  501    0  0.00000000000E+00  0.00000000000E+00  0.11006169735E+02  0.11097394840E+02  0.14200000000E+01 0.  1.
         -4   -1    0    0    0  501 -0.00000000000E+00 -0.00000000000E+00 -0.89041383252E+01  0.90166556613E+01  0.14200000000E+01 0. -1.
       1023    2    1    2    0    0  0.00000000000E+00  0.00000000000E+00  0.21020314094E+01  0.20114050501E+02  0.20003911905E+02 0.  0.
        -13    1    3    3    0    0 -0.97325886279E+01  0.23015146000E+01  0.11392458056E+01  0.10066245792E+02  0.10570000000E+00 0.  1.
         13    1    3    3    0    0  0.97325886279E+01 -0.23015146000E+01  0.96278560381E+00  0.10047804709E+02  0.10570000000E+00 0. -1.
<mgrwt>
<rscale>  0 0.20003912E+02</rscale>
<asrwt>0</asrwt>
<pdfrwt beam="1">  1        4 0.17089294E-02 0.20003912E+02</pdfrwt>
<pdfrwt beam="2">  1       -4 0.13855399E-02 0.20003912E+02</pdfrwt>
<totfact> 0.13002086E+06</totfact>
</mgrwt>
</event>
<event>
 5    1  0.4710515E-007  0.2000565E+02  0.7818608E-02  0.1745216E+00
          4   -1    0    0  501    0  0.00000000000E+00  0.00000000000E+00  0.35142083767E+02  0.35170761316E+02  0.14200000000E+01 0.  1.
         -4   -1    0    0    0  501 -0.00000000000E+00 -0.00000000000E+00 -0.26383559817E+01  0.29962179971E+01  0.14200000000E+01 0. -1.
       1023    2    1    2    0    0  0.00000000000E+00  0.00000000000E+00  0.32503727786E+02  0.38166979313E+02  0.20005648949E+02 0.  0.
        -13    1    3    3    0    0 -0.41804814258E+00  0.99912714394E+01  0.16656822185E+02  0.19428359864E+02  0.10570000000E+00 0.  1.
         13    1    3    3    0    0  0.41804814258E+00 -0.99912714394E+01  0.15846905601E+02  0.18738619448E+02  0.10570000000E+00 0. -1.
<mgrwt>
<rscale>  0 0.20005649E+02</rscale>
<asrwt>0</asrwt>
<pdfrwt beam="1">  1        4 0.54362085E-02 0.20005649E+02</pdfrwt>
<pdfrwt beam="2">  1       -4 0.43563471E-03 0.20005649E+02</pdfrwt>
<totfact> 0.12041906E+06</totfact>
</mgrwt>
</event>
<event>
 5    1  0.4710515E-007  0.2000359E+02  0.7818608E-02  0.1745257E+00
         -4   -1    0    0    0  501 -0.00000000000E+00  0.00000000000E+00  0.66196997388E+02  0.66212225935E+02  0.14200000000E+01 0. -1.
          4   -1    0    0  501    0  0.00000000000E+00 -0.00000000000E+00 -0.11587202071E+01  0.18327663567E+01  0.14200000000E+01 0.  1.
       1023    2    1    2    0    0  0.00000000000E+00  0.00000000000E+00  0.65038277181E+02  0.68044992291E+02  0.20003586609E+02 0.  0.
        -13    1    3    3    0    0  0.57688800204E+01  0.81693488675E+01  0.32245751517E+02  0.33761189271E+02  0.10570000000E+00 0. -1.
         13    1    3    3    0    0 -0.57688800204E+01 -0.81693488675E+01  0.32792525664E+02  0.34283803020E+02  0.10570000000E+00 0.  1.
<mgrwt>
<rscale>  0 0.20003587E+02</rscale>
<asrwt>0</asrwt>
<pdfrwt beam="2">  1        4 0.23128580E-03 0.20003587E+02</pdfrwt>
<pdfrwt beam="1">  1       -4 0.10237173E-01 0.20003587E+02</pdfrwt>
<totfact> 0.10816472E+06</totfact>
</mgrwt>
</event>
<event>
 4    1  0.4710515E-007  0.2005144E+02  0.7818608E-02  0.1744307E+00
         -4   -1    0    0    0  501 -0.00000000000E+00  0.00000000000E+00  0.59459226379E+02  0.59476180119E+02  0.14200000000E+01 0.  1.
          4   -1    0    0  501    0  0.00000000000E+00 -0.00000000000E+00 -0.13719794934E+01  0.19745196202E+01  0.14200000000E+01 0. -1.
        -13    1    1    2    0    0 -0.75213360815E+01  0.65912540998E+01  0.26901077457E+02  0.28700074353E+02  0.10570000000E+00 0.  1.
         13    1    1    2    0    0  0.75213360815E+01 -0.65912540998E+01  0.31186169429E+02  0.32750625386E+02  0.10570000000E+00 0. -1.
<mgrwt>
<rscale>  0 0.20051440E+02</rscale>
<asrwt>0</asrwt>
<pdfrwt beam="2">  1        4 0.25872713E-03 0.20051440E+02</pdfrwt>
<pdfrwt beam="1">  1       -4 0.91952271E-02 0.20051440E+02</pdfrwt>
<totfact> 0.11006483E+06</totfact>
</mgrwt>
</event>
<event>
 4    1  0.4710515E-007  0.2007609E+02  0.7818608E-02  0.1743819E+00
         -4   -1    0    0    0  501 -0.00000000000E+00  0.00000000000E+00  0.46030719057E+02  0.46052616613E+02  0.14200000000E+01 0. -1.
          4   -1    0    0  501    0  0.00000000000E+00 -0.00000000000E+00 -0.19338768889E+01  0.23992248376E+01  0.14200000000E+01 0.  1.
        -13    1    1    2    0    0  0.96058760606E+01  0.27886272323E+01  0.20026488271E+02  0.22385725400E+02  0.10570000000E+00 0.  1.
         13    1    1    2    0    0 -0.96058760606E+01 -0.27886272323E+01  0.24070353898E+02  0.26066116051E+02  0.10570000000E+00 0. -1.
<mgrwt>
<rscale>  0 0.20076092E+02</rscale>
<asrwt>0</asrwt>
<pdfrwt beam="2">  1        4 0.33499996E-03 0.20076092E+02</pdfrwt>
<pdfrwt beam="1">  1       -4 0.71191293E-02 0.20076092E+02</pdfrwt>
<totfact> 0.11497314E+06</totfact>
</mgrwt>
</event>
<event>
 5    1  0.4710515E-007  0.2000854E+02  0.7818608E-02  0.1745158E+00
         -4   -1    0    0    0  501 -0.00000000000E+00  0.00000000000E+00  0.88808554729E+02  0.88819906514E+02  0.14200000000E+01 0. -1.
          4   -1    0    0  501    0  0.00000000000E+00 -0.00000000000E+00 -0.66363337841E+00  0.15674212136E+01  0.14200000000E+01 0.  1.
       1023    2    1    2    0    0  0.00000000000E+00  0.00000000000E+00  0.88144921351E+02  0.90387327727E+02  0.20008544518E+02 0.  0.
        -13    1    3    3    0    0  0.48425615627E+01 -0.87528887061E+01  0.44542529296E+02  0.45652070618E+02  0.10570000000E+00 0. -1.
         13    1    3    3    0    0 -0.48425615627E+01  0.87528887061E+01  0.43602392055E+02  0.44735257109E+02  0.10570000000E+00 0.  1.
<mgrwt>
<rscale>  0 0.20008545E+02</rscale>
<asrwt>0</asrwt>
<pdfrwt beam="2">  1        4 0.17249275E-03 0.20008545E+02</pdfrwt>
<pdfrwt beam="1">  1       -4 0.13733253E-01 0.20008545E+02</pdfrwt>
<totfact> 0.10075320E+06</totfact>
</mgrwt>
</event>
<event>
 4    1  0.4710515E-007  0.2001598E+02  0.7818608E-02  0.1745011E+00
         -4   -1    0    0    0  501 -0.00000000000E+00  0.00000000000E+00  0.22247473603E+02  0.22292745047E+02  0.14200000000E+01 0.  1.
          4   -1    0    0  501    0  0.00000000000E+00 -0.00000000000E+00 -0.43388865601E+01  0.45653407957E+01  0.14200000000E+01 0. -1.
        -13    1    1    2    0    0  0.59094369914E+01 -0.80720620246E+01  0.93068098852E+01  0.13664095785E+02  0.10570000000E+00 0.  1.
         13    1    1    2    0    0 -0.59094369914E+01  0.80720620246E+01  0.86017771581E+01  0.13193990058E+02  0.10570000000E+00 0. -1.
<mgrwt>
<rscale>  0 0.20015976E+02</rscale>
<asrwt>0</asrwt>
<pdfrwt beam="2">  1        4 0.68842299E-03 0.20015976E+02</pdfrwt>
<pdfrwt beam="1">  1       -4 0.34435902E-02 0.20015976E+02</pdfrwt>
<totfact> 0.12602716E+06</totfact>
</mgrwt>
</event>
<event>
 5    1  0.4710515E-007  0.2000391E+02  0.7818608E-02  0.1745250E+00
          4   -1    0    0  501    0  0.00000000000E+00  0.00000000000E+00  0.10720901259E+01  0.17792631166E+01  0.14200000000E+01 0. -1.
         -4   -1    0    0    0  501 -0.00000000000E+00 -0.00000000000E+00 -0.69453336953E+02  0.69467851657E+02  0.14200000000E+01 0.  1.
       1023    2    1    2    0    0  0.00000000000E+00  0.00000000000E+00 -0.68381246827E+02  0.71247114774E+02  0.20003910767E+02 0.  0.
        -13    1    3    3    0    0 -0.97704405501E+01  0.21369053295E+01 -0.34219575297E+02  0.35651344700E+02  0.10570000000E+00 0.  1.
         13    1    3    3    0    0  0.97704405501E+01 -0.21369053295E+01 -0.34161671530E+02  0.35595770074E+02  0.10570000000E+00 0. -1.
<mgrwt>
<rscale>  0 0.20003911E+02</rscale>
<asrwt>0</asrwt>
<pdfrwt beam="1">  1        4 0.22045143E-03 0.20003911E+02</pdfrwt>
<pdfrwt beam="2">  1       -4 0.10740641E-01 0.20003911E+02</pdfrwt>
<totfact> 0.10702794E+06</totfact>
</mgrwt>
</event>
<event>
 5    1  0.4710515E-007  0.2000289E+02  0.7818608E-02  0.1745271E+00
          4   -1    0    0  501    0  0.00000000000E+00  0.00000000000E+00  0.16272171174E+01  0.21596841313E+01  0.14200000000E+01 0.  1.
         -4   -1    0    0    0  501 -0.00000000000E+00 -0.00000000000E+00 -0.52285420895E+02  0.52304699962E+02  0.14200000000E+01 0. -1.
       1023    2    1    2    0    0  0.00000000000E+00  0.00000000000E+00 -0.50658203778E+02  0.54464384094E+02  0.20002887910E+02 0.  0.
        -13    1    3    3    0    0  0.55145931531E+01  0.83423563374E+01 -0.25628139503E+02  0.27510331764E+02  0.10570000000E+00 0. -1.
         13    1    3    3    0    0 -0.55145931531E+01 -0.83423563374E+01 -0.25030064275E+02  0.26954052330E+02  0.10570000000E+00 0.  1.
<mgrwt>
<rscale>  0 0.20002888E+02</rscale>
<asrwt>0</asrwt>
<pdfrwt beam="1">  1        4 0.29278314E-03 0.20002888E+02</pdfrwt>
<pdfrwt beam="2">  1       -4 0.80863518E-02 0.20002888E+02</pdfrwt>
<totfact> 0.11333145E+06</totfact>
</mgrwt>
</event>
<event>
 5    1  0.4710515E-007  0.2000677E+02  0.7818608E-02  0.1745194E+00
          4   -1    0    0  501    0  0.00000000000E+00  0.00000000000E+00  0.24602962169E+02  0.24643906904E+02  0.14200000000E+01 0. -1.
         -4   -1    0    0    0  501 -0.00000000000E+00 -0.00000000000E+00 -0.38975640405E+01  0.41481809809E+01  0.14200000000E+01 0.  1.
       1023    2    1    2    0    0  0.00000000000E+00  0.00000000000E+00  0.20705398128E+02  0.28792087884E+02  0.20006769182E+02 0.  0.
        -13    1    3    3    0    0  0.41378218494E+00 -0.99936480516E+01  0.10512393820E+02  0.14510886031E+02  0.10570000000E+00 0. -1.
         13    1    3    3    0    0 -0.41378218494E+00  0.99936480516E+01  0.10193004308E+02  0.14281201854E+02  0.10570000000E+00 0.  1.
<mgrwt>
<rscale>  0 0.20006769E+02</rscale>
<asrwt>0</asrwt>
<pdfrwt beam="1">  1        4 0.38074989E-02 0.20006769E+02</pdfrwt>
<pdfrwt beam="2">  1       -4 0.62205307E-03 0.20006769E+02</pdfrwt>
<totfact> 0.12510707E+06</totfact>
</mgrwt>
</event>
<event>
 5    1  0.4710515E-007  0.2000155E+02  0.7818608E-02  0.1745297E+00
         -4   -1    0    0    0  501 -0.00000000000E+00  0.00000000000E+00  0.47805872701E+00  0.14983124329E+01  0.14200000000E+01 0.  1.
          4   -1    0    0  501    0  0.00000000000E+00 -0.00000000000E+00 -0.10018334894E+03  0.10019341198E+03  0.14200000000E+01 0. -1.
       1023    2    1    2    0    0  0.00000000000E+00  0.00000000000E+00 -0.99705290209E+02  0.10169172441E+03  0.20001547896E+02 0.  0.
        -13    1    3    3    0    0  0.97451188060E+01  0.22443139538E+01 -0.49876166444E+02  0.50868924083E+02  0.10570000000E+00 0.  1.
         13    1    3    3    0    0 -0.97451188060E+01 -0.22443139538E+01 -0.49829123765E+02  0.50822800330E+02  0.10570000000E+00 0. -1.
<mgrwt>
<rscale>  0 0.20001548E+02</rscale>
<asrwt>0</asrwt>
<pdfrwt beam="2">  1        4 0.15492070E-01 0.20001548E+02</pdfrwt>
<pdfrwt beam="1">  1       -4 0.15280271E-03 0.20001548E+02</pdfrwt>
<totfact> 0.97518370E+05</totfact>
</mgrwt>
</event>
<event>
 4    1  0.4710515E-007  0.2001839E+02  0.7818608E-02  0.1744963E+00
         -4   -1    0    0    0  501 -0.00000000000E+00  0.00000000000E+00  0.30933393901E+02  0.30965969357E+02  0.14200000000E+01 0. -1.
          4   -1    0    0  501    0  0.00000000000E+00 -0.00000000000E+00 -0.30470180846E+01  0.33616542368E+01  0.14200000000E+01 0.  1.
        -13    1    1    2    0    0  0.79006122803E+01 -0.61427213068E+01  0.14186148648E+02  0.17361183295E+02  0.10570000000E+00 0.  1.
         13    1    1    2    0    0 -0.79006122803E+01  0.61427213068E+01  0.13700227168E+02  0.16966440298E+02  0.10570000000E+00 0. -1.
<mgrwt>
<rscale>  0 0.20018386E+02</rscale>
<asrwt>0</asrwt>
<pdfrwt beam="2">  1        4 0.49548059E-03 0.20018386E+02</pdfrwt>
<pdfrwt beam="1">  1       -4 0.47856923E-02 0.20018386E+02</pdfrwt>
<totfact> 0.12212460E+06</totfact>
</mgrwt>
</event>
<event>
 4    1  0.4710515E-007  0.2002950E+02  0.7818608E-02  0.1744742E+00
          4   -1    0    0  501    0  0.00000000000E+00  0.00000000000E+00  0.13090285121E+02  0.13167078816E+02  0.14200000000E+01 0. -1.
         -4   -1    0    0    0  501 -0.00000000000E+00 -0.00000000000E+00 -0.74957528516E+01  0.76290701145E+01  0.14200000000E+01 0.  1.
        -13    1    1    2    0    0  0.79668424312E+01  0.60673776120E+01  0.27756646783E+01  0.10392263291E+02  0.10570000000E+00 0.  1.
         13    1    1    2    0    0 -0.79668424312E+01 -0.60673776120E+01  0.28188675908E+01  0.10403885639E+02  0.10570000000E+00 0. -1.
<mgrwt>
<rscale>  0 0.20029504E+02</rscale>
<asrwt>0</asrwt>
<pdfrwt beam="1">  1        4 0.20300524E-02 0.20029504E+02</pdfrwt>
<pdfrwt beam="2">  1       -4 0.11693551E-02 0.20029504E+02</pdfrwt>
<totfact> 0.12927856E+06</totfact>
</mgrwt>
</event>
<event>
 5    1  0.4710515E-007  0.2001204E+02  0.7818608E-02  0.1745089E+00
          4   -1    0    0  501    0  0.00000000000E+00  0.00000000000E+00  0.10835315307E+02  0.10927966774E+02  0.14200000000E+01 0.  1.
         -4   -1    0    0    0  501 -0.00000000000E+00 -0.00000000000E+00 -0.90526213768E+01  0.91633156549E+01  0.14200000000E+01 0. -1.
       1023    2    1    2    0    0  0.00000000000E+00  0.00000000000E+00  0.17826939306E+01  0.20091282429E+02  0.20012037177E+02 0.  0.
        -13    1    3    3    0    0 -0.93979225675E+00  0.99591035296E+01  0.68490462444E+00  0.10027323643E+02  0.10570000000E+00 0.  1.
         13    1    3    3    0    0  0.93979225675E+00 -0.99591035296E+01  0.10977893061E+01  0.10063958786E+02  0.10570000000E+00 0. -1.
<mgrwt>
<rscale>  0 0.20012037E+02</rscale>
<asrwt>0</asrwt>
<pdfrwt beam="1">  1        4 0.16826136E-02 0.20012037E+02</pdfrwt>
<pdfrwt beam="2">  1       -4 0.14083530E-02 0.20012037E+02</pdfrwt>
<totfact> 0.12992655E+06</totfact>
</mgrwt>
</event>
<event>
 4    1  0.4710515E-007  0.2001767E+02  0.7818608E-02  0.1744977E+00
          4   -1    0    0  501    0  0.00000000000E+00  0.00000000000E+00  0.57596753228E+02  0.57614255028E+02  0.14200000000E+01 0.  1.
         -4   -1    0    0    0  501 -0.00000000000E+00 -0.00000000000E+00 -0.14286357667E+01  0.20142989237E+01  0.14200000000E+01 0. -1.
        -13    1    1    2    0    0  0.96732574600E+01  0.25677984350E+01  0.28111621626E+02  0.29840240308E+02  0.10570000000E+00 0.  1.
         13    1    1    2    0    0 -0.96732574600E+01 -0.25677984350E+01  0.28056495836E+02  0.29788313644E+02  0.10570000000E+00 0. -1.
<mgrwt>
<rscale>  0 0.20017668E+02</rscale>
<asrwt>0</asrwt>
<pdfrwt beam="1">  1        4 0.89074343E-02 0.20017668E+02</pdfrwt>
<pdfrwt beam="2">  1       -4 0.26618748E-03 0.20017668E+02</pdfrwt>
<totfact> 0.11113376E+06</totfact>
</mgrwt>
</event>
<event>
 5    1  0.4710515E-007  0.2000236E+02  0.7818608E-02  0.1745281E+00
          4   -1    0    0  501    0  0.00000000000E+00  0.00000000000E+00  0.36639882048E+01  0.39295304510E+01  0.14200000000E+01 0. -1.
         -4   -1    0    0    0  501 -0.00000000000E+00 -0.00000000000E+00 -0.26058919668E+02  0.26097580238E+02  0.14200000000E+01 0.  1.
       1023    2    1    2    0    0  0.00000000000E+00  0.00000000000E+00 -0.22394931464E+02  0.30027110689E+02  0.20002360388E+02 0.  0.
        -13    1    3    3    0    0  0.65435253665E+01 -0.75624837822E+01 -0.11108052951E+02  0.14946869171E+02  0.10570000000E+00 0. -1.
         13    1    3    3    0    0 -0.65435253665E+01  0.75624837822E+01 -0.11286878513E+02  0.15080241518E+02  0.10570000000E+00 0.  1.
<mgrwt>
<rscale>  0 0.20002360E+02</rscale>
<asrwt>0</asrwt>
<pdfrwt beam="1">  1        4 0.58709073E-03 0.20002360E+02</pdfrwt>
<pdfrwt beam="2">  1       -4 0.40324647E-02 0.20002360E+02</pdfrwt>
<totfact> 0.12451338E+06</totfact>
</mgrwt>
</event>
<event>
 5    1  0.4710515E-007  0.2000902E+02  0.7818608E-02  0.1745149E+00
          4   -1    0    0  501    0  0.00000000000E+00  0.00000000000E+00  0.52926802541E+02  0.52945848064E+02  0.14200000000E+01 0. -1.
         -4   -1    0    0    0  501 -0.00000000000E+00 -0.00000000000E+00 -0.16023400890E+01  0.21410029801E+01  0.14200000000E+01 0.  1.
       1023    2    1    2    0    0  0.00000000000E+00  0.00000000000E+00  0.51324462452E+02  0.55086851044E+02  0.20009015767E+02 0.  0.
        -13    1    3    3    0    0  0.99999792798E+01  0.12363964586E+00  0.26359441028E+02  0.28193016443E+02  0.10570000000E+00 0. -1.
         13    1    3    3    0    0 -0.99999792798E+01 -0.12363964586E+00  0.24965021424E+02  0.26893834601E+02  0.10570000000E+00 0.  1.
<mgrwt>
<rscale>  0 0.20009016E+02</rscale>
<asrwt>0</asrwt>
<pdfrwt beam="1">  1        4 0.81854862E-02 0.20009016E+02</pdfrwt>
<pdfrwt beam="2">  1       -4 0.28941449E-03 0.20009016E+02</pdfrwt>
<totfact> 0.11301162E+06</totfact>
</mgrwt>
</event>
<event>
 5    1  0.4734321E-007  0.2000217E+02  0.7818608E-02  0.1745285E+00
          4   -1    0    0  501    0  0.00000000000E+00  0.00000000000E+00  0.20103519322E+02  0.20153607348E+02  0.14200000000E+01 0.  1.
         -4   -1    0    0    0  501 -0.00000000000E+00 -0.00000000000E+00 -0.48164434933E+01  0.50214069666E+01  0.14200000000E+01 0. -1.
       1023    2    1    2    0    0  0.00000000000E+00  0.00000000000E+00  0.15287075829E+02  0.25175014315E+02  0.20002166341E+02 0.  0.
        -13    1    3    3    0    0 -0.63315696108E+01  0.77406249031E+01  0.75596300613E+01  0.12536555619E+02  0.10570000000E+00 0. -1.
         13    1    3    3    0    0  0.63315696108E+01 -0.77406249031E+01  0.77274457676E+01  0.12638458696E+02  0.10570000000E+00 0.  1.
<mgrwt>
<rscale>  0 0.20002166E+02</rscale>
<asrwt>0</asrwt>
<pdfrwt beam="1">  1        4 0.31124684E-02 0.20002166E+02</pdfrwt>
<pdfrwt beam="2">  1       -4 0.76061067E-03 0.20002166E+02</pdfrwt>
<totfact> 0.12713036E+06</totfact>
</mgrwt>
</event>
<event>
 5    1  0.4710515E-007  0.2000383E+02  0.7818608E-02  0.1745252E+00
         -4   -1    0    0    0  501 -0.00000000000E+00  0.00000000000E+00  0.70604253679E+01  0.72018057719E+01  0.14200000000E+01 0.  1.
          4   -1    0    0  501    0  0.00000000000E+00 -0.00000000000E+00 -0.13850380042E+02  0.13922981983E+02  0.14200000000E+01 0. -1.
       1023    2    1    2    0    0  0.00000000000E+00  0.00000000000E+00 -0.67899546739E+01  0.21124787755E+02  0.20003828964E+02 0.  0.
        -13    1    3    3    0    0  0.59662259628E+01 -0.80267115084E+01 -0.33355107536E+01  0.10543280057E+02  0.10570000000E+00 0. -1.
         13    1    3    3    0    0 -0.59662259628E+01  0.80267115084E+01 -0.34544439202E+01  0.10581507698E+02  0.10570000000E+00 0.  1.
<mgrwt>
<rscale>  0 0.20003829E+02</rscale>
<asrwt>0</asrwt>
<pdfrwt beam="2">  1        4 0.21472879E-02 0.20003829E+02</pdfrwt>
<pdfrwt beam="1">  1       -4 0.11026795E-02 0.20003829E+02</pdfrwt>
<totfact> 0.12942336E+06</totfact>
</mgrwt>
</event>
<event>
 4    1  0.4710515E-007  0.2004476E+02  0.7818608E-02  0.1744439E+00
          4   -1    0    0  501    0  0.00000000000E+00  0.00000000000E+00  0.97944574010E+02  0.97954867046E+02  0.14200000000E+01 0.  1.
         -4   -1    0    0    0  501 -0.00000000000E+00 -0.00000000000E+00 -0.51862925155E+00  0.15117461098E+01  0.14200000000E+01 0. -1.
        -13    1    1    2    0    0 -0.79598783828E+01  0.60863352946E+01  0.49625151324E+02  0.50626771156E+02  0.10570000000E+00 0.  1.
         13    1    1    2    0    0  0.79598783828E+01 -0.60863352946E+01  0.47800793434E+02  0.48839842000E+02  0.10570000000E+00 0. -1.
<mgrwt>
<rscale>  0 0.20044760E+02</rscale>
<asrwt>0</asrwt>
<pdfrwt beam="1">  1        4 0.15145581E-01 0.20044760E+02</pdfrwt>
<pdfrwt beam="2">  1       -4 0.15697449E-03 0.20044760E+02</pdfrwt>
<totfact> 0.97727635E+05</totfact>
</mgrwt>
</event>
<event>
 5    1  0.4710515E-007  0.2000590E+02  0.7818608E-02  0.1745211E+00
         -4   -1    0    0    0  501 -0.00000000000E+00  0.00000000000E+00  0.13626858474E+01  0.19680733520E+01  0.14200000000E+01 0. -1.
          4   -1    0    0  501    0  0.00000000000E+00 -0.00000000000E+00 -0.59466369940E+02  0.59483321644E+02  0.14200000000E+01 0.  1.
       1023    2    1    2    0    0  0.00000000000E+00  0.00000000000E+00 -0.58103684093E+02  0.61451394996E+02  0.20005895178E+02 0.  0.
        -13    1    3    3    0    0 -0.96171253590E+01  0.27441289437E+01 -0.28533793823E+02  0.30235871184E+02  0.10570000000E+00 0. -1.
         13    1    3    3    0    0  0.96171253590E+01 -0.27441289437E+01 -0.29569890269E+02  0.31215523812E+02  0.10570000000E+00 0.  1.
<mgrwt>
<rscale>  0 0.20005895E+02</rscale>
<asrwt>0</asrwt>
<pdfrwt beam="2">  1        4 0.91965429E-02 0.20005895E+02</pdfrwt>
<pdfrwt beam="1">  1       -4 0.25751627E-03 0.20005895E+02</pdfrwt>
<totfact> 0.11056925E+06</totfact>
</mgrwt>
</event>
<event>
 5    1  0.4710515E-007  0.2000293E+02  0.7818608E-02  0.1745270E+00
         -4   -1    0    0    0  501 -0.00000000000E+00  0.00000000000E+00  0.29290226861E+02  0.29324627697E+02  0.14200000000E+01 0. -1.
          4   -1    0    0  501    0  0.00000000000E+00 -0.00000000000E+00 -0.32294141584E+01  0.35278202628E+01  0.14200000000E+01 0.  1.
       1023    2    1    2    0    0  0.00000000000E+00  0.00000000000E+00  0.26060812703E+02  0.32852447960E+02  0.20002934241E+02 0.  0.
        -13    1    3    3    0    0 -0.31862283938E+01 -0.94790730481E+01  0.13219778279E+02  0.16576446768E+02  0.10570000000E+00 0.  1.
         13    1    3    3    0    0  0.31862283938E+01  0.94790730481E+01  0.12841034424E+02  0.16276001192E+02  0.10570000000E+00 0. -1.
<mgrwt>
<rscale>  0 0.20002934E+02</rscale>
<asrwt>0</asrwt>
<pdfrwt beam="2">  1        4 0.52243347E-03 0.20002934E+02</pdfrwt>
<pdfrwt beam="1">  1       -4 0.45317894E-02 0.20002934E+02</pdfrwt>
<totfact> 0.12305488E+06</totfact>
</mgrwt>
</event>
<event>
 4    1  0.4710515E-007  0.2070625E+02  0.7818608E-02  0.1731638E+00
         -4   -1    0    0    0  501 -0.00000000000E+00  0.00000000000E+00  0.10703653239E+02  0.10797434541E+02  0.14200000000E+01 0.  1.
          4   -1    0    0  501    0  0.00000000000E+00 -0.00000000000E+00 -0.98253508225E+01  0.99274326382E+01  0.14200000000E+01 0. -1.
        -13    1    1    2    0    0 -0.30968025414E+01 -0.98047058046E+01  0.16458728044E+01  0.10413573434E+02  0.10570000000E+00 0.  1.
         13    1    1    2    0    0  0.30968025414E+01  0.98047058046E+01 -0.76757038783E+00  0.10311293745E+02  0.10570000000E+00 0. -1.
<mgrwt>
<rscale>  0 0.20706248E+02</rscale>
<asrwt>0</asrwt>
<pdfrwt beam="2">  1        4 0.15266588E-02 0.20706248E+02</pdfrwt>
<pdfrwt beam="1">  1       -4 0.16617823E-02 0.20706248E+02</pdfrwt>
<totfact> 0.12077100E+06</totfact>
</mgrwt>
</event>
<event>
 5    1  0.4710515E-007  0.2000373E+02  0.7818608E-02  0.1745254E+00
          4   -1    0    0  501    0  0.00000000000E+00  0.00000000000E+00  0.72269098323E+02  0.72283047615E+02  0.14200000000E+01 0. -1.
         -4   -1    0    0    0  501 -0.00000000000E+00 -0.00000000000E+00 -0.10021903428E+01  0.17380407024E+01  0.14200000000E+01 0.  1.
       1023    2    1    2    0    0  0.00000000000E+00  0.00000000000E+00  0.71266907980E+02  0.74021088317E+02  0.20003733215E+02 0.  0.
        -13    1    3    3    0    0 -0.64920438304E+01 -0.76076392407E+01  0.35847795311E+02  0.37216910256E+02  0.10570000000E+00 0.  1.
         13    1    3    3    0    0  0.64920438304E+01  0.76076392407E+01  0.35419112670E+02  0.36804178061E+02  0.10570000000E+00 0. -1.
<mgrwt>
<rscale>  0 0.20003733E+02</rscale>
<asrwt>0</asrwt>
<pdfrwt beam="1">  1        4 0.11176004E-01 0.20003733E+02</pdfrwt>
<pdfrwt beam="2">  1       -4 0.21185995E-03 0.20003733E+02</pdfrwt>
<totfact> 0.10607104E+06</totfact>
</mgrwt>
</event>
<event>
 4    1  0.4710515E-007  0.2001524E+02  0.7818608E-02  0.1745025E+00
          4   -1    0    0  501    0  0.00000000000E+00  0.00000000000E+00  0.13929580752E+01  0.19891536390E+01  0.14200000000E+01 0.  1.
         -4   -1    0    0    0  501 -0.00000000000E+00 -0.00000000000E+00 -0.58618473903E+02  0.58635670736E+02  0.14200000000E+01 0. -1.
        -13    1    1    2    0    0  0.20600168478E+01  0.97904886006E+01 -0.27978066116E+02  0.29713308341E+02  0.10570000000E+00 0.  1.
         13    1    1    2    0    0 -0.20600168478E+01 -0.97904886006E+01 -0.29247449712E+02  0.30911516035E+02  0.10570000000E+00 0. -1.
<mgrwt>
<rscale>  0 0.20015236E+02</rscale>
<asrwt>0</asrwt>
<pdfrwt beam="1">  1        4 0.26148532E-03 0.20015236E+02</pdfrwt>
<pdfrwt beam="2">  1       -4 0.90654092E-02 0.20015236E+02</pdfrwt>
<totfact> 0.11077947E+06</totfact>
</mgrwt>
</event>
<event>
 4    1  0.4710515E-007  0.2003695E+02  0.7818608E-02  0.1744594E+00
         -4   -1    0    0    0  501 -0.00000000000E+00  0.00000000000E+00  0.49836106189E+02  0.49856332397E+02  0.14200000000E+01 0.  1.
          4   -1    0    0  501    0  0.00000000000E+00 -0.00000000000E+00 -0.17404173045E+01  0.22462084484E+01  0.14200000000E+01 0. -1.
        -13    1    1    2    0    0  0.26830618475E+01 -0.96377757691E+01  0.22688810332E+02  0.24796750381E+02  0.10570000000E+00 0. -1.
         13    1    1    2    0    0 -0.26830618475E+01  0.96377757691E+01  0.25406878552E+02  0.27305790465E+02  0.10570000000E+00 0.  1.
<mgrwt>
<rscale>  0 0.20036953E+02</rscale>
<asrwt>0</asrwt>
<pdfrwt beam="2">  1        4 0.30821936E-03 0.20036953E+02</pdfrwt>
<pdfrwt beam="1">  1       -4 0.77075566E-02 0.20036953E+02</pdfrwt>
<totfact> 0.11390208E+06</totfact>
</mgrwt>
</event>
<event>
 5    1  0.4710515E-007  0.2000422E+02  0.7818608E-02  0.1745244E+00
          4   -1    0    0  501    0  0.00000000000E+00  0.00000000000E+00  0.12602616449E+01  0.18985940624E+01  0.14200000000E+01 0.  1.
         -4   -1    0    0    0  501 -0.00000000000E+00 -0.00000000000E+00 -0.62692809045E+02  0.62708888572E+02  0.14200000000E+01 0. -1.
       1023    2    1    2    0    0  0.00000000000E+00  0.00000000000E+00 -0.61432547400E+02  0.64607482634E+02  0.20004222862E+02 0.  0.
        -13    1    3    3    0    0  0.89851089518E+01  0.43905010849E+01 -0.30233135798E+02  0.31844345736E+02  0.10570000000E+00 0. -1.
         13    1    3    3    0    0 -0.89851089518E+01 -0.43905010849E+01 -0.31199411602E+02  0.32763136899E+02  0.10570000000E+00 0.  1.
<mgrwt>
<rscale>  0 0.20004223E+02</rscale>
<asrwt>0</asrwt>
<pdfrwt beam="1">  1        4 0.24422584E-03 0.20004223E+02</pdfrwt>
<pdfrwt beam="2">  1       -4 0.96953850E-02 0.20004223E+02</pdfrwt>
<totfact> 0.10940786E+06</totfact>
</mgrwt>
</event>
<event>
 5    1  0.4710515E-007  0.2000223E+02  0.7818608E-02  0.1745284E+00
         -4   -1    0    0    0  501 -0.00000000000E+00  0.00000000000E+00  0.20674516163E+02  0.20723224135E+02  0.14200000000E+01 0.  1.
          4   -1    0    0  501    0  0.00000000000E+00 -0.00000000000E+00 -0.46780436646E+01  0.48888129979E+01  0.14200000000E+01 0. -1.
       1023    2    1    2    0    0  0.00000000000E+00  0.00000000000E+00  0.15996472498E+02  0.25612037133E+02  0.20002232719E+02 0.  0.
        -13    1    3    3    0    0  0.94666631843E+01 -0.32236633729E+01  0.79496706170E+01  0.12775686001E+02  0.10570000000E+00 0. -1.
         13    1    3    3    0    0 -0.94666631843E+01  0.32236633729E+01  0.80468018811E+01  0.12836351132E+02  0.10570000000E+00 0.  1.
<mgrwt>
<rscale>  0 0.20002233E+02</rscale>
<asrwt>0</asrwt>
<pdfrwt beam="2">  1        4 0.73965883E-03 0.20002233E+02</pdfrwt>
<pdfrwt beam="1">  1       -4 0.32006545E-02 0.20002233E+02</pdfrwt>
<totfact> 0.12688697E+06</totfact>
</mgrwt>
</event>
<event>
 5    1  0.4746853E-007  0.2000644E+02  0.7818608E-02  0.1745200E+00
         -4   -1    0    0    0  501 -0.00000000000E+00  0.00000000000E+00  0.30619383577E+02  0.30652292747E+02  0.14200000000E+01 0.  1.
          4   -1    0    0  501    0  0.00000000000E+00 -0.00000000000E+00 -0.30773489041E+01  0.33891704409E+01  0.14200000000E+01 0. -1.
       1023    2    1    2    0    0  0.00000000000E+00  0.00000000000E+00  0.27542034673E+02  0.34041463188E+02  0.20006437515E+02 0.  0.
        -13    1    3    3    0    0 -0.99856174690E+01 -0.54215216894E+00  0.14138829559E+02  0.17318318596E+02  0.10570000000E+00 0.  1.
         13    1    3    3    0    0  0.99856174690E+01  0.54215216894E+00  0.13403205114E+02  0.16723144592E+02  0.10570000000E+00 0. -1.
<mgrwt>
<rscale>  0 0.20006438E+02</rscale>
<asrwt>0</asrwt>
<pdfrwt beam="2">  1        4 0.49995605E-03 0.20006438E+02</pdfrwt>
<pdfrwt beam="1">  1       -4 0.47371920E-02 0.20006438E+02</pdfrwt>
<totfact> 0.12241486E+06</totfact>
</mgrwt>
</event>
<event>
 5    1  0.4710515E-007  0.2000446E+02  0.7818608E-02  0.1745239E+00
         -4   -1    0    0    0  501 -0.00000000000E+00  0.00000000000E+00  0.22957689351E+01  0.26994360528E+01  0.14200000000E+01 0. -1.
          4   -1    0    0  501    0  0.00000000000E+00 -0.00000000000E+00 -0.39638861398E+02  0.39664287878E+02  0.14200000000E+01 0.  1.
       1023    2    1    2    0    0  0.00000000000E+00  0.00000000000E+00 -0.37343092462E+02  0.42363723931E+02  0.20004463268E+02 0.  0.
        -13    1    3    3    0    0  0.41021467864E+01  0.91211305570E+01 -0.18451118005E+02  0.20987557243E+02  0.10570000000E+00 0.  1.
         13    1    3    3    0    0 -0.41021467864E+01 -0.91211305570E+01 -0.18891974458E+02  0.21376166688E+02  0.10570000000E+00 0. -1.
<mgrwt>
<rscale>  0 0.20004463E+02</rscale>
<asrwt>0</asrwt>
<pdfrwt beam="2">  1        4 0.61312931E-02 0.20004463E+02</pdfrwt>
<pdfrwt beam="1">  1       -4 0.38620245E-03 0.20004463E+02</pdfrwt>
<totfact> 0.11848640E+06</totfact>
</mgrwt>
</event>
<event>
 5    1  0.4710515E-007  0.2000301E+02  0.7818608E-02  0.1745268E+00
          4   -1    0    0  501    0  0.00000000000E+00  0.00000000000E+00  0.26828274530E+01  0.30354510608E+01  0.14200000000E+01 0. -1.
         -4   -1    0    0    0  501 -0.00000000000E+00 -0.00000000000E+00 -0.34618019099E+02  0.34647130420E+02  0.14200000000E+01 0.  1.
       1023    2    1    2    0    0  0.00000000000E+00  0.00000000000E+00 -0.31935191646E+02  0.37682581481E+02  0.20003011813E+02 0.  0.
        -13    1    3    3    0    0  0.95564378280E+01  0.29482397674E+01 -0.15898991223E+02  0.18783149791E+02  0.10570000000E+00 0.  1.
         13    1    3    3    0    0 -0.95564378280E+01 -0.29482397674E+01 -0.16036200423E+02  0.18899431689E+02  0.10570000000E+00 0. -1.
<mgrwt>
<rscale>  0 0.20003012E+02</rscale>
<asrwt>0</asrwt>
<pdfrwt beam="1">  1        4 0.44210694E-03 0.20003012E+02</pdfrwt>
<pdfrwt beam="2">  1       -4 0.53552130E-02 0.20003012E+02</pdfrwt>
<totfact> 0.12068187E+06</totfact>
</mgrwt>
</event>
<event>
 5    1  0.4710515E-007  0.2000176E+02  0.7818608E-02  0.1745293E+00
          4   -1    0    0  501    0  0.00000000000E+00  0.00000000000E+00  0.60860810297E+02  0.60877373711E+02  0.14200000000E+01 0.  1.
         -4   -1    0    0    0  501 -0.00000000000E+00 -0.00000000000E+00 -0.13166335888E+01  0.19364720517E+01  0.14200000000E+01 0. -1.
       1023    2    1    2    0    0  0.00000000000E+00  0.00000000000E+00  0.59544176708E+02  0.62813845763E+02  0.20001755916E+02 0.  0.
        -13    1    3    3    0    0  0.99941550494E+01 -0.34948702125E+00  0.29667407898E+02  0.31307691391E+02  0.10570000000E+00 0.  1.
         13    1    3    3    0    0 -0.99941550494E+01  0.34948702125E+00  0.29876768810E+02  0.31506154373E+02  0.10570000000E+00 0. -1.
<mgrwt>
<rscale>  0 0.20001756E+02</rscale>
<asrwt>0</asrwt>
<pdfrwt beam="1">  1        4 0.94121562E-02 0.20001756E+02</pdfrwt>
<pdfrwt beam="2">  1       -4 0.25151299E-03 0.20001756E+02</pdfrwt>
<totfact> 0.11010184E+06</totfact>
</mgrwt>
</event>
<event>
 5    1  0.4710515E-007  0.2000628E+02  0.7818608E-02  0.1745203E+00
          4   -1    0    0  501    0  0.00000000000E+00  0.00000000000E+00  0.36941068990E+02  0.36968351033E+02  0.14200000000E+01 0. -1.
         -4   -1    0    0    0  501 -0.00000000000E+00 -0.00000000000E+00 -0.24922917536E+01  0.28684347971E+01  0.14200000000E+01 0.  1.
       1023    2    1    2    0    0  0.00000000000E+00  0.00000000000E+00  0.34448777236E+02  0.39836785830E+02  0.20006280319E+02 0.  0.
        -13    1    3    3    0    0 -0.99581291358E+01 -0.93786228580E+00  0.17049444742E+02  0.19767110564E+02  0.10570000000E+00 0.  1.
         13    1    3    3    0    0  0.99581291358E+01  0.93786228580E+00  0.17399332494E+02  0.20069675266E+02  0.10570000000E+00 0. -1.
<mgrwt>
<rscale>  0 0.20006280E+02</rscale>
<asrwt>0</asrwt>
<pdfrwt beam="1">  1        4 0.57142740E-02 0.20006280E+02</pdfrwt>
<pdfrwt beam="2">  1       -4 0.41446221E-03 0.20006280E+02</pdfrwt>
<totfact> 0.11962607E+06</totfact>
</mgrwt>
</event>
<event>
 5    1  0.5036484E-007  0.2000161E+02  0.7818608E-02  0.1745296E+00
          4   -1    0    0  501    0  0.00000000000E+00  0.00000000000E+00  0.59138896205E+01  0.60819807993E+01  0.14200000000E+01 0.  1.
         -4   -1    0    0    0  501 -0.00000000000E+00 -0.00000000000E+00 -0.16476033539E+02  0.16537112238E+02  0.14200000000E+01 0. -1.
       1023    2    1    2    0    0  0.00000000000E+00  0.00000000000E+00 -0.10562143918E+02  0.22619093037E+02  0.20001612077E+02 0.  0.
        -13    1    3    3    0    0 -0.49466766719E+01  0.86911068603E+01 -0.52817642878E+01  0.11309869806E+02  0.10570000000E+00 0. -1.
         13    1    3    3    0    0  0.49466766719E+01 -0.86911068603E+01 -0.52803796304E+01  0.11309223231E+02  0.10570000000E+00 0.  1.
<mgrwt>
<rscale>  0 0.20001612E+02</rscale>
<asrwt>0</asrwt>
<pdfrwt beam="1">  1        4 0.92745763E-03 0.20001612E+02</pdfrwt>
<pdfrwt beam="2">  1       -4 0.25524028E-02 0.20001612E+02</pdfrwt>
<totfact> 0.12858325E+06</totfact>
</mgrwt>
</event>
<event>
 5    1  0.4771336E-007  0.2000139E+02  0.7818608E-02  0.1745300E+00
          4   -1    0    0  501    0  0.00000000000E+00  0.00000000000E+00  0.21991902769E+01  0.26177925575E+01  0.14200000000E+01 0. -1.
         -4   -1    0    0    0  501 -0.00000000000E+00 -0.00000000000E+00 -0.41093623679E+02  0.41118150580E+02  0.14200000000E+01 0.  1.
       1023    2    1    2    0    0  0.00000000000E+00  0.00000000000E+00 -0.38894433402E+02  0.43735943137E+02  0.20001394262E+02 0.  0.
        -13    1    3    3    0    0  0.98802739253E+01 -0.15432896523E+01 -0.19523430628E+02  0.21935748717E+02  0.10570000000E+00 0.  1.
         13    1    3    3    0    0 -0.98802739253E+01  0.15432896523E+01 -0.19371002774E+02  0.21800194420E+02  0.10570000000E+00 0. -1.
<mgrwt>
<rscale>  0 0.20001394E+02</rscale>
<asrwt>0</asrwt>
<pdfrwt beam="1">  1        4 0.37242386E-03 0.20001394E+02</pdfrwt>
<pdfrwt beam="2">  1       -4 0.63561823E-02 0.20001394E+02</pdfrwt>
<totfact> 0.11790407E+06</totfact>
</mgrwt>
</event>
<event>
 5    1  0.4710515E-007  0.2000393E+02  0.7818608E-02  0.1745250E+00
          4   -1    0    0  501    0  0.00000000000E+00  0.00000000000E+00  0.38935898203E+02  0.38961783441E+02  0.14200000000E+01 0.  1.
         -4   -1    0    0    0  501 -0.00000000000E+00 -0.00000000000E+00 -0.23442613582E+01  0.27407957449E+01  0.14200000000E+01 0. -1.
       1023    2    1    2    0    0  0.00000000000E+00  0.00000000000E+00  0.36591636845E+02  0.41702579186E+02  0.20003930208E+02 0.  0.
        -13    1    3    3    0    0  0.51098455025E+01 -0.85963177981E+01  0.17994198350E+02  0.20586635167E+02  0.10570000000E+00 0.  1.
         13    1    3    3    0    0 -0.51098455025E+01  0.85963177981E+01  0.18597438495E+02  0.21115944019E+02  0.10570000000E+00 0. -1.
<mgrwt>
<rscale>  0 0.20003930E+02</rscale>
<asrwt>0</asrwt>
<pdfrwt beam="1">  1        4 0.60226322E-02 0.20003930E+02</pdfrwt>
<pdfrwt beam="2">  1       -4 0.39314940E-03 0.20003930E+02</pdfrwt>
<totfact> 0.11879370E+06</totfact>
</mgrwt>
</event>
<event>
 5    1  0.4710515E-007  0.2000588E+02  0.7818608E-02  0.1745211E+00
          4   -1    0    0  501    0  0.00000000000E+00  0.00000000000E+00  0.19986366330E+01  0.24517235551E+01  0.14200000000E+01 0. -1.
         -4   -1    0    0    0  501 -0.00000000000E+00 -0.00000000000E+00 -0.44501050964E+02  0.44523700845E+02  0.14200000000E+01 0.  1.
       1023    2    1    2    0    0  0.00000000000E+00  0.00000000000E+00 -0.42502414331E+02  0.46975424400E+02  0.20005880975E+02 0.  0.
        -13    1    3    3    0    0 -0.95008293928E+01  0.31265101494E+01 -0.21445134148E+02  0.23663173414E+02  0.10570000000E+00 0. -1.
         13    1    3    3    0    0  0.95008293928E+01 -0.31265101494E+01 -0.21057280183E+02  0.23312250986E+02  0.10570000000E+00 0.  1.
<mgrwt>
<rscale>  0 0.20005881E+02</rscale>
<asrwt>0</asrwt>
<pdfrwt beam="1">  1        4 0.34407773E-03 0.20005881E+02</pdfrwt>
<pdfrwt beam="2">  1       -4 0.68829100E-02 0.20005881E+02</pdfrwt>
<totfact> 0.11642420E+06</totfact>
</mgrwt>
</event>
<event>
 5    1  0.4710515E-007  0.2000187E+02  0.7818608E-02  0.1745291E+00
          4   -1    0    0  501    0  0.00000000000E+00  0.00000000000E+00  0.20845163120E+02  0.20893473276E+02  0.14200000000E+01 0.  1.
         -4   -1    0    0    0  501 -0.00000000000E+00 -0.00000000000E+00 -0.46379319287E+01  0.48504445750E+01  0.14200000000E+01 0. -1.
       1023    2    1    2    0    0  0.00000000000E+00  0.00000000000E+00  0.16207231192E+02  0.25743917851E+02  0.20001873997E+02 0.  0.
        -13    1    3    3    0    0  0.63270611758E+01  0.77443433398E+01  0.80626818952E+01  0.12846188879E+02  0.10570000000E+00 0. -1.
         13    1    3    3    0    0 -0.63270611758E+01 -0.77443433398E+01  0.81445492965E+01  0.12897728971E+02  0.10570000000E+00 0.  1.
<mgrwt>
<rscale>  0 0.20001874E+02</rscale>
<asrwt>0</asrwt>
<pdfrwt beam="1">  1        4 0.32270115E-02 0.20001874E+02</pdfrwt>
<pdfrwt beam="2">  1       -4 0.73359127E-03 0.20001874E+02</pdfrwt>
<totfact> 0.12681870E+06</totfact>
</mgrwt>
</event>
<event>
 5    1  0.4879250E-007  0.2000197E+02  0.7818608E-02  0.1745289E+00
         -4   -1    0    0    0  501 -0.00000000000E+00  0.00000000000E+00  0.44801229758E+02  0.44823727956E+02  0.14200000000E+01 0.  1.
          4   -1    0    0  501    0  0.00000000000E+00 -0.00000000000E+00 -0.19812455852E+01  0.24375672440E+01  0.14200000000E+01 0. -1.
       1023    2    1    2    0    0  0.00000000000E+00  0.00000000000E+00  0.42819984173E+02  0.47261295200E+02  0.20001974387E+02 0.  0.
        -13    1    3    3    0    0  0.26144416766E+01 -0.96525653999E+01  0.21326511108E+02  0.23555011624E+02  0.10570000000E+00 0. -1.
         13    1    3    3    0    0 -0.26144416766E+01  0.96525653999E+01  0.21493473065E+02  0.23706283576E+02  0.10570000000E+00 0.  1.
<mgrwt>
<rscale>  0 0.20001974E+02</rscale>
<asrwt>0</asrwt>
<pdfrwt beam="2">  1        4 0.34163936E-03 0.20001974E+02</pdfrwt>
<pdfrwt beam="1">  1       -4 0.69293282E-02 0.20001974E+02</pdfrwt>
<totfact> 0.11634644E+06</totfact>
</mgrwt>
</event>
<event>
 4    1  0.4710515E-007  0.2002528E+02  0.7818608E-02  0.1744826E+00
         -4   -1    0    0    0  501 -0.00000000000E+00  0.00000000000E+00  0.95523361140E+00  0.17113945344E+01  0.14200000000E+01 0.  1.
          4   -1    0    0  501    0  0.00000000000E+00 -0.00000000000E+00 -0.74425941325E+02  0.74439486444E+02  0.14200000000E+01 0. -1.
        -13    1    1    2    0    0  0.82490061730E+01 -0.56679316015E+01 -0.37743054273E+02  0.39047674321E+02  0.10570000000E+00 0.  1.
         13    1    1    2    0    0 -0.82490061730E+01  0.56679316015E+01 -0.35727653440E+02  0.37103206658E+02  0.10570000000E+00 0. -1.
<mgrwt>
<rscale>  0 0.20025279E+02</rscale>
<asrwt>0</asrwt>
<pdfrwt beam="2">  1        4 0.11509350E-01 0.20025279E+02</pdfrwt>
<pdfrwt beam="1">  1       -4 0.20616723E-03 0.20025279E+02</pdfrwt>
<totfact> 0.10512167E+06</totfact>
</mgrwt>
</event>
<event>
 5    1  0.4961939E-007  0.2000149E+02  0.7818608E-02  0.1745299E+00
         -4   -1    0    0    0  501 -0.00000000000E+00  0.00000000000E+00  0.12430322922E+02  0.12511168129E+02  0.14200000000E+01 0. -1.
          4   -1    0    0  501    0  0.00000000000E+00 -0.00000000000E+00 -0.78754095167E+01  0.80024043297E+01  0.14200000000E+01 0.  1.
       1023    2    1    2    0    0  0.00000000000E+00  0.00000000000E+00  0.45549134054E+01  0.20513572459E+02  0.20001485417E+02 0.  0.
        -13    1    3    3    0    0 -0.98327295476E+01  0.18219993146E+01  0.22386681651E+01  0.10248173472E+02  0.10570000000E+00 0. -1.
         13    1    3    3    0    0  0.98327295476E+01 -0.18219993146E+01  0.23162452403E+01  0.10265398987E+02  0.10570000000E+00 0.  1.
<mgrwt>
<rscale>  0 0.20001485E+02</rscale>
<asrwt>0</asrwt>
<pdfrwt beam="2">  1        4 0.12275891E-02 0.20001485E+02</pdfrwt>
<pdfrwt beam="1">  1       -4 0.19283451E-02 0.20001485E+02</pdfrwt>
<totfact> 0.12981550E+06</totfact>
</mgrwt>
</event>
<event>
 4    1  0.4710515E-007  0.2006302E+02  0.7818608E-02  0.1744078E+00
         -4   -1    0    0    0  501 -0.00000000000E+00  0.00000000000E+00  0.82587273172E+00  0.16427007546E+01  0.14200000000E+01 0. -1.
          4   -1    0    0  501    0  0.00000000000E+00 -0.00000000000E+00 -0.80704662867E+02  0.80717154363E+02  0.14200000000E+01 0.  1.
        -13    1    1    2    0    0 -0.59755969415E+01 -0.80247179335E+01 -0.36990242164E+02  0.38319616968E+02  0.10570000000E+00 0. -1.
         13    1    1    2    0    0  0.59755969415E+01  0.80247179335E+01 -0.42888547972E+02  0.44040238150E+02  0.10570000000E+00 0.  1.
<mgrwt>
<rscale>  0 0.20063016E+02</rscale>
<asrwt>0</asrwt>
<pdfrwt beam="2">  1        4 0.12479892E-01 0.20063016E+02</pdfrwt>
<pdfrwt beam="1">  1       -4 0.19085122E-03 0.20063016E+02</pdfrwt>
<totfact> 0.10269809E+06</totfact>
</mgrwt>
</event>
<event>
 5    1  0.4710515E-007  0.2000842E+02  0.7818608E-02  0.1745161E+00
         -4   -1    0    0    0  501 -0.00000000000E+00  0.00000000000E+00  0.12826136136E+01  0.19135040323E+01  0.14200000000E+01 0.  1.
          4   -1    0    0  501    0  0.00000000000E+00 -0.00000000000E+00 -0.61987997135E+02  0.62004259441E+02  0.14200000000E+01 0. -1.
       1023    2    1    2    0    0  0.00000000000E+00  0.00000000000E+00 -0.60705383521E+02  0.63917763473E+02  0.20008420700E+02 0.  0.
        -13    1    3    3    0    0  0.85274781013E+01  0.52288853166E+01 -0.29975683987E+02  0.31600821626E+02  0.10570000000E+00 0. -1.
         13    1    3    3    0    0 -0.85274781013E+01 -0.52288853166E+01 -0.30729699534E+02  0.32316941847E+02  0.10570000000E+00 0.  1.
<mgrwt>
<rscale>  0 0.20008421E+02</rscale>
<asrwt>0</asrwt>
<pdfrwt beam="2">  1        4 0.95863941E-02 0.20008421E+02</pdfrwt>
<pdfrwt beam="1">  1       -4 0.24710620E-03 0.20008421E+02</pdfrwt>
<totfact> 0.10961679E+06</totfact>
</mgrwt>
</event>
<event>
 5    1  0.4710515E-007  0.2000328E+02  0.7818608E-02  0.1745263E+00
         -4   -1    0    0    0  501 -0.00000000000E+00  0.00000000000E+00  0.22185129404E+02  0.22230527809E+02  0.14200000000E+01 0. -1.
          4   -1    0    0  501    0  0.00000000000E+00 -0.00000000000E+00 -0.43458241621E+01  0.45719347817E+01  0.14200000000E+01 0.  1.
       1023    2    1    2    0    0  0.00000000000E+00  0.00000000000E+00  0.17839305242E+02  0.26802462590E+02  0.20003279466E+02 0.  0.
        -13    1    3    3    0    0  0.53448403208E+00  0.99866515935E+01  0.89898107660E+01  0.13447927473E+02  0.10570000000E+00 0.  1.
         13    1    3    3    0    0 -0.53448403208E+00 -0.99866515935E+01  0.88494944756E+01  0.13354535117E+02  0.10570000000E+00 0. -1.
<mgrwt>
<rscale>  0 0.20003279E+02</rscale>
<asrwt>0</asrwt>
<pdfrwt beam="2">  1        4 0.68947363E-03 0.20003279E+02</pdfrwt>
<pdfrwt beam="1">  1       -4 0.34339822E-02 0.20003279E+02</pdfrwt>
<totfact> 0.12622025E+06</totfact>
</mgrwt>
</event>
<event>
 5    1  0.4710515E-007  0.2000414E+02  0.7818608E-02  0.1745246E+00
         -4   -1    0    0    0  501 -0.00000000000E+00  0.00000000000E+00  0.92906538639E+02  0.92917389771E+02  0.14200000000E+01 0.  1.
          4   -1    0    0  501    0  0.00000000000E+00 -0.00000000000E+00 -0.59290065817E+00  0.15388083670E+01  0.14200000000E+01 0. -1.
       1023    2    1    2    0    0  0.00000000000E+00  0.00000000000E+00  0.92313637981E+02  0.94456198138E+02  0.20004139808E+02 0.  0.
        -13    1    3    3    0    0 -0.27152758078E+01  0.96253878769E+01  0.46614992044E+02  0.47675879333E+02  0.10570000000E+00 0. -1.
         13    1    3    3    0    0  0.27152758078E+01 -0.96253878769E+01  0.45698645937E+02  0.46780318805E+02  0.10570000000E+00 0.  1.
<mgrwt>
<rscale>  0 0.20004140E+02</rscale>
<asrwt>0</asrwt>
<pdfrwt beam="2">  1        4 0.16481231E-03 0.20004140E+02</pdfrwt>
<pdfrwt beam="1">  1       -4 0.14366911E-01 0.20004140E+02</pdfrwt>
<totfact> 0.99579183E+05</totfact>
</mgrwt>
</event>
<event>
 5    1  0.4710515E-007  0.2000779E+02  0.7818608E-02  0.1745173E+00
          4   -1    0    0  501    0  0.00000000000E+00  0.00000000000E+00  0.32292947756E+01  0.35277109785E+01  0.14200000000E+01 0. -1.
         -4   -1    0    0    0  501 -0.00000000000E+00 -0.00000000000E+00 -0.29305598249E+02  0.29339981062E+02  0.14200000000E+01 0.  1.
       1023    2    1    2    0    0  0.00000000000E+00  0.00000000000E+00 -0.26076303474E+02  0.32867692041E+02  0.20007787915E+02 0.  0.
        -13    1    3    3    0    0  0.75506365584E+01  0.65590280991E+01 -0.13339986970E+02  0.16673313615E+02  0.10570000000E+00 0. -1.
         13    1    3    3    0    0 -0.75506365584E+01 -0.65590280991E+01 -0.12736316503E+02  0.16194378426E+02  0.10570000000E+00 0.  1.
<mgrwt>
<rscale>  0 0.20007788E+02</rscale>
<asrwt>0</asrwt>
<pdfrwt beam="1">  1        4 0.52241452E-03 0.20007788E+02</pdfrwt>
<pdfrwt beam="2">  1       -4 0.45341533E-02 0.20007788E+02</pdfrwt>
<totfact> 0.12298660E+06</totfact>
</mgrwt>
</event>
<event>
 5    1  0.4710515E-007  0.2000609E+02  0.7818608E-02  0.1745207E+00
         -4   -1    0    0    0  501 -0.00000000000E+00  0.00000000000E+00  0.25821950799E+02  0.25860965625E+02  0.14200000000E+01 0. -1.
          4   -1    0    0  501    0  0.00000000000E+00 -0.00000000000E+00 -0.37014771726E+01  0.39645092079E+01  0.14200000000E+01 0.  1.
       1023    2    1    2    0    0  0.00000000000E+00  0.00000000000E+00  0.22120473626E+02  0.29825474833E+02  0.20006088962E+02 0.  0.
        -13    1    3    3    0    0  0.85208768299E+01 -0.52340432684E+01  0.10729639270E+02  0.14667545201E+02  0.10570000000E+00 0.  1.
         13    1    3    3    0    0 -0.85208768299E+01  0.52340432684E+01  0.11390834356E+02  0.15157929631E+02  0.10570000000E+00 0. -1.
<mgrwt>
<rscale>  0 0.20006089E+02</rscale>
<asrwt>0</asrwt>
<pdfrwt beam="2">  1        4 0.59269241E-03 0.20006089E+02</pdfrwt>
<pdfrwt beam="1">  1       -4 0.39958421E-02 0.20006089E+02</pdfrwt>
<totfact> 0.12457157E+06</totfact>
</mgrwt>
</event>
<event>
 5    1  0.4710515E-007  0.2000281E+02  0.7818608E-02  0.1745272E+00
         -4   -1    0    0    0  501 -0.00000000000E+00  0.00000000000E+00  0.44079715154E+01  0.46310487884E+01  0.14200000000E+01 0.  1.
          4   -1    0    0  501    0  0.00000000000E+00 -0.00000000000E+00 -0.21885849437E+02  0.21931867353E+02  0.14200000000E+01 0. -1.
       1023    2    1    2    0    0  0.00000000000E+00  0.00000000000E+00 -0.17477877922E+02  0.26562916142E+02  0.20002807235E+02 0.  0.
        -13    1    3    3    0    0  0.55712088379E+01 -0.83053303397E+01 -0.87451486688E+01  0.13285543937E+02  0.10570000000E+00 0. -1.
         13    1    3    3    0    0 -0.55712088379E+01  0.83053303397E+01 -0.87327292531E+01  0.13277372205E+02  0.10570000000E+00 0.  1.
<mgrwt>
<rscale>  0 0.20002807E+02</rscale>
<asrwt>0</asrwt>
<pdfrwt beam="2">  1        4 0.33877533E-02 0.20002807E+02</pdfrwt>
<pdfrwt beam="1">  1       -4 0.69884911E-03 0.20002807E+02</pdfrwt>
<totfact> 0.12635691E+06</totfact>
</mgrwt>
</event>
<event>
 4    1  0.4710515E-007  0.2001255E+02  0.7818608E-02  0.1745079E+00
          4   -1    0    0  501    0  0.00000000000E+00  0.00000000000E+00  0.76710636623E+02  0.76723778394E+02  0.14200000000E+01 0.  1.
         -4   -1    0    0    0  501 -0.00000000000E+00 -0.00000000000E+00 -0.90176475691E+00  0.16821354514E+01  0.14200000000E+01 0. -1.
        -13    1    1    2    0    0  0.38184324559E+01  0.92448368044E+01  0.36890619376E+02  0.38222721049E+02  0.10570000000E+00 0.  1.
         13    1    1    2    0    0 -0.38184324559E+01 -0.92448368044E+01  0.38918252489E+02  0.40183192796E+02  0.10570000000E+00 0. -1.
<mgrwt>
<rscale>  0 0.20012553E+02</rscale>
<asrwt>0</asrwt>
<pdfrwt beam="1">  1        4 0.11862677E-01 0.20012553E+02</pdfrwt>
<pdfrwt beam="2">  1       -4 0.19977244E-03 0.20012553E+02</pdfrwt>
<totfact> 0.10450434E+06</totfact>
</mgrwt>
</event>
<event>
 5    1  0.4710515E-007  0.2000154E+02  0.7818608E-02  0.1745297E+00
         -4   -1    0    0    0  501 -0.00000000000E+00  0.00000000000E+00  0.34289984550E+02  0.34319374126E+02  0.14200000000E+01 0.  1.
          4   -1    0    0  501    0  0.00000000000E+00 -0.00000000000E+00 -0.27113697025E+01  0.30607067262E+01  0.14200000000E+01 0. -1.
       1023    2    1    2    0    0  0.00000000000E+00  0.00000000000E+00  0.31578614847E+02  0.37380080852E+02  0.20001538163E+02 0.  0.
        -13    1    3    3    0    0  0.27007998787E+01  0.96285974567E+01  0.15790934976E+02  0.18691415379E+02  0.10570000000E+00 0. -1.
         13    1    3    3    0    0 -0.27007998787E+01 -0.96285974567E+01  0.15787679871E+02  0.18688665473E+02  0.10570000000E+00 0.  1.
<mgrwt>
<rscale>  0 0.20001538E+02</rscale>
<asrwt>0</asrwt>
<pdfrwt beam="2">  1        4 0.44626665E-03 0.20001538E+02</pdfrwt>
<pdfrwt beam="1">  1       -4 0.53045146E-02 0.20001538E+02</pdfrwt>
<totfact> 0.12084458E+06</totfact>
</mgrwt>
</event>
<event>
 4    1  0.4710515E-007  0.2001386E+02  0.7818608E-02  0.1745053E+00
          4   -1    0    0  501    0  0.00000000000E+00  0.00000000000E+00  0.16286891826E+02  0.16348677175E+02  0.14200000000E+01 0.  1.
         -4   -1    0    0    0  501 -0.00000000000E+00 -0.00000000000E+00 -0.59918556825E+01  0.61578189742E+01  0.14200000000E+01 0. -1.
        -13    1    1    2    0    0 -0.98009731889E+01  0.20067381295E+01  0.49186956843E+01  0.11148578972E+02  0.10570000000E+00 0. -1.
         13    1    1    2    0    0  0.98009731889E+01 -0.20067381295E+01  0.53763404596E+01  0.11357917177E+02  0.10570000000E+00 0.  1.
<mgrwt>
<rscale>  0 0.20013860E+02</rscale>
<asrwt>0</asrwt>
<pdfrwt beam="1">  1        4 0.25231948E-02 0.20013860E+02</pdfrwt>
<pdfrwt beam="2">  1       -4 0.93934307E-03 0.20013860E+02</pdfrwt>
<totfact> 0.12848763E+06</totfact>
</mgrwt>
</event>
<event>
 4    1  0.4710515E-007  0.2004479E+02  0.7818608E-02  0.1744439E+00
         -4   -1    0    0    0  501 -0.00000000000E+00  0.00000000000E+00  0.59884948353E+02  0.59901781604E+02  0.14200000000E+01 0. -1.
          4   -1    0    0  501    0  0.00000000000E+00 -0.00000000000E+00 -0.13566155492E+01  0.19638751865E+01  0.14200000000E+01 0.  1.
        -13    1    1    2    0    0  0.77340743801E+01  0.63511994271E+01  0.27620477452E+02  0.29377807744E+02  0.10570000000E+00 0.  1.
         13    1    1    2    0    0 -0.77340743801E+01 -0.63511994271E+01  0.30907855352E+02  0.32487849046E+02  0.10570000000E+00 0. -1.
<mgrwt>
<rscale>  0 0.20044794E+02</rscale>
<asrwt>0</asrwt>
<pdfrwt beam="2">  1        4 0.25671719E-03 0.20044794E+02</pdfrwt>
<pdfrwt beam="1">  1       -4 0.92610775E-02 0.20044794E+02</pdfrwt>
<totfact> 0.10998200E+06</totfact>
</mgrwt>
</event>
<event>
 5    1  0.4710515E-007  0.2000408E+02  0.7818608E-02  0.1745247E+00
         -4   -1    0    0    0  501 -0.00000000000E+00  0.00000000000E+00  0.27428262325E+01  0.30886074114E+01  0.14200000000E+01 0. -1.
          4   -1    0    0  501    0  0.00000000000E+00 -0.00000000000E+00 -0.33949365751E+02  0.33979049941E+02  0.14200000000E+01 0.  1.
       1023    2    1    2    0    0  0.00000000000E+00  0.00000000000E+00 -0.31206539519E+02  0.37067657353E+02  0.20004077406E+02 0.  0.
        -13    1    3    3    0    0 -0.52066224580E+01  0.85389739932E+01 -0.15753939157E+02  0.18660674311E+02  0.10570000000E+00 0.  1.
         13    1    3    3    0    0  0.52066224580E+01 -0.85389739932E+01 -0.15452600362E+02  0.18406983042E+02  0.10570000000E+00 0. -1.
<mgrwt>
<rscale>  0 0.20004077E+02</rscale>
<asrwt>0</asrwt>
<pdfrwt beam="2">  1        4 0.52518610E-02 0.20004077E+02</pdfrwt>
<pdfrwt beam="1">  1       -4 0.45085524E-03 0.20004077E+02</pdfrwt>
<totfact> 0.12096344E+06</totfact>
</mgrwt>
</event>
<event>
 5    1  0.4710515E-007  0.2000241E+02  0.7818608E-02  0.1745280E+00
          4   -1    0    0  501    0  0.00000000000E+00  0.00000000000E+00  0.43780320280E+01  0.46025606393E+01  0.14200000000E+01 0. -1.
         -4   -1    0    0    0  501 -0.00000000000E+00 -0.00000000000E+00 -0.22027641190E+02  0.22073363504E+02  0.14200000000E+01 0.  1.
       1023    2    1    2    0    0  0.00000000000E+00  0.00000000000E+00 -0.17649609162E+02  0.26675924144E+02  0.20002405489E+02 0.  0.
        -13    1    3    3    0    0 -0.54446391247E+01 -0.83884752435E+01 -0.88883693217E+01  0.13380018453E+02  0.10570000000E+00 0.  1.
         13    1    3    3    0    0  0.54446391247E+01  0.83884752435E+01 -0.87612398402E+01  0.13295905691E+02  0.10570000000E+00 0. -1.
<mgrwt>
<rscale>  0 0.20002405E+02</rscale>
<asrwt>0</asrwt>
<pdfrwt beam="1">  1        4 0.69433194E-03 0.20002405E+02</pdfrwt>
<pdfrwt beam="2">  1       -4 0.34096563E-02 0.20002405E+02</pdfrwt>
<totfact> 0.12630041E+06</totfact>
</mgrwt>
</event>
<event>
 5    1  0.4710515E-007  0.2000267E+02  0.7818608E-02  0.1745275E+00
          4   -1    0    0  501    0  0.00000000000E+00  0.00000000000E+00  0.25980038421E+01  0.29607471969E+01  0.14200000000E+01 0.  1.
         -4   -1    0    0    0  501 -0.00000000000E+00 -0.00000000000E+00 -0.35611082614E+02  0.35639382780E+02  0.14200000000E+01 0. -1.
       1023    2    1    2    0    0  0.00000000000E+00  0.00000000000E+00 -0.33013078772E+02  0.38600129977E+02  0.20002666428E+02 0.  0.
        -13    1    3    3    0    0 -0.85685577113E+01  0.51558310091E+01 -0.16288905740E+02  0.19113932022E+02  0.10570000000E+00 0.  1.
         13    1    3    3    0    0  0.85685577113E+01 -0.51558310091E+01 -0.16724173032E+02  0.19486197955E+02  0.10570000000E+00 0. -1.
<mgrwt>
<rscale>  0 0.20002666E+02</rscale>
<asrwt>0</asrwt>
<pdfrwt beam="1">  1        4 0.42977320E-03 0.20002666E+02</pdfrwt>
<pdfrwt beam="2">  1       -4 0.55087080E-02 0.20002666E+02</pdfrwt>
<totfact> 0.12025024E+06</totfact>
</mgrwt>
</event>
<event>
 5    1  0.5026305E-007  0.2000205E+02  0.7818608E-02  0.1745287E+00
          4   -1    0    0  501    0  0.00000000000E+00  0.00000000000E+00  0.37367875685E+02  0.37394846346E+02  0.14200000000E+01 0. -1.
         -4   -1    0    0    0  501 -0.00000000000E+00 -0.00000000000E+00 -0.24583147972E+01  0.28389631280E+01  0.14200000000E+01 0.  1.
       1023    2    1    2    0    0  0.00000000000E+00  0.00000000000E+00  0.34909560888E+02  0.40233809474E+02  0.20002049479E+02 0.  0.
        -13    1    3    3    0    0  0.25188432853E+01  0.96777406500E+01  0.17297836071E+02  0.19980729236E+02  0.10570000000E+00 0. -1.
         13    1    3    3    0    0 -0.25188432853E+01 -0.96777406500E+01  0.17611724817E+02  0.20253080238E+02  0.10570000000E+00 0.  1.
<mgrwt>
<rscale>  0 0.20002049E+02</rscale>
<asrwt>0</asrwt>
<pdfrwt beam="1">  1        4 0.57802590E-02 0.20002049E+02</pdfrwt>
<pdfrwt beam="2">  1       -4 0.40955760E-03 0.20002049E+02</pdfrwt>
<totfact> 0.11949262E+06</totfact>
</mgrwt>
</event>
<event>
 5    1  0.4710515E-007  0.2000138E+02  0.7818608E-02  0.1745301E+00
         -4   -1    0    0    0  501 -0.00000000000E+00  0.00000000000E+00  0.67097239286E+01  0.68583376410E+01  0.14200000000E+01 0. -1.
          4   -1    0    0  501    0  0.00000000000E+00 -0.00000000000E+00 -0.14558998548E+02  0.14628083904E+02  0.14200000000E+01 0.  1.
       1023    2    1    2    0    0  0.00000000000E+00  0.00000000000E+00 -0.78492746193E+01  0.21486421545E+02  0.20001379922E+02 0.  0.
        -13    1    3    3    0    0  0.66998939552E+01 -0.74238218848E+01 -0.38921102092E+01  0.10731328192E+02  0.10570000000E+00 0.  1.
         13    1    3    3    0    0 -0.66998939552E+01  0.74238218848E+01 -0.39571644100E+01  0.10755093354E+02  0.10570000000E+00 0. -1.
<mgrwt>
<rscale>  0 0.20001380E+02</rscale>
<asrwt>0</asrwt>
<pdfrwt beam="2">  1        4 0.22565920E-02 0.20001380E+02</pdfrwt>
<pdfrwt beam="1">  1       -4 0.10490113E-02 0.20001380E+02</pdfrwt>
<totfact> 0.12924341E+06</totfact>
</mgrwt>
</event>
<event>
 5    1  0.4710515E-007  0.2000168E+02  0.7818608E-02  0.1745295E+00
         -4   -1    0    0    0  501 -0.00000000000E+00  0.00000000000E+00  0.58838678493E+02  0.58855810986E+02  0.14200000000E+01 0. -1.
          4   -1    0    0  501    0  0.00000000000E+00 -0.00000000000E+00 -0.13827969885E+01  0.19820513392E+01  0.14200000000E+01 0.  1.
       1023    2    1    2    0    0  0.00000000000E+00  0.00000000000E+00  0.57455881504E+02  0.60837862325E+02  0.20001679250E+02 0.  0.
        -13    1    3    3    0    0  0.97028428590E+01 -0.24207949049E+01  0.28772352739E+02  0.30460874284E+02  0.10570000000E+00 0.  1.
         13    1    3    3    0    0 -0.97028428590E+01  0.24207949049E+01  0.28683528765E+02  0.30376988041E+02  0.10570000000E+00 0. -1.
<mgrwt>
<rscale>  0 0.20001679E+02</rscale>
<asrwt>0</asrwt>
<pdfrwt beam="2">  1        4 0.26015239E-03 0.20001679E+02</pdfrwt>
<pdfrwt beam="1">  1       -4 0.90995181E-02 0.20001679E+02</pdfrwt>
<totfact> 0.11084931E+06</totfact>
</mgrwt>
</event>
<event>
 4    1  0.4710515E-007  0.2002317E+02  0.7818608E-02  0.1744868E+00
         -4   -1    0    0    0  501 -0.00000000000E+00  0.00000000000E+00  0.87473486894E+01  0.88618569777E+01  0.14200000000E+01 0.  1.
          4   -1    0    0  501    0  0.00000000000E+00 -0.00000000000E+00 -0.11224494322E+02  0.11313959201E+02  0.14200000000E+01 0. -1.
        -13    1    1    2    0    0 -0.97920397505E+01 -0.20409206815E+01 -0.16555570834E+01  0.10139104568E+02  0.10570000000E+00 0.  1.
         13    1    1    2    0    0  0.97920397505E+01  0.20409206815E+01 -0.82158854955E+00  0.10036711610E+02  0.10570000000E+00 0. -1.
<mgrwt>
<rscale>  0 0.20023169E+02</rscale>
<asrwt>0</asrwt>
<pdfrwt beam="2">  1        4 0.17425355E-02 0.20023169E+02</pdfrwt>
<pdfrwt beam="1">  1       -4 0.13614362E-02 0.20023169E+02</pdfrwt>
<totfact> 0.12972889E+06</totfact>
</mgrwt>
</event>
<event>
 5    1  0.4710515E-007  0.2000608E+02  0.7818608E-02  0.1745207E+00
          4   -1    0    0  501    0  0.00000000000E+00  0.00000000000E+00  0.14572978356E+02  0.14641997752E+02  0.14200000000E+01 0.  1.
         -4   -1    0    0    0  501 -0.00000000000E+00 -0.00000000000E+00 -0.67064327307E+01  0.68551177942E+01  0.14200000000E+01 0. -1.
       1023    2    1    2    0    0  0.00000000000E+00  0.00000000000E+00  0.78665456251E+01  0.21497115546E+02  0.20006084992E+02 0.  0.
        -13    1    3    3    0    0 -0.48809341352E+01  0.87297595143E+01  0.37912581391E+01  0.10696589642E+02  0.10570000000E+00 0. -1.
         13    1    3    3    0    0  0.48809341352E+01 -0.87297595143E+01  0.40752874860E+01  0.10800525904E+02  0.10570000000E+00 0.  1.
<mgrwt>
<rscale>  0 0.20006085E+02</rscale>
<asrwt>0</asrwt>
<pdfrwt beam="1">  1        4 0.22587432E-02 0.20006085E+02</pdfrwt>
<pdfrwt beam="2">  1       -4 0.10485054E-02 0.20006085E+02</pdfrwt>
<totfact> 0.12917515E+06</totfact>
</mgrwt>
</event>
<event>
 5    1  0.4823773E-007  0.2000130E+02  0.7818608E-02  0.1745302E+00
          4   -1    0    0  501    0  0.00000000000E+00  0.00000000000E+00  0.27197470109E+02  0.27234514505E+02  0.14200000000E+01 0.  1.
         -4   -1    0    0    0  501 -0.00000000000E+00 -0.00000000000E+00 -0.34990706361E+01  0.37762276569E+01  0.14200000000E+01 0. -1.
       1023    2    1    2    0    0  0.00000000000E+00  0.00000000000E+00  0.23698399473E+02  0.31010742162E+02  0.20001299754E+02 0.  0.
        -13    1    3    3    0    0 -0.57615962168E+00 -0.99834781762E+01  0.11840839992E+02  0.15498982567E+02  0.10570000000E+00 0.  1.
         13    1    3    3    0    0  0.57615962168E+00  0.99834781762E+01  0.11857559481E+02  0.15511759595E+02  0.10570000000E+00 0. -1.
<mgrwt>
<rscale>  0 0.20001300E+02</rscale>
<asrwt>0</asrwt>
<pdfrwt beam="1">  1        4 0.42083955E-02 0.20001300E+02</pdfrwt>
<pdfrwt beam="2">  1       -4 0.56248790E-03 0.20001300E+02</pdfrwt>
<totfact> 0.12401644E+06</totfact>
</mgrwt>
</event>
<event>
 5    1  0.4710515E-007  0.2000334E+02  0.7818608E-02  0.1745262E+00
          4   -1    0    0  501    0  0.00000000000E+00  0.00000000000E+00  0.15044990558E+02  0.15111854317E+02  0.14200000000E+01 0. -1.
         -4   -1    0    0    0  501 -0.00000000000E+00 -0.00000000000E+00 -0.64904131813E+01  0.66439343211E+01  0.14200000000E+01 0.  1.
       1023    2    1    2    0    0  0.00000000000E+00  0.00000000000E+00  0.85545773767E+01  0.21755788638E+02  0.20003338350E+02 0.  0.
        -13    1    3    3    0    0 -0.20664361938E+01 -0.97845024642E+01  0.41415911998E+01  0.10824536811E+02  0.10570000000E+00 0. -1.
         13    1    3    3    0    0  0.20664361938E+01  0.97845024642E+01  0.44129861769E+01  0.10931251827E+02  0.10570000000E+00 0.  1.
<mgrwt>
<rscale>  0 0.20003338E+02</rscale>
<asrwt>0</asrwt>
<pdfrwt beam="1">  1        4 0.23315666E-02 0.20003338E+02</pdfrwt>
<pdfrwt beam="2">  1       -4 0.10154778E-02 0.20003338E+02</pdfrwt>
<totfact> 0.12906033E+06</totfact>
</mgrwt>
</event>
<event>
 4    1  0.4710515E-007  0.2001573E+02  0.7818608E-02  0.1745016E+00
         -4   -1    0    0    0  501 -0.00000000000E+00  0.00000000000E+00  0.51694062533E+01  0.53608918113E+01  0.14200000000E+01 0. -1.
          4   -1    0    0  501    0  0.00000000000E+00 -0.00000000000E+00 -0.18803952521E+02  0.18857492686E+02  0.14200000000E+01 0.  1.
        -13    1    1    2    0    0  0.34017147212E+01 -0.94047971366E+01 -0.63907200551E+01  0.11869049985E+02  0.10570000000E+00 0.  1.
         13    1    1    2    0    0 -0.34017147212E+01  0.94047971366E+01 -0.72438262127E+01  0.12349334513E+02  0.10570000000E+00 0. -1.
<mgrwt>
<rscale>  0 0.20015726E+02</rscale>
<asrwt>0</asrwt>
<pdfrwt beam="2">  1        4 0.29117639E-02 0.20015726E+02</pdfrwt>
<pdfrwt beam="1">  1       -4 0.81414141E-03 0.20015726E+02</pdfrwt>
<totfact> 0.12749026E+06</totfact>
</mgrwt>
</event>
<event>
 5    1  0.4710515E-007  0.2000260E+02  0.7818608E-02  0.1745276E+00
          4   -1    0    0  501    0  0.00000000000E+00  0.00000000000E+00  0.57016091192E+02  0.57033771179E+02  0.14200000000E+01 0. -1.
         -4   -1    0    0    0  501 -0.00000000000E+00 -0.00000000000E+00 -0.14460288802E+01  0.20266720313E+01  0.14200000000E+01 0.  1.
       1023    2    1    2    0    0  0.00000000000E+00  0.00000000000E+00  0.55570062312E+02  0.59060443210E+02  0.20002603000E+02 0.  0.
        -13    1    3    3    0    0  0.99914311513E+01  0.41930707564E+00  0.27484727020E+02  0.29247664979E+02  0.10570000000E+00 0.  1.
         13    1    3    3    0    0 -0.99914311513E+01 -0.41930707564E+00  0.28085335293E+02  0.29812778231E+02  0.10570000000E+00 0. -1.
<mgrwt>
<rscale>  0 0.20002603E+02</rscale>
<asrwt>0</asrwt>
<pdfrwt beam="1">  1        4 0.88177295E-02 0.20002603E+02</pdfrwt>
<pdfrwt beam="2">  1       -4 0.26849089E-03 0.20002603E+02</pdfrwt>
<totfact> 0.11152128E+06</totfact>
</mgrwt>
</event>
<event>
 4    1  0.4710515E-007  0.2001571E+02  0.7818608E-02  0.1745016E+00
         -4   -1    0    0    0  501 -0.00000000000E+00  0.00000000000E+00  0.67862890082E+01  0.69332617506E+01  0.14200000000E+01 0.  1.
          4   -1    0    0  501    0  0.00000000000E+00 -0.00000000000E+00 -0.14418425013E+02  0.14488180695E+02  0.14200000000E+01 0. -1.
        -13    1    1    2    0    0  0.49253228792E+01  0.87112556976E+01 -0.37786813375E+01  0.10697400920E+02  0.10570000000E+00 0.  1.
         13    1    1    2    0    0 -0.49253228792E+01 -0.87112556976E+01 -0.38534546675E+01  0.10724041526E+02  0.10570000000E+00 0. -1.
<mgrwt>
<rscale>  0 0.20015711E+02</rscale>
<asrwt>0</asrwt>
<pdfrwt beam="2">  1        4 0.22348906E-02 0.20015711E+02</pdfrwt>
<pdfrwt beam="1">  1       -4 0.10607159E-02 0.20015711E+02</pdfrwt>
<totfact> 0.12909268E+06</totfact>
</mgrwt>
</event>
<event>
 5    1  0.4710515E-007  0.2000188E+02  0.7818608E-02  0.1745291E+00
         -4   -1    0    0    0  501 -0.00000000000E+00  0.00000000000E+00  0.39565769301E+02  0.39591242723E+02  0.14200000000E+01 0. -1.
          4   -1    0    0  501    0  0.00000000000E+00 -0.00000000000E+00 -0.23000463477E+01  0.27030747680E+01  0.14200000000E+01 0.  1.
       1023    2    1    2    0    0  0.00000000000E+00  0.00000000000E+00  0.37265722953E+02  0.42294317491E+02  0.20001879532E+02 0.  0.
        -13    1    3    3    0    0  0.54527234219E+01  0.83826539022E+01  0.18803922596E+02  0.21297881506E+02  0.10570000000E+00 0.  1.
         13    1    3    3    0    0 -0.54527234219E+01 -0.83826539022E+01  0.18461800357E+02  0.20996435985E+02  0.10570000000E+00 0. -1.
<mgrwt>
<rscale>  0 0.20001880E+02</rscale>
<asrwt>0</asrwt>
<pdfrwt beam="2">  1        4 0.38681498E-03 0.20001880E+02</pdfrwt>
<pdfrwt beam="1">  1       -4 0.61200029E-02 0.20001880E+02</pdfrwt>
<totfact> 0.11854886E+06</totfact>
</mgrwt>
</event>
<event>
 5    1  0.4710515E-007  0.2000150E+02  0.7818608E-02  0.1745298E+00
          4   -1    0    0  501    0  0.00000000000E+00  0.00000000000E+00  0.43338959357E+01  0.45605979851E+01  0.14200000000E+01 0. -1.
         -4   -1    0    0    0  501 -0.00000000000E+00 -0.00000000000E+00 -0.22239279604E+02  0.22284567694E+02  0.14200000000E+01 0.  1.
       1023    2    1    2    0    0  0.00000000000E+00  0.00000000000E+00 -0.17905383668E+02  0.26845165679E+02  0.20001503844E+02 0.  0.
        -13    1    3    3    0    0  0.54551888924E+00  0.99852742081E+01 -0.89848657424E+01  0.13444042427E+02  0.10570000000E+00 0. -1.
         13    1    3    3    0    0 -0.54551888924E+00 -0.99852742081E+01 -0.89205179260E+01  0.13401123252E+02  0.10570000000E+00 0.  1.
<mgrwt>
<rscale>  0 0.20001504E+02</rscale>
<asrwt>0</asrwt>
<pdfrwt beam="1">  1        4 0.68767555E-03 0.20001504E+02</pdfrwt>
<pdfrwt beam="2">  1       -4 0.34423499E-02 0.20001504E+02</pdfrwt>
<totfact> 0.12621981E+06</totfact>
</mgrwt>
</event>
<event>
 5    1  0.4710515E-007  0.2000224E+02  0.7818608E-02  0.1745283E+00
          4   -1    0    0  501    0  0.00000000000E+00  0.00000000000E+00  0.14165346048E+02  0.14236341829E+02  0.14200000000E+01 0.  1.
         -4   -1    0    0    0  501 -0.00000000000E+00 -0.00000000000E+00 -0.68999381747E+01  0.70445402132E+01  0.14200000000E+01 0. -1.
       1023    2    1    2    0    0  0.00000000000E+00  0.00000000000E+00  0.72654078736E+01  0.21280882042E+02  0.20002244597E+02 0.  0.
        -13    1    3    3    0    0 -0.11592968790E+01 -0.99329418980E+01  0.36997458662E+01  0.10663329497E+02  0.10570000000E+00 0. -1.
         13    1    3    3    0    0  0.11592968790E+01  0.99329418980E+01  0.35656620074E+01  0.10617552545E+02  0.10570000000E+00 0.  1.
<mgrwt>
<rscale>  0 0.20002245E+02</rscale>
<asrwt>0</asrwt>
<pdfrwt beam="1">  1        4 0.21958685E-02 0.20002245E+02</pdfrwt>
<pdfrwt beam="2">  1       -4 0.10781134E-02 0.20002245E+02</pdfrwt>
<totfact> 0.12935250E+06</totfact>
</mgrwt>
</event>
<event>
 4    1  0.4710515E-007  0.2013934E+02  0.7818608E-02  0.1742571E+00
          4   -1    0    0  501    0  0.00000000000E+00  0.00000000000E+00  0.12785344351E+01  0.19107721742E+01  0.14200000000E+01 0. -1.
         -4   -1    0    0    0  501 -0.00000000000E+00 -0.00000000000E+00 -0.62944530835E+02  0.62960546075E+02  0.14200000000E+01 0.  1.
        -13    1    1    2    0    0  0.53387006113E+01 -0.85203550468E+01 -0.32564208403E+02  0.34081329431E+02  0.10570000000E+00 0. -1.
         13    1    1    2    0    0 -0.53387006113E+01  0.85203550468E+01 -0.29101787997E+02  0.30789988818E+02  0.10570000000E+00 0.  1.
<mgrwt>
<rscale>  0 0.20139335E+02</rscale>
<asrwt>0</asrwt>
<pdfrwt beam="1">  1        4 0.24656327E-03 0.20139335E+02</pdfrwt>
<pdfrwt beam="2">  1       -4 0.97336377E-02 0.20139335E+02</pdfrwt>
<totfact> 0.10784067E+06</totfact>
</mgrwt>
</event>
<event>
 5    1  0.4710515E-007  0.2000227E+02  0.7818608E-02  0.1745283E+00
         -4   -1    0    0    0  501 -0.00000000000E+00  0.00000000000E+00  0.78847777050E+01  0.80116240212E+01  0.14200000000E+01 0. -1.
          4   -1    0    0  501    0  0.00000000000E+00 -0.00000000000E+00 -0.12416685484E+02  0.12497618910E+02  0.14200000000E+01 0.  1.
       1023    2    1    2    0    0  0.00000000000E+00  0.00000000000E+00 -0.45319077792E+01  0.20509242931E+02  0.20002271308E+02 0.  0.
        -13    1    3    3    0    0 -0.28354166266E+01  0.95900104168E+01 -0.22039680367E+01  0.10240924511E+02  0.10570000000E+00 0. -1.
         13    1    3    3    0    0  0.28354166266E+01 -0.95900104168E+01 -0.23279397425E+01  0.10268318420E+02  0.10570000000E+00 0.  1.
<mgrwt>
<rscale>  0 0.20002271E+02</rscale>
<asrwt>0</asrwt>
<pdfrwt beam="2">  1        4 0.19262424E-02 0.20002271E+02</pdfrwt>
<pdfrwt beam="1">  1       -4 0.12290258E-02 0.20002271E+02</pdfrwt>
<totfact> 0.12980766E+06</totfact>
</mgrwt>
</event>
<event>
 4    1  0.4710515E-007  0.2002395E+02  0.7818608E-02  0.1744852E+00
         -4   -1    0    0    0  501 -0.00000000000E+00  0.00000000000E+00  0.81451467071E+01  0.82679994484E+01  0.14200000000E+01 0.  1.
          4   -1    0    0  501    0  0.00000000000E+00 -0.00000000000E+00 -0.12049705535E+02  0.12133087137E+02  0.14200000000E+01 0. -1.
        -13    1    1    2    0    0 -0.86270956223E+01 -0.50757295180E+01 -0.21527259255E+01  0.10238906700E+02  0.10570000000E+00 0.  1.
         13    1    1    2    0    0  0.86270956223E+01  0.50757295180E+01 -0.17518329025E+01  0.10162179886E+02  0.10570000000E+00 0. -1.
<mgrwt>
<rscale>  0 0.20023955E+02</rscale>
<asrwt>0</asrwt>
<pdfrwt beam="2">  1        4 0.18696650E-02 0.20023955E+02</pdfrwt>
<pdfrwt beam="1">  1       -4 0.12689637E-02 0.20023955E+02</pdfrwt>
<totfact> 0.12958481E+06</totfact>
</mgrwt>
</event>
<event>
 4    1  0.4710515E-007  0.2003379E+02  0.7818608E-02  0.1744657E+00
         -4   -1    0    0    0  501 -0.00000000000E+00  0.00000000000E+00  0.48318077789E+01  0.50361459880E+01  0.14200000000E+01 0.  1.
          4   -1    0    0  501    0  0.00000000000E+00 -0.00000000000E+00 -0.20106270246E+02  0.20156351435E+02  0.14200000000E+01 0. -1.
        -13    1    1    2    0    0 -0.83667321448E+01 -0.54972667051E+01 -0.80444365601E+01  0.12843141363E+02  0.10570000000E+00 0. -1.
         13    1    1    2    0    0  0.83667321448E+01  0.54972667051E+01 -0.72300259066E+01  0.12349356060E+02  0.10570000000E+00 0.  1.
<mgrwt>
<rscale>  0 0.20033790E+02</rscale>
<asrwt>0</asrwt>
<pdfrwt beam="2">  1        4 0.31128430E-02 0.20033790E+02</pdfrwt>
<pdfrwt beam="1">  1       -4 0.76292578E-03 0.20033790E+02</pdfrwt>
<totfact> 0.12671228E+06</totfact>
</mgrwt>
</event>
<event>
 4    1  0.4710515E-007  0.2017566E+02  0.7818608E-02  0.1741857E+00
          4   -1    0    0  501    0  0.00000000000E+00  0.00000000000E+00  0.33178854982E+01  0.36089838153E+01  0.14200000000E+01 0. -1.
         -4   -1    0    0    0  501 -0.00000000000E+00 -0.00000000000E+00 -0.29073315531E+02  0.29107972721E+02  0.14200000000E+01 0.  1.
        -13    1    1    2    0    0  0.47894042311E+01  0.88777642934E+01 -0.12880518020E+02  0.16360684848E+02  0.10570000000E+00 0. -1.
         13    1    1    2    0    0 -0.47894042311E+01 -0.88777642934E+01 -0.12874912012E+02  0.16356271689E+02  0.10570000000E+00 0.  1.
<mgrwt>
<rscale>  0 0.20175655E+02</rscale>
<asrwt>0</asrwt>
<pdfrwt beam="1">  1        4 0.53550206E-03 0.20175655E+02</pdfrwt>
<pdfrwt beam="2">  1       -4 0.44978757E-02 0.20175655E+02</pdfrwt>
<totfact> 0.12099097E+06</totfact>
</mgrwt>
</event>
<event>
 4    1  0.4710515E-007  0.2001742E+02  0.7818608E-02  0.1744982E+00
         -4   -1    0    0    0  501 -0.00000000000E+00  0.00000000000E+00  0.27657582890E+02  0.27694011832E+02  0.14200000000E+01 0. -1.
          4   -1    0    0  501    0  0.00000000000E+00 -0.00000000000E+00 -0.34423508539E+01  0.37237319185E+01  0.14200000000E+01 0.  1.
        -13    1    1    2    0    0 -0.10005202519E+02 -0.13427813050E+00  0.11789776059E+02  0.15463896665E+02  0.10570000000E+00 0. -1.
         13    1    1    2    0    0  0.10005202519E+02  0.13427813050E+00  0.12425455978E+02  0.15953847085E+02  0.10570000000E+00 0.  1.
<mgrwt>
<rscale>  0 0.20017421E+02</rscale>
<asrwt>0</asrwt>
<pdfrwt beam="2">  1        4 0.55403938E-03 0.20017421E+02</pdfrwt>
<pdfrwt beam="1">  1       -4 0.42794595E-02 0.20017421E+02</pdfrwt>
<totfact> 0.12360431E+06</totfact>
</mgrwt>
</event>
<event>
 4    1  0.4710515E-007  0.2001899E+02  0.7818608E-02  0.1744951E+00
         -4   -1    0    0    0  501 -0.00000000000E+00  0.00000000000E+00  0.66813189849E+02  0.66828277980E+02  0.14200000000E+01 0.  1.
          4   -1    0    0  501    0  0.00000000000E+00 -0.00000000000E+00 -0.11446276880E+01  0.18238894002E+01  0.14200000000E+01 0. -1.
        -13    1    1    2    0    0  0.66800913395E+00  0.99830786747E+01  0.33746378545E+02  0.35198541637E+02  0.10570000000E+00 0. -1.
         13    1    1    2    0    0 -0.66800913395E+00 -0.99830786747E+01  0.31922183617E+02  0.33453625743E+02  0.10570000000E+00 0.  1.
<mgrwt>
<rscale>  0 0.20018992E+02</rscale>
<asrwt>0</asrwt>
<pdfrwt beam="2">  1        4 0.22950813E-03 0.20018992E+02</pdfrwt>
<pdfrwt beam="1">  1       -4 0.10332362E-01 0.20018992E+02</pdfrwt>
<totfact> 0.10778085E+06</totfact>
</mgrwt>
</event>
<event>
 4    1  0.4710515E-007  0.2009568E+02  0.7818608E-02  0.1743432E+00
         -4   -1    0    0    0  501 -0.00000000000E+00  0.00000000000E+00  0.94318094324E+00  0.17046965395E+01  0.14200000000E+01 0. -1.
          4   -1    0    0  501    0  0.00000000000E+00 -0.00000000000E+00 -0.75486494087E+02  0.75499848937E+02  0.14200000000E+01 0.  1.
        -13    1    1    2    0    0  0.94390392821E+01 -0.34417009359E+01 -0.37596208917E+02  0.38915637800E+02  0.10570000000E+00 0.  1.
         13    1    1    2    0    0 -0.94390392821E+01  0.34417009359E+01 -0.36947104227E+02  0.38288907677E+02  0.10570000000E+00 0. -1.
<mgrwt>
<rscale>  0 0.20095679E+02</rscale>
<asrwt>0</asrwt>
<pdfrwt beam="2">  1        4 0.11672909E-01 0.20095679E+02</pdfrwt>
<pdfrwt beam="1">  1       -4 0.20471024E-03 0.20095679E+02</pdfrwt>
<totfact> 0.10403485E+06</totfact>
</mgrwt>
</event>
<event>
 5    1  0.4710515E-007  0.2000655E+02  0.7818608E-02  0.1745198E+00
         -4   -1    0    0    0  501 -0.00000000000E+00  0.00000000000E+00  0.79999806823E+02  0.80012408361E+02  0.14200000000E+01 0.  1.
          4   -1    0    0  501    0  0.00000000000E+00 -0.00000000000E+00 -0.83093032256E+00  0.16452492823E+01  0.14200000000E+01 0. -1.
       1023    2    1    2    0    0  0.00000000000E+00  0.00000000000E+00  0.79168876501E+02  0.81657657644E+02  0.20006550063E+02 0.  0.
        -13    1    3    3    0    0 -0.30859806967E+01  0.95128901364E+01  0.40358677149E+02  0.41579470287E+02  0.10570000000E+00 0. -1.
         13    1    3    3    0    0  0.30859806967E+01 -0.95128901364E+01  0.38810199352E+02  0.40078187357E+02  0.10570000000E+00 0.  1.
<mgrwt>
<rscale>  0 0.20006550E+02</rscale>
<asrwt>0</asrwt>
<pdfrwt beam="2">  1        4 0.19144470E-03 0.20006550E+02</pdfrwt>
<pdfrwt beam="1">  1       -4 0.12371272E-01 0.20006550E+02</pdfrwt>
<totfact> 0.10350523E+06</totfact>
</mgrwt>
</event>
<event>
 5    1  0.4710515E-007  0.2000290E+02  0.7818608E-02  0.1745270E+00
          4   -1    0    0  501    0  0.00000000000E+00  0.00000000000E+00  0.15920052180E+01  0.21332793099E+01  0.14200000000E+01 0.  1.
         -4   -1    0    0    0  501 -0.00000000000E+00 -0.00000000000E+00 -0.53150594123E+02  0.53169559483E+02  0.14200000000E+01 0. -1.
       1023    2    1    2    0    0  0.00000000000E+00  0.00000000000E+00 -0.51558588905E+02  0.55302838793E+02  0.20002897008E+02 0.  0.
        -13    1    3    3    0    0 -0.81355964366E+01 -0.58151400542E+01 -0.26106615278E+02  0.27956579136E+02  0.10570000000E+00 0. -1.
         13    1    3    3    0    0  0.81355964366E+01  0.58151400542E+01 -0.25451973628E+02  0.27346259658E+02  0.10570000000E+00 0.  1.
<mgrwt>
<rscale>  0 0.20002897E+02</rscale>
<asrwt>0</asrwt>
<pdfrwt beam="1">  1        4 0.28801926E-03 0.20002897E+02</pdfrwt>
<pdfrwt beam="2">  1       -4 0.82201086E-02 0.20002897E+02</pdfrwt>
<totfact> 0.11299485E+06</totfact>
</mgrwt>
</event>
<event>
 5    1  0.4710515E-007  0.2000504E+02  0.7818608E-02  0.1745228E+00
         -4   -1    0    0    0  501 -0.00000000000E+00  0.00000000000E+00  0.23679139977E+01  0.27610535490E+01  0.14200000000E+01 0.  1.
          4   -1    0    0  501    0  0.00000000000E+00 -0.00000000000E+00 -0.38606675866E+02  0.38632781694E+02  0.14200000000E+01 0. -1.
       1023    2    1    2    0    0  0.00000000000E+00  0.00000000000E+00 -0.36238761868E+02  0.41393835243E+02  0.20005042724E+02 0.  0.
        -13    1    3    3    0    0 -0.92654463565E+01 -0.37665469303E+01 -0.18248420568E+02  0.20809887018E+02  0.10570000000E+00 0.  1.
         13    1    3    3    0    0  0.92654463565E+01  0.37665469303E+01 -0.17990341300E+02  0.20583948225E+02  0.10570000000E+00 0. -1.
<mgrwt>
<rscale>  0 0.20005043E+02</rscale>
<asrwt>0</asrwt>
<pdfrwt beam="2">  1        4 0.59717378E-02 0.20005043E+02</pdfrwt>
<pdfrwt beam="1">  1       -4 0.39654413E-03 0.20005043E+02</pdfrwt>
<totfact> 0.11892157E+06</totfact>
</mgrwt>
</event>
<event>
 5    1  0.4710515E-007  0.2001022E+02  0.7818608E-02  0.1745125E+00
         -4   -1    0    0    0  501 -0.00000000000E+00  0.00000000000E+00  0.48376596447E+01  0.50417606883E+01  0.14200000000E+01 0. -1.
          4   -1    0    0  501    0  0.00000000000E+00 -0.00000000000E+00 -0.20035044215E+02  0.20085303003E+02  0.14200000000E+01 0.  1.
       1023    2    1    2    0    0  0.00000000000E+00  0.00000000000E+00 -0.15197384571E+02  0.25127063691E+02  0.20010218188E+02 0.  0.
        -13    1    3    3    0    0  0.76350046628E+01 -0.64621751050E+01 -0.78435792619E+01  0.12711644717E+02  0.10570000000E+00 0.  1.
         13    1    3    3    0    0 -0.76350046628E+01  0.64621751050E+01 -0.73538053089E+01  0.12415418974E+02  0.10570000000E+00 0. -1.
<mgrwt>
<rscale>  0 0.20010218E+02</rscale>
<asrwt>0</asrwt>
<pdfrwt beam="2">  1        4 0.31018806E-02 0.20010218E+02</pdfrwt>
<pdfrwt beam="1">  1       -4 0.76382148E-03 0.20010218E+02</pdfrwt>
<totfact> 0.12705288E+06</totfact>
</mgrwt>
</event>
<event>
 5    1  0.4710515E-007  0.2000202E+02  0.7818608E-02  0.1745288E+00
          4   -1    0    0  501    0  0.00000000000E+00  0.00000000000E+00  0.35690718742E+00  0.14641662270E+01  0.14200000000E+01 0. -1.
         -4   -1    0    0    0  501 -0.00000000000E+00 -0.00000000000E+00 -0.10873285299E+03  0.10874212486E+03  0.14200000000E+01 0.  1.
       1023    2    1    2    0    0  0.00000000000E+00  0.00000000000E+00 -0.10837594580E+03  0.11020629109E+03  0.20002024069E+02 0.  0.
        -13    1    3    3    0    0  0.23090167434E+00 -0.99976256389E+01 -0.54501362407E+02  0.55411330166E+02  0.10570000000E+00 0. -1.
         13    1    3    3    0    0 -0.23090167434E+00  0.99976256389E+01 -0.53874583396E+02  0.54794960923E+02  0.10570000000E+00 0.  1.
<mgrwt>
<rscale>  0 0.20002024E+02</rscale>
<asrwt>0</asrwt>
<pdfrwt beam="1">  1        4 0.14079588E-03 0.20002024E+02</pdfrwt>
<pdfrwt beam="2">  1       -4 0.16814008E-01 0.20002024E+02</pdfrwt>
<totfact> 0.95178689E+05</totfact>
</mgrwt>
</event>
<event>
 4    1  0.4710515E-007  0.2001437E+02  0.7818608E-02  0.1745042E+00
         -4   -1    0    0    0  501 -0.00000000000E+00  0.00000000000E+00  0.20805272680E+01  0.25189270956E+01  0.14200000000E+01 0.  1.
          4   -1    0    0  501    0  0.00000000000E+00 -0.00000000000E+00 -0.43094727460E+02  0.43118116087E+02  0.14200000000E+01 0. -1.
        -13    1    1    2    0    0  0.66113389388E+01  0.75114618626E+01 -0.20569081987E+02  0.22874224974E+02  0.10570000000E+00 0. -1.
         13    1    1    2    0    0 -0.66113389388E+01 -0.75114618626E+01 -0.20445118205E+02  0.22762818208E+02  0.10570000000E+00 0.  1.
<mgrwt>
<rscale>  0 0.20014372E+02</rscale>
<asrwt>0</asrwt>
<pdfrwt beam="2">  1        4 0.66654796E-02 0.20014372E+02</pdfrwt>
<pdfrwt beam="1">  1       -4 0.35560334E-03 0.20014372E+02</pdfrwt>
<totfact> 0.11690751E+06</totfact>
</mgrwt>
</event>
<event>
 4    1  0.4710515E-007  0.2003208E+02  0.7818608E-02  0.1744691E+00
          4   -1    0    0  501    0  0.00000000000E+00  0.00000000000E+00  0.80157912484E+01  0.81405963748E+01  0.14200000000E+01 0.  1.
         -4   -1    0    0    0  501 -0.00000000000E+00 -0.00000000000E+00 -0.12252616877E+02  0.12334626882E+02  0.14200000000E+01 0. -1.
        -13    1    1    2    0    0  0.94855842615E+01  0.32028094733E+01 -0.23993554515E+01  0.10295745547E+02  0.10570000000E+00 0.  1.
         13    1    1    2    0    0 -0.94855842615E+01 -0.32028094733E+01 -0.18374701769E+01  0.10179477710E+02  0.10570000000E+00 0. -1.
<mgrwt>
<rscale>  0 0.20032076E+02</rscale>
<asrwt>0</asrwt>
<pdfrwt beam="1">  1        4 0.12491075E-02 0.20032076E+02</pdfrwt>
<pdfrwt beam="2">  1       -4 0.19009268E-02 0.20032076E+02</pdfrwt>
<totfact> 0.12943376E+06</totfact>
</mgrwt>
</event>
<event>
 5    1  0.4710515E-007  0.2000238E+02  0.7818608E-02  0.1745281E+00
          4   -1    0    0  501    0  0.00000000000E+00  0.00000000000E+00  0.21325583361E+01  0.25620704629E+01  0.14200000000E+01 0. -1.
         -4   -1    0    0    0  501 -0.00000000000E+00 -0.00000000000E+00 -0.42169457384E+02  0.42193358910E+02  0.14200000000E+01 0.  1.
       1023    2    1    2    0    0  0.00000000000E+00  0.00000000000E+00 -0.40036899048E+02  0.44755429373E+02  0.20002379182E+02 0.  0.
        -13    1    3    3    0    0  0.22187773645E+01 -0.97507470579E+01 -0.20269405095E+02  0.22602212205E+02  0.10570000000E+00 0.  1.
         13    1    3    3    0    0 -0.22187773645E+01  0.97507470579E+01 -0.19767493953E+02  0.22153217167E+02  0.10570000000E+00 0. -1.
<mgrwt>
<rscale>  0 0.20002379E+02</rscale>
<asrwt>0</asrwt>
<pdfrwt beam="1">  1        4 0.36296390E-03 0.20002379E+02</pdfrwt>
<pdfrwt beam="2">  1       -4 0.65224862E-02 0.20002379E+02</pdfrwt>
<totfact> 0.11743812E+06</totfact>
</mgrwt>
</event>
<event>
 5    1  0.4710515E-007  0.2000599E+02  0.7818608E-02  0.1745209E+00
          4   -1    0    0  501    0  0.00000000000E+00  0.00000000000E+00  0.39245200844E+01  0.41735186465E+01  0.14200000000E+01 0.  1.
         -4   -1    0    0    0  501 -0.00000000000E+00 -0.00000000000E+00 -0.24441902195E+02  0.24483116283E+02  0.14200000000E+01 0. -1.
       1023    2    1    2    0    0  0.00000000000E+00  0.00000000000E+00 -0.20517382111E+02  0.28656634930E+02  0.20005993022E+02 0.  0.
        -13    1    3    3    0    0  0.35660543850E+01  0.93444440558E+01 -0.10424430121E+02  0.14446982191E+02  0.10570000000E+00 0.  1.
         13    1    3    3    0    0 -0.35660543850E+01 -0.93444440558E+01 -0.10092951990E+02  0.14209652739E+02  0.10570000000E+00 0. -1.
<mgrwt>
<rscale>  0 0.20005993E+02</rscale>
<asrwt>0</asrwt>
<pdfrwt beam="1">  1        4 0.62609639E-03 0.20005993E+02</pdfrwt>
<pdfrwt beam="2">  1       -4 0.37826166E-02 0.20005993E+02</pdfrwt>
<totfact> 0.12518880E+06</totfact>
</mgrwt>
</event>
<event>
 4    1  0.5040201E-007  0.2037562E+02  0.7818608E-02  0.1737960E+00
         -4   -1    0    0    0  501 -0.00000000000E+00  0.00000000000E+00  0.10765563699E+02  0.10858810329E+02  0.14200000000E+01 0. -1.
          4   -1    0    0  501    0  0.00000000000E+00 -0.00000000000E+00 -0.94529852674E+01  0.95590444327E+01  0.14200000000E+01 0.  1.
        -13    1    1    2    0    0  0.22047042915E+01 -0.98534623453E+01  0.20114491739E+01  0.10296044943E+02  0.10570000000E+00 0.  1.
         13    1    1    2    0    0 -0.22047042915E+01  0.98534623453E+01 -0.69887074185E+00  0.10121809819E+02  0.10570000000E+00 0. -1.
<mgrwt>
<rscale>  0 0.20375621E+02</rscale>
<asrwt>0</asrwt>
<pdfrwt beam="2">  1        4 0.14696366E-02 0.20375621E+02</pdfrwt>
<pdfrwt beam="1">  1       -4 0.16715718E-02 0.20375621E+02</pdfrwt>
<totfact> 0.12502994E+06</totfact>
</mgrwt>
</event>
<event>
 5    1  0.4859963E-007  0.2000474E+02  0.7818608E-02  0.1745234E+00
         -4   -1    0    0    0  501 -0.00000000000E+00  0.00000000000E+00  0.13870106223E+02  0.13942605446E+02  0.14200000000E+01 0.  1.
          4   -1    0    0  501    0  0.00000000000E+00 -0.00000000000E+00 -0.70509013065E+01  0.71924689248E+01  0.14200000000E+01 0. -1.
       1023    2    1    2    0    0  0.00000000000E+00  0.00000000000E+00  0.68192049160E+01  0.21135074371E+02  0.20004744762E+02 0.  0.
        -13    1    3    3    0    0  0.41441916353E+01 -0.91014040981E+01  0.35812635196E+01  0.10622923409E+02  0.10570000000E+00 0.  1.
         13    1    3    3    0    0 -0.41441916353E+01  0.91014040981E+01  0.32379413964E+01  0.10512150962E+02  0.10570000000E+00 0. -1.
<mgrwt>
<rscale>  0 0.20004745E+02</rscale>
<asrwt>0</asrwt>
<pdfrwt beam="2">  1        4 0.11012207E-02 0.20004745E+02</pdfrwt>
<pdfrwt beam="1">  1       -4 0.21503291E-02 0.20004745E+02</pdfrwt>
<totfact> 0.12940522E+06</totfact>
</mgrwt>
</event>
<event>
 5    1  0.4710515E-007  0.2000249E+02  0.7818608E-02  0.1745279E+00
          4   -1    0    0  501    0  0.00000000000E+00  0.00000000000E+00  0.73295157762E+02  0.73308911814E+02  0.14200000000E+01 0.  1.
         -4   -1    0    0    0  501 -0.00000000000E+00 -0.00000000000E+00 -0.97757392217E+00  0.17239636810E+01  0.14200000000E+01 0. -1.
       1023    2    1    2    0    0  0.00000000000E+00  0.00000000000E+00  0.72317583839E+02  0.75032875495E+02  0.20002486661E+02 0.  0.
        -13    1    3    3    0    0 -0.97217021519E+01  0.23451135564E+01  0.36351725785E+02  0.37702389717E+02  0.10570000000E+00 0.  1.
         13    1    3    3    0    0  0.97217021519E+01 -0.23451135564E+01  0.35965858054E+02  0.37330485778E+02  0.10570000000E+00 0. -1.
<mgrwt>
<rscale>  0 0.20002487E+02</rscale>
<asrwt>0</asrwt>
<pdfrwt beam="1">  1        4 0.11334656E-01 0.20002487E+02</pdfrwt>
<pdfrwt beam="2">  1       -4 0.20886849E-03 0.20002487E+02</pdfrwt>
<totfact> 0.10573960E+06</totfact>
</mgrwt>
</event>
<event>
 4    1  0.4710515E-007  0.2001445E+02  0.7818608E-02  0.1745041E+00
         -4   -1    0    0    0  501 -0.00000000000E+00  0.00000000000E+00  0.36239174050E+02  0.36266984102E+02  0.14200000000E+01 0. -1.
          4   -1    0    0  501    0  0.00000000000E+00 -0.00000000000E+00 -0.25501431471E+01  0.29188405353E+01  0.14200000000E+01 0.  1.
        -13    1    1    2    0    0  0.51530941950E+01 -0.85776745328E+01  0.16747414601E+02  0.19509432295E+02  0.10570000000E+00 0. -1.
         13    1    1    2    0    0 -0.51530941950E+01  0.85776745328E+01  0.16941616302E+02  0.19676392342E+02  0.10570000000E+00 0.  1.
<mgrwt>
<rscale>  0 0.20014446E+02</rscale>
<asrwt>0</asrwt>
<pdfrwt beam="2">  1        4 0.42283033E-03 0.20014446E+02</pdfrwt>
<pdfrwt beam="1">  1       -4 0.56057576E-02 0.20014446E+02</pdfrwt>
<totfact> 0.11983142E+06</totfact>
</mgrwt>
</event>
<event>
 5    1  0.4710515E-007  0.2000207E+02  0.7818608E-02  0.1745287E+00
          4   -1    0    0  501    0  0.00000000000E+00  0.00000000000E+00  0.28221012932E+01  0.31592175786E+01  0.14200000000E+01 0.  1.
         -4   -1    0    0    0  501 -0.00000000000E+00 -0.00000000000E+00 -0.33091160064E+02  0.33121613402E+02  0.14200000000E+01 0. -1.
       1023    2    1    2    0    0  0.00000000000E+00  0.00000000000E+00 -0.30269058771E+02  0.36280830981E+02  0.20002069338E+02 0.  0.
        -13    1    3    3    0    0  0.87095611675E+00 -0.99624619931E+01 -0.15166385178E+02  0.18166992745E+02  0.10570000000E+00 0.  1.
         13    1    3    3    0    0 -0.87095611675E+00  0.99624619931E+01 -0.15102673592E+02  0.18113838236E+02  0.10570000000E+00 0. -1.
<mgrwt>
<rscale>  0 0.20002069E+02</rscale>
<asrwt>0</asrwt>
<pdfrwt beam="1">  1        4 0.46244404E-03 0.20002069E+02</pdfrwt>
<pdfrwt beam="2">  1       -4 0.51192220E-02 0.20002069E+02</pdfrwt>
<totfact> 0.12136812E+06</totfact>
</mgrwt>
</event>
<event>
 5    1  0.4710515E-007  0.2000151E+02  0.7818608E-02  0.1745298E+00
          4   -1    0    0  501    0  0.00000000000E+00  0.00000000000E+00  0.49814323588E+01  0.51798714603E+01  0.14200000000E+01 0.  1.
         -4   -1    0    0    0  501 -0.00000000000E+00 -0.00000000000E+00 -0.19460671823E+02  0.19512410097E+02  0.14200000000E+01 0. -1.
       1023    2    1    2    0    0  0.00000000000E+00  0.00000000000E+00 -0.14479239464E+02  0.24692281557E+02  0.20001509769E+02 0.  0.
        -13    1    3    3    0    0 -0.93807829793E+01 -0.34644605446E+01 -0.72994602777E+01  0.12381230513E+02  0.10570000000E+00 0. -1.
         13    1    3    3    0    0  0.93807829793E+01  0.34644605446E+01 -0.71797791860E+01  0.12311051045E+02  0.10570000000E+00 0.  1.
<mgrwt>
<rscale>  0 0.20001510E+02</rscale>
<asrwt>0</asrwt>
<pdfrwt beam="1">  1        4 0.78561863E-03 0.20001510E+02</pdfrwt>
<pdfrwt beam="2">  1       -4 0.30131939E-02 0.20001510E+02</pdfrwt>
<totfact> 0.12740849E+06</totfact>
</mgrwt>
</event>
<event>
 5    1  0.4710515E-007  0.2000192E+02  0.7818608E-02  0.1745290E+00
         -4   -1    0    0    0  501 -0.00000000000E+00  0.00000000000E+00  0.18728536211E+01  0.23503150184E+01  0.14200000000E+01 0. -1.
          4   -1    0    0  501    0  0.00000000000E+00 -0.00000000000E+00 -0.46877493448E+02  0.46898995639E+02  0.14200000000E+01 0.  1.
       1023    2    1    2    0    0  0.00000000000E+00  0.00000000000E+00 -0.45004639826E+02  0.49249310657E+02  0.20001924765E+02 0.  0.
        -13    1    3    3    0    0  0.12457143741E+01 -0.99224755851E+01 -0.22434886981E+02  0.24563034266E+02  0.10570000000E+00 0. -1.
         13    1    3    3    0    0 -0.12457143741E+01  0.99224755851E+01 -0.22569752846E+02  0.24686276391E+02  0.10570000000E+00 0.  1.
<mgrwt>
<rscale>  0 0.20001925E+02</rscale>
<asrwt>0</asrwt>
<pdfrwt beam="2">  1        4 0.72503031E-02 0.20001925E+02</pdfrwt>
<pdfrwt beam="1">  1       -4 0.32651318E-03 0.20001925E+02</pdfrwt>
<totfact> 0.11549661E+06</totfact>
</mgrwt>
</event>
<event>
 5    1  0.4710515E-007  0.2000170E+02  0.7818608E-02  0.1745294E+00
         -4   -1    0    0    0  501 -0.00000000000E+00  0.00000000000E+00  0.73008149086E+01  0.74376271975E+01  0.14200000000E+01 0.  1.
          4   -1    0    0  501    0  0.00000000000E+00 -0.00000000000E+00 -0.13397580414E+02  0.13472622646E+02  0.14200000000E+01 0. -1.
       1023    2    1    2    0    0  0.00000000000E+00  0.00000000000E+00 -0.60967655055E+01  0.20910249843E+02  0.20001699900E+02 0.  0.
        -13    1    3    3    0    0 -0.45655330236E+01  0.88972790192E+01 -0.30350975609E+01  0.10451251381E+02  0.10570000000E+00 0.  1.
         13    1    3    3    0    0  0.45655330236E+01 -0.88972790192E+01 -0.30616679446E+01  0.10458998462E+02  0.10570000000E+00 0. -1.
<mgrwt>
<rscale>  0 0.20001700E+02</rscale>
<asrwt>0</asrwt>
<pdfrwt beam="2">  1        4 0.20774627E-02 0.20001700E+02</pdfrwt>
<pdfrwt beam="1">  1       -4 0.11394988E-02 0.20001700E+02</pdfrwt>
<totfact> 0.12957804E+06</totfact>
</mgrwt>
</event>
<event>
 4    1  0.4710515E-007  0.2005193E+02  0.7818608E-02  0.1744297E+00
          4   -1    0    0  501    0  0.00000000000E+00  0.00000000000E+00  0.30420264753E+01  0.33571304825E+01  0.14200000000E+01 0.  1.
         -4   -1    0    0    0  501 -0.00000000000E+00 -0.00000000000E+00 -0.31084525189E+02  0.31116942431E+02  0.14200000000E+01 0. -1.
        -13    1    1    2    0    0 -0.87501583348E+01  0.48910875358E+01 -0.13773227855E+02  0.17035286502E+02  0.10570000000E+00 0.  1.
         13    1    1    2    0    0  0.87501583348E+01 -0.48910875358E+01 -0.14269270859E+02  0.17438786411E+02  0.10570000000E+00 0. -1.
<mgrwt>
<rscale>  0 0.20051932E+02</rscale>
<asrwt>0</asrwt>
<pdfrwt beam="1">  1        4 0.49473650E-03 0.20051932E+02</pdfrwt>
<pdfrwt beam="2">  1       -4 0.48089668E-02 0.20051932E+02</pdfrwt>
<totfact> 0.12163811E+06</totfact>
</mgrwt>
</event>
<event>
 5    1  0.4710515E-007  0.2000114E+02  0.7818608E-02  0.1745305E+00
         -4   -1    0    0    0  501 -0.00000000000E+00  0.00000000000E+00  0.25043758376E+02  0.25083983607E+02  0.14200000000E+01 0. -1.
          4   -1    0    0  501    0  0.00000000000E+00 -0.00000000000E+00 -0.38223112833E+01  0.40775560752E+01  0.14200000000E+01 0.  1.
       1023    2    1    2    0    0  0.00000000000E+00  0.00000000000E+00  0.21221447093E+02  0.29161539682E+02  0.20001139466E+02 0.  0.
        -13    1    3    3    0    0  0.69322899315E+01 -0.72071868901E+01  0.10619463010E+02  0.14587129727E+02  0.10570000000E+00 0.  1.
         13    1    3    3    0    0 -0.69322899315E+01  0.72071868901E+01  0.10601984083E+02  0.14574409955E+02  0.10570000000E+00 0. -1.
<mgrwt>
<rscale>  0 0.20001139E+02</rscale>
<asrwt>0</asrwt>
<pdfrwt beam="2">  1        4 0.61077634E-03 0.20001139E+02</pdfrwt>
<pdfrwt beam="1">  1       -4 0.38756144E-02 0.20001139E+02</pdfrwt>
<totfact> 0.12498320E+06</totfact>
</mgrwt>
</event>
<event>
 5    1  0.4710515E-007  0.2000310E+02  0.7818608E-02  0.1745267E+00
         -4   -1    0    0    0  501 -0.00000000000E+00  0.00000000000E+00  0.71643528185E+01  0.73037217436E+01  0.14200000000E+01 0.  1.
          4   -1    0    0  501    0  0.00000000000E+00 -0.00000000000E+00 -0.13651267708E+02  0.13724922952E+02  0.14200000000E+01 0. -1.
       1023    2    1    2    0    0  0.00000000000E+00  0.00000000000E+00 -0.64869148892E+01  0.21028644695E+02  0.20003095584E+02 0.  0.
        -13    1    3    3    0    0  0.82629194333E+01 -0.56325555670E+01 -0.33855382546E+01  0.10558151426E+02  0.10570000000E+00 0.  1.
         13    1    3    3    0    0 -0.82629194333E+01  0.56325555670E+01 -0.31013766346E+01  0.10470493269E+02  0.10570000000E+00 0. -1.
<mgrwt>
<rscale>  0 0.20003096E+02</rscale>
<asrwt>0</asrwt>
<pdfrwt beam="2">  1        4 0.21165815E-02 0.20003096E+02</pdfrwt>
<pdfrwt beam="1">  1       -4 0.11185946E-02 0.20003096E+02</pdfrwt>
<totfact> 0.12948970E+06</totfact>
</mgrwt>
</event>
<event>
 5    1  0.4901229E-007  0.2000126E+02  0.7818608E-02  0.1745303E+00
          4   -1    0    0  501    0  0.00000000000E+00  0.00000000000E+00  0.81546314930E+01  0.82773434619E+01  0.14200000000E+01 0. -1.
         -4   -1    0    0    0  501 -0.00000000000E+00 -0.00000000000E+00 -0.12008060808E+02  0.12091729585E+02  0.14200000000E+01 0.  1.
       1023    2    1    2    0    0  0.00000000000E+00  0.00000000000E+00 -0.38534293148E+01  0.20369073047E+02  0.20001255444E+02 0.  0.
        -13    1    3    3    0    0  0.18052530458E+01 -0.98357075583E+01 -0.18899875229E+01  0.10177588470E+02  0.10570000000E+00 0.  1.
         13    1    3    3    0    0 -0.18052530458E+01  0.98357075583E+01 -0.19634417920E+01  0.10191484577E+02  0.10570000000E+00 0. -1.
<mgrwt>
<rscale>  0 0.20001255E+02</rscale>
<asrwt>0</asrwt>
<pdfrwt beam="1">  1        4 0.12704341E-02 0.20001255E+02</pdfrwt>
<pdfrwt beam="2">  1       -4 0.18632694E-02 0.20001255E+02</pdfrwt>
<totfact> 0.12990420E+06</totfact>
</mgrwt>
</event>
<event>
 5    1  0.4710515E-007  0.2001165E+02  0.7818608E-02  0.1745096E+00
          4   -1    0    0  501    0  0.00000000000E+00  0.00000000000E+00  0.77121732079E+01  0.78418120093E+01  0.14200000000E+01 0.  1.
         -4   -1    0    0    0  501 -0.00000000000E+00 -0.00000000000E+00 -0.12703902766E+02  0.12783017855E+02  0.14200000000E+01 0. -1.
       1023    2    1    2    0    0  0.00000000000E+00  0.00000000000E+00 -0.49917295580E+01  0.20624829864E+02  0.20011652679E+02 0.  0.
        -13    1    3    3    0    0  0.30652699093E+01  0.95240016623E+01 -0.24403537806E+01  0.10298979869E+02  0.10570000000E+00 0. -1.
         13    1    3    3    0    0 -0.30652699093E+01 -0.95240016623E+01 -0.25513757775E+01  0.10325849995E+02  0.10570000000E+00 0.  1.
<mgrwt>
<rscale>  0 0.20011653E+02</rscale>
<asrwt>0</asrwt>
<pdfrwt beam="1">  1        4 0.12025462E-02 0.20011653E+02</pdfrwt>
<pdfrwt beam="2">  1       -4 0.19705046E-02 0.20011653E+02</pdfrwt>
<totfact> 0.12961521E+06</totfact>
</mgrwt>
</event>
<event>
 5    1  0.4710515E-007  0.2000201E+02  0.7818608E-02  0.1745288E+00
          4   -1    0    0  501    0  0.00000000000E+00  0.00000000000E+00  0.24719653961E+02  0.24760405731E+02  0.14200000000E+01 0.  1.
         -4   -1    0    0    0  501 -0.00000000000E+00 -0.00000000000E+00 -0.38760268771E+01  0.41279515927E+01  0.14200000000E+01 0. -1.
       1023    2    1    2    0    0  0.00000000000E+00  0.00000000000E+00  0.20843627084E+02  0.28888357323E+02  0.20002009870E+02 0.  0.
        -13    1    3    3    0    0  0.93182117282E+01 -0.36304068819E+01  0.10419198268E+02  0.14442291680E+02  0.10570000000E+00 0.  1.
         13    1    3    3    0    0 -0.93182117282E+01  0.36304068819E+01  0.10424428816E+02  0.14446065643E+02  0.10570000000E+00 0. -1.
<mgrwt>
<rscale>  0 0.20002010E+02</rscale>
<asrwt>0</asrwt>
<pdfrwt beam="1">  1        4 0.38255373E-02 0.20002010E+02</pdfrwt>
<pdfrwt beam="2">  1       -4 0.61882540E-03 0.20002010E+02</pdfrwt>
<totfact> 0.12511658E+06</totfact>
</mgrwt>
</event>
<event>
 5    1  0.4710515E-007  0.2000253E+02  0.7818608E-02  0.1745278E+00
          4   -1    0    0  501    0  0.00000000000E+00  0.00000000000E+00  0.15343997076E+02  0.15409563468E+02  0.14200000000E+01 0.  1.
         -4   -1    0    0    0  501 -0.00000000000E+00 -0.00000000000E+00 -0.63609384271E+01  0.65175100823E+01  0.14200000000E+01 0. -1.
       1023    2    1    2    0    0  0.00000000000E+00  0.00000000000E+00  0.89830586489E+01  0.21927073550E+02  0.20002530135E+02 0.  0.
        -13    1    3    3    0    0 -0.23450823488E+01 -0.97218191375E+01  0.44577081029E+01  0.10949680935E+02  0.10570000000E+00 0.  1.
         13    1    3    3    0    0  0.23450823488E+01  0.97218191375E+01  0.45253505460E+01  0.10977392615E+02  0.10570000000E+00 0. -1.
<mgrwt>
<rscale>  0 0.20002530E+02</rscale>
<asrwt>0</asrwt>
<pdfrwt beam="1">  1        4 0.23777024E-02 0.20002530E+02</pdfrwt>
<pdfrwt beam="2">  1       -4 0.99569347E-03 0.20002530E+02</pdfrwt>
<totfact> 0.12897132E+06</totfact>
</mgrwt>
</event>
<event>
 5    1  0.4710515E-007  0.2000189E+02  0.7818608E-02  0.1745291E+00
         -4   -1    0    0    0  501 -0.00000000000E+00  0.00000000000E+00  0.74276557483E+00  0.16025294690E+01  0.14200000000E+01 0.  1.
          4   -1    0    0  501    0  0.00000000000E+00 -0.00000000000E+00 -0.84425308637E+02  0.84437249710E+02  0.14200000000E+01 0. -1.
       1023    2    1    2    0    0  0.00000000000E+00  0.00000000000E+00 -0.83682543063E+02  0.86039779179E+02  0.20001889603E+02 0.  0.
        -13    1    3    3    0    0  0.92762153493E+01 -0.37357768077E+01 -0.42096659076E+02  0.43268280269E+02  0.10570000000E+00 0. -1.
         13    1    3    3    0    0 -0.92762153493E+01  0.37357768077E+01 -0.41585883986E+02  0.42771498910E+02  0.10570000000E+00 0.  1.
<mgrwt>
<rscale>  0 0.20001890E+02</rscale>
<asrwt>0</asrwt>
<pdfrwt beam="2">  1        4 0.13055558E-01 0.20001890E+02</pdfrwt>
<pdfrwt beam="1">  1       -4 0.18132592E-03 0.20001890E+02</pdfrwt>
<totfact> 0.10216089E+06</totfact>
</mgrwt>
</event>
<event>
 5    1  0.4710515E-007  0.2000623E+02  0.7818608E-02  0.1745204E+00
         -4   -1    0    0    0  501 -0.00000000000E+00  0.00000000000E+00  0.23585671389E+01  0.27530417630E+01  0.14200000000E+01 0.  1.
          4   -1    0    0  501    0  0.00000000000E+00 -0.00000000000E+00 -0.38742522395E+02  0.38768536747E+02  0.14200000000E+01 0. -1.
       1023    2    1    2    0    0  0.00000000000E+00  0.00000000000E+00 -0.36383955256E+02  0.41521578510E+02  0.20006231077E+02 0.  0.
        -13    1    3    3    0    0  0.96922450963E+01 -0.24668062554E+01 -0.18529194695E+02  0.21056281169E+02  0.10570000000E+00 0. -1.
         13    1    3    3    0    0 -0.96922450963E+01  0.24668062554E+01 -0.17854760561E+02  0.20465297342E+02  0.10570000000E+00 0.  1.
<mgrwt>
<rscale>  0 0.20006231E+02</rscale>
<asrwt>0</asrwt>
<pdfrwt beam="2">  1        4 0.59927330E-02 0.20006231E+02</pdfrwt>
<pdfrwt beam="1">  1       -4 0.39520182E-03 0.20006231E+02</pdfrwt>
<totfact> 0.11884879E+06</totfact>
</mgrwt>
</event>
<event>
 5    1  0.4710515E-007  0.2000254E+02  0.7818608E-02  0.1745278E+00
          4   -1    0    0  501    0  0.00000000000E+00  0.00000000000E+00  0.17486923308E+02  0.17544483087E+02  0.14200000000E+01 0. -1.
         -4   -1    0    0    0  501 -0.00000000000E+00 -0.00000000000E+00 -0.55637334089E+01  0.57420840682E+01  0.14200000000E+01 0.  1.
       1023    2    1    2    0    0  0.00000000000E+00  0.00000000000E+00  0.11923189899E+02  0.23286567155E+02  0.20002543651E+02 0.  0.
        -13    1    3    3    0    0 -0.12749652984E+00 -0.99995296859E+01  0.58613379359E+01  0.11591949974E+02  0.10570000000E+00 0. -1.
         13    1    3    3    0    0  0.12749652984E+00  0.99995296859E+01  0.60618519634E+01  0.11694617181E+02  0.10570000000E+00 0.  1.
<mgrwt>
<rscale>  0 0.20002544E+02</rscale>
<asrwt>0</asrwt>
<pdfrwt beam="1">  1        4 0.27084428E-02 0.20002544E+02</pdfrwt>
<pdfrwt beam="2">  1       -4 0.87410595E-03 0.20002544E+02</pdfrwt>
<totfact> 0.12818887E+06</totfact>
</mgrwt>
</event>
<event>
 5    1  0.4710515E-007  0.2000418E+02  0.7818608E-02  0.1745245E+00
          4   -1    0    0  501    0  0.00000000000E+00  0.00000000000E+00  0.11692299835E+01  0.18394289207E+01  0.14200000000E+01 0.  1.
         -4   -1    0    0    0  501 -0.00000000000E+00 -0.00000000000E+00 -0.65823058300E+02  0.65838373339E+02  0.14200000000E+01 0. -1.
       1023    2    1    2    0    0  0.00000000000E+00  0.00000000000E+00 -0.64653828317E+02  0.67677802260E+02  0.20004184631E+02 0.  0.
        -13    1    3    3    0    0 -0.69336110084E+01 -0.72068812292E+01 -0.32762537902E+02  0.34255060369E+02  0.10570000000E+00 0. -1.
         13    1    3    3    0    0  0.69336110084E+01  0.72068812292E+01 -0.31891290415E+02  0.33422741891E+02  0.10570000000E+00 0.  1.
<mgrwt>
<rscale>  0 0.20004185E+02</rscale>
<asrwt>0</asrwt>
<pdfrwt beam="1">  1        4 0.23261343E-03 0.20004185E+02</pdfrwt>
<pdfrwt beam="2">  1       -4 0.10179354E-01 0.20004185E+02</pdfrwt>
<totfact> 0.10829007E+06</totfact>
</mgrwt>
</event>
<event>
 5    1  0.4710515E-007  0.2000199E+02  0.7818608E-02  0.1745289E+00
         -4   -1    0    0    0  501 -0.00000000000E+00  0.00000000000E+00  0.32492805360E+01  0.35460152286E+01  0.14200000000E+01 0.  1.
          4   -1    0    0  501    0  0.00000000000E+00 -0.00000000000E+00 -0.29123181502E+02  0.29157779422E+02  0.14200000000E+01 0. -1.
       1023    2    1    2    0    0  0.00000000000E+00  0.00000000000E+00 -0.25873900966E+02  0.32703794651E+02  0.20001985735E+02 0.  0.
        -13    1    3    3    0    0 -0.51708837187E+01  0.85597948509E+01 -0.12898275265E+02  0.16321299079E+02  0.10570000000E+00 0. -1.
         13    1    3    3    0    0  0.51708837187E+01 -0.85597948509E+01 -0.12975625702E+02  0.16382495572E+02  0.10570000000E+00 0.  1.
<mgrwt>
<rscale>  0 0.20001986E+02</rscale>
<asrwt>0</asrwt>
<pdfrwt beam="2">  1        4 0.45059764E-02 0.20001986E+02</pdfrwt>
<pdfrwt beam="1">  1       -4 0.52537646E-03 0.20001986E+02</pdfrwt>
<totfact> 0.12314191E+06</totfact>
</mgrwt>
</event>
<event>
 4    1  0.4710515E-007  0.2013122E+02  0.7818608E-02  0.1742731E+00
          4   -1    0    0  501    0  0.00000000000E+00  0.00000000000E+00  0.24914598651E+02  0.24955032076E+02  0.14200000000E+01 0.  1.
         -4   -1    0    0    0  501 -0.00000000000E+00 -0.00000000000E+00 -0.38974082830E+01  0.41480346340E+01  0.14200000000E+01 0. -1.
        -13    1    1    2    0    0 -0.89551755230E+01 -0.45928835719E+01  0.10689330317E+02  0.14682053783E+02  0.10570000000E+00 0. -1.
         13    1    1    2    0    0  0.89551755230E+01  0.45928835719E+01  0.10327860051E+02  0.14421012928E+02  0.10570000000E+00 0.  1.
<mgrwt>
<rscale>  0 0.20131225E+02</rscale>
<asrwt>0</asrwt>
<pdfrwt beam="1">  1        4 0.38554044E-02 0.20131225E+02</pdfrwt>
<pdfrwt beam="2">  1       -4 0.62199049E-03 0.20131225E+02</pdfrwt>
<totfact> 0.12337604E+06</totfact>
</mgrwt>
</event>
<event>
 5    1  0.4710515E-007  0.2000204E+02  0.7818608E-02  0.1745287E+00
          4   -1    0    0  501    0  0.00000000000E+00  0.00000000000E+00  0.32813298624E+01  0.35754056645E+01  0.14200000000E+01 0. -1.
         -4   -1    0    0    0  501 -0.00000000000E+00 -0.00000000000E+00 -0.28862079393E+02  0.28896989928E+02  0.14200000000E+01 0.  1.
       1023    2    1    2    0    0  0.00000000000E+00  0.00000000000E+00 -0.25580749530E+02  0.32472395592E+02  0.20002043120E+02 0.  0.
        -13    1    3    3    0    0  0.97174327946E+01  0.23619411094E+01 -0.12862865713E+02  0.16293303924E+02  0.10570000000E+00 0.  1.
         13    1    3    3    0    0 -0.97174327946E+01 -0.23619411094E+01 -0.12717883817E+02  0.16179091668E+02  0.10570000000E+00 0. -1.
<mgrwt>
<rscale>  0 0.20002043E+02</rscale>
<asrwt>0</asrwt>
<pdfrwt beam="1">  1        4 0.53012664E-03 0.20002043E+02</pdfrwt>
<pdfrwt beam="2">  1       -4 0.44656264E-02 0.20002043E+02</pdfrwt>
<totfact> 0.12325851E+06</totfact>
</mgrwt>
</event>
<event>
 4    1  0.4710515E-007  0.2006103E+02  0.7818608E-02  0.1744117E+00
          4   -1    0    0  501    0  0.00000000000E+00  0.00000000000E+00  0.13946458093E+01  0.19903358846E+01  0.14200000000E+01 0.  1.
         -4   -1    0    0    0  501 -0.00000000000E+00 -0.00000000000E+00 -0.58839873939E+02  0.58857006083E+02  0.14200000000E+01 0. -1.
        -13    1    1    2    0    0  0.20321246805E+01  0.98195193095E+01 -0.29383907367E+02  0.31047989868E+02  0.10570000000E+00 0.  1.
         13    1    1    2    0    0 -0.20321246805E+01 -0.98195193095E+01 -0.28061320762E+02  0.29799352100E+02  0.10570000000E+00 0. -1.
<mgrwt>
<rscale>  0 0.20061027E+02</rscale>
<asrwt>0</asrwt>
<pdfrwt beam="1">  1        4 0.26170111E-03 0.20061027E+02</pdfrwt>
<pdfrwt beam="2">  1       -4 0.90994269E-02 0.20061027E+02</pdfrwt>
<totfact> 0.11018684E+06</totfact>
</mgrwt>
</event>
<event>
 4    1  0.4710515E-007  0.2001527E+02  0.7818608E-02  0.1745024E+00
          4   -1    0    0  501    0  0.00000000000E+00  0.00000000000E+00  0.36248947396E+02  0.36276749955E+02  0.14200000000E+01 0.  1.
         -4   -1    0    0    0  501 -0.00000000000E+00 -0.00000000000E+00 -0.25496008020E+01  0.29183667093E+01  0.14200000000E+01 0. -1.
        -13    1    1    2    0    0  0.94408276921E+01  0.32991647560E+01  0.16149299430E+02  0.18995387866E+02  0.10570000000E+00 0.  1.
         13    1    1    2    0    0 -0.94408276921E+01 -0.32991647560E+01  0.17550047164E+02  0.20199728799E+02  0.10570000000E+00 0. -1.
<mgrwt>
<rscale>  0 0.20015274E+02</rscale>
<asrwt>0</asrwt>
<pdfrwt beam="1">  1        4 0.56072663E-02 0.20015274E+02</pdfrwt>
<pdfrwt beam="2">  1       -4 0.42275155E-03 0.20015274E+02</pdfrwt>
<totfact> 0.11981702E+06</totfact>
</mgrwt>
</event>
<event>
 5    1  0.4710515E-007  0.2000845E+02  0.7818608E-02  0.1745160E+00
         -4   -1    0    0    0  501 -0.00000000000E+00  0.00000000000E+00  0.36553522680E+02  0.36581093755E+02  0.14200000000E+01 0. -1.
          4   -1    0    0  501    0  0.00000000000E+00 -0.00000000000E+00 -0.25232942031E+01  0.28954125156E+01  0.14200000000E+01 0.  1.
       1023    2    1    2    0    0  0.00000000000E+00  0.00000000000E+00  0.34030228477E+02  0.39476506271E+02  0.20008450644E+02 0.  0.
        -13    1    3    3    0    0  0.96665858826E+01 -0.25726161939E+01  0.17232278633E+02  0.19925456985E+02  0.10570000000E+00 0.  1.
         13    1    3    3    0    0 -0.96665858826E+01  0.25726161939E+01  0.16797949845E+02  0.19551049286E+02  0.10570000000E+00 0. -1.
<mgrwt>
<rscale>  0 0.20008451E+02</rscale>
<asrwt>0</asrwt>
<pdfrwt beam="2">  1        4 0.41894447E-03 0.20008451E+02</pdfrwt>
<pdfrwt beam="1">  1       -4 0.56543639E-02 0.20008451E+02</pdfrwt>
<totfact> 0.11976797E+06</totfact>
</mgrwt>
</event>
<event>
 4    1  0.4710515E-007  0.2002140E+02  0.7818608E-02  0.1744903E+00
          4   -1    0    0  501    0  0.00000000000E+00  0.00000000000E+00  0.65889499504E+00  0.15654209065E+01  0.14200000000E+01 0. -1.
         -4   -1    0    0    0  501 -0.00000000000E+00 -0.00000000000E+00 -0.89193321039E+02  0.89204623860E+02  0.14200000000E+01 0.  1.
        -13    1    1    2    0    0 -0.10007218564E+02  0.16774126885E+00 -0.45057356710E+02  0.46155705245E+02  0.10570000000E+00 0.  1.
         13    1    1    2    0    0  0.10007218564E+02 -0.16774126885E+00 -0.43477069334E+02  0.44614339521E+02  0.10570000000E+00 0. -1.
<mgrwt>
<rscale>  0 0.20021399E+02</rscale>
<asrwt>0</asrwt>
<pdfrwt beam="1">  1        4 0.17197074E-03 0.20021399E+02</pdfrwt>
<pdfrwt beam="2">  1       -4 0.13792646E-01 0.20021399E+02</pdfrwt>
<totfact> 0.10050813E+06</totfact>
</mgrwt>
</event>
<event>
 5    1  0.5338566E-007  0.2000211E+02  0.7818608E-02  0.1745286E+00
          4   -1    0    0  501    0  0.00000000000E+00  0.00000000000E+00  0.12705292538E+02  0.12784399027E+02  0.14200000000E+01 0.  1.
         -4   -1    0    0    0  501 -0.00000000000E+00 -0.00000000000E+00 -0.77037647980E+01  0.78335427530E+01  0.14200000000E+01 0. -1.
       1023    2    1    2    0    0  0.00000000000E+00  0.00000000000E+00  0.50015277398E+01  0.20617941780E+02  0.20002105976E+02 0.  0.
        -13    1    3    3    0    0 -0.99037714381E+01  0.13874425602E+01  0.24860836684E+01  0.10305409747E+02  0.10570000000E+00 0.  1.
         13    1    3    3    0    0  0.99037714381E+01 -0.13874425602E+01  0.25154440714E+01  0.10312532033E+02  0.10570000000E+00 0. -1.
<mgrwt>
<rscale>  0 0.20002106E+02</rscale>
<asrwt>0</asrwt>
<pdfrwt beam="1">  1        4 0.19707284E-02 0.20002106E+02</pdfrwt>
<pdfrwt beam="2">  1       -4 0.12012626E-02 0.20002106E+02</pdfrwt>
<totfact> 0.12974557E+06</totfact>
</mgrwt>
</event>
<event>
 5    1  0.4710515E-007  0.2000461E+02  0.7818608E-02  0.1745236E+00
         -4   -1    0    0    0  501 -0.00000000000E+00  0.00000000000E+00  0.34670690650E+02  0.34699757782E+02  0.14200000000E+01 0. -1.
          4   -1    0    0  501    0  0.00000000000E+00 -0.00000000000E+00 -0.26787081107E+01  0.30318108685E+01  0.14200000000E+01 0.  1.
       1023    2    1    2    0    0  0.00000000000E+00  0.00000000000E+00  0.31991982539E+02  0.37731568651E+02  0.20004607621E+02 0.  0.
        -13    1    3    3    0    0  0.55375556858E+01 -0.83288885717E+01  0.15993915110E+02  0.18864023983E+02  0.10570000000E+00 0. -1.
         13    1    3    3    0    0 -0.55375556858E+01  0.83288885717E+01  0.15998067429E+02  0.18867544667E+02  0.10570000000E+00 0.  1.
<mgrwt>
<rscale>  0 0.20004608E+02</rscale>
<asrwt>0</asrwt>
<pdfrwt beam="2">  1        4 0.44150661E-03 0.20004608E+02</pdfrwt>
<pdfrwt beam="1">  1       -4 0.53633502E-02 0.20004608E+02</pdfrwt>
<totfact> 0.12063898E+06</totfact>
</mgrwt>
</event>
<event>
 5    1  0.4710515E-007  0.2000134E+02  0.7818608E-02  0.1745301E+00
          4   -1    0    0  501    0  0.00000000000E+00  0.00000000000E+00  0.68031242222E+02  0.68046060270E+02  0.14200000000E+01 0.  1.
         -4   -1    0    0    0  501 -0.00000000000E+00 -0.00000000000E+00 -0.11086560417E+01  0.18015321864E+01  0.14200000000E+01 0. -1.
       1023    2    1    2    0    0  0.00000000000E+00  0.00000000000E+00  0.66922586181E+02  0.69847592457E+02  0.20001340727E+02 0.  0.
        -13    1    3    3    0    0  0.26220280900E+01 -0.96502399799E+01  0.33431608043E+02  0.34895354302E+02  0.10570000000E+00 0. -1.
         13    1    3    3    0    0 -0.26220280900E+01  0.96502399799E+01  0.33490978137E+02  0.34952238155E+02  0.10570000000E+00 0.  1.
<mgrwt>
<rscale>  0 0.20001341E+02</rscale>
<asrwt>0</asrwt>
<pdfrwt beam="1">  1        4 0.10520784E-01 0.20001341E+02</pdfrwt>
<pdfrwt beam="2">  1       -4 0.22500047E-03 0.20001341E+02</pdfrwt>
<totfact> 0.10754737E+06</totfact>
</mgrwt>
</event>
<event>
 5    1  0.4710515E-007  0.2000117E+02  0.7818608E-02  0.1745305E+00
         -4   -1    0    0    0  501 -0.00000000000E+00  0.00000000000E+00  0.63115816994E+01  0.64693480003E+01  0.14200000000E+01 0. -1.
          4   -1    0    0  501    0  0.00000000000E+00 -0.00000000000E+00 -0.15459437883E+02  0.15524516729E+02  0.14200000000E+01 0.  1.
       1023    2    1    2    0    0  0.00000000000E+00  0.00000000000E+00 -0.91478561837E+01  0.21993864729E+02  0.20001170290E+02 0.  0.
        -13    1    3    3    0    0 -0.97843299936E+01  0.20657722751E+01 -0.45755717449E+01  0.10997616005E+02  0.10570000000E+00 0.  1.
         13    1    3    3    0    0  0.97843299936E+01 -0.20657722751E+01 -0.45722844388E+01  0.10996248724E+02  0.10570000000E+00 0. -1.
<mgrwt>
<rscale>  0 0.20001170E+02</rscale>
<asrwt>0</asrwt>
<pdfrwt beam="2">  1        4 0.23955170E-02 0.20001170E+02</pdfrwt>
<pdfrwt beam="1">  1       -4 0.98815451E-03 0.20001170E+02</pdfrwt>
<totfact> 0.12895041E+06</totfact>
</mgrwt>
</event>
<event>
 5    1  0.4710515E-007  0.2000192E+02  0.7818608E-02  0.1745290E+00
         -4   -1    0    0    0  501 -0.00000000000E+00  0.00000000000E+00  0.52172263258E+02  0.52191584125E+02  0.14200000000E+01 0.  1.
          4   -1    0    0  501    0  0.00000000000E+00 -0.00000000000E+00 -0.16316877888E+01  0.21630545624E+01  0.14200000000E+01 0. -1.
       1023    2    1    2    0    0  0.00000000000E+00  0.00000000000E+00  0.50540575469E+02  0.54354638687E+02  0.20001924359E+02 0.  0.
        -13    1    3    3    0    0 -0.99711264371E+01  0.76435028128E+00  0.25329715780E+02  0.27232577325E+02  0.10570000000E+00 0. -1.
         13    1    3    3    0    0  0.99711264371E+01 -0.76435028128E+00  0.25210859689E+02  0.27122061362E+02  0.10570000000E+00 0.  1.
<mgrwt>
<rscale>  0 0.20001924E+02</rscale>
<asrwt>0</asrwt>
<pdfrwt beam="2">  1        4 0.29338948E-03 0.20001924E+02</pdfrwt>
<pdfrwt beam="1">  1       -4 0.80688626E-02 0.20001924E+02</pdfrwt>
<totfact> 0.11338669E+06</totfact>
</mgrwt>
</event>
<event>
 5    1  0.4710515E-007  0.2000182E+02  0.7818608E-02  0.1745292E+00
          4   -1    0    0  501    0  0.00000000000E+00  0.00000000000E+00  0.49316668723E+01  0.51320306058E+01  0.14200000000E+01 0. -1.
         -4   -1    0    0    0  501 -0.00000000000E+00 -0.00000000000E+00 -0.19650532620E+02  0.19701772313E+02  0.14200000000E+01 0.  1.
       1023    2    1    2    0    0  0.00000000000E+00  0.00000000000E+00 -0.14718865748E+02  0.24833802918E+02  0.20001818879E+02 0.  0.
        -13    1    3    3    0    0  0.77591789505E+01  0.63084525108E+01 -0.74522283363E+01  0.12471900847E+02  0.10570000000E+00 0. -1.
         13    1    3    3    0    0 -0.77591789505E+01 -0.63084525108E+01 -0.72666374117E+01  0.12361902072E+02  0.10570000000E+00 0.  1.
<mgrwt>
<rscale>  0 0.20001819E+02</rscale>
<asrwt>0</asrwt>
<pdfrwt beam="1">  1        4 0.77807210E-03 0.20001819E+02</pdfrwt>
<pdfrwt beam="2">  1       -4 0.30425129E-02 0.20001819E+02</pdfrwt>
<totfact> 0.12732525E+06</totfact>
</mgrwt>
</event>
<event>
 5    1  0.5306835E-007  0.2000213E+02  0.7818608E-02  0.1745286E+00
         -4   -1    0    0    0  501 -0.00000000000E+00  0.00000000000E+00  0.40491010566E+01  0.42908762936E+01  0.14200000000E+01 0.  1.
          4   -1    0    0  501    0  0.00000000000E+00 -0.00000000000E+00 -0.23722356050E+02  0.23764818042E+02  0.14200000000E+01 0.  1.
       1023    2    1    2    0    0  0.00000000000E+00  0.00000000000E+00 -0.19673254993E+02  0.28055694335E+02  0.20002125452E+02 0.  0.
        -13    1    3    3    0    0 -0.90701395130E+01  0.42114191376E+01 -0.99505887127E+01  0.14107759218E+02  0.10570000000E+00 0. -1.
         13    1    3    3    0    0  0.90701395130E+01 -0.42114191376E+01 -0.97226662805E+01  0.13947935117E+02  0.10570000000E+00 0.  1.
<mgrwt>
<rscale>  0 0.20002125E+02</rscale>
<asrwt>0</asrwt>
<pdfrwt beam="2">  1        4 0.36714576E-02 0.20002125E+02</pdfrwt>
<pdfrwt beam="1">  1       -4 0.64480304E-03 0.20002125E+02</pdfrwt>
<totfact> 0.12555853E+06</totfact>
</mgrwt>
</event>
<event>
 4    1  0.4710515E-007  0.2003452E+02  0.7818608E-02  0.1744643E+00
         -4   -1    0    0    0  501 -0.00000000000E+00  0.00000000000E+00  0.41799321698E+01  0.44145478754E+01  0.14200000000E+01 0. -1.
          4   -1    0    0  501    0  0.00000000000E+00 -0.00000000000E+00 -0.23094120868E+02  0.23137735816E+02  0.14200000000E+01 0.  1.
        -13    1    1    2    0    0 -0.82165907578E+01 -0.57203941738E+01 -0.90243741161E+01  0.13479086537E+02  0.10570000000E+00 0.  1.
         13    1    1    2    0    0  0.82165907578E+01  0.57203941738E+01 -0.98898145825E+01  0.14073197155E+02  0.10570000000E+00 0. -1.
<mgrwt>
<rscale>  0 0.20034515E+02</rscale>
<asrwt>0</asrwt>
<pdfrwt beam="2">  1        4 0.35743439E-02 0.20034515E+02</pdfrwt>
<pdfrwt beam="1">  1       -4 0.66446886E-03 0.20034515E+02</pdfrwt>
<totfact> 0.12541541E+06</totfact>
</mgrwt>
</event>
<event>
 5    1  0.4710515E-007  0.2000229E+02  0.7818608E-02  0.1745283E+00
          4   -1    0    0  501    0  0.00000000000E+00  0.00000000000E+00  0.49406175157E+01  0.51406323966E+01  0.14200000000E+01 0.  1.
         -4   -1    0    0    0  501 -0.00000000000E+00 -0.00000000000E+00 -0.19617166147E+02  0.19668492765E+02  0.14200000000E+01 0. -1.
       1023    2    1    2    0    0  0.00000000000E+00  0.00000000000E+00 -0.14676548631E+02  0.24809125161E+02  0.20002290157E+02 0.  0.
        -13    1    3    3    0    0  0.73164899667E+01 -0.68176561907E+01 -0.73179305380E+01  0.12392527636E+02  0.10570000000E+00 0.  1.
         13    1    3    3    0    0 -0.73164899667E+01  0.68176561907E+01 -0.73586180930E+01  0.12416597525E+02  0.10570000000E+00 0. -1.
<mgrwt>
<rscale>  0 0.20002290E+02</rscale>
<asrwt>0</asrwt>
<pdfrwt beam="1">  1        4 0.77942897E-03 0.20002290E+02</pdfrwt>
<pdfrwt beam="2">  1       -4 0.30373595E-02 0.20002290E+02</pdfrwt>
<totfact> 0.12733294E+06</totfact>
</mgrwt>
</event>
<event>
 5    1  0.4710515E-007  0.2000614E+02  0.7818608E-02  0.1745206E+00
         -4   -1    0    0    0  501 -0.00000000000E+00  0.00000000000E+00  0.31991399616E+02  0.32022898829E+02  0.14200000000E+01 0. -1.
          4   -1    0    0  501    0  0.00000000000E+00 -0.00000000000E+00 -0.29317462450E+01  0.32575352715E+01  0.14200000000E+01 0.  1.
       1023    2    1    2    0    0  0.00000000000E+00  0.00000000000E+00  0.29059653371E+02  0.35280434100E+02  0.20006138464E+02 0.  0.
        -13    1    3    3    0    0  0.96945329620E+01  0.24629633429E+01  0.14543911888E+02  0.17651818696E+02  0.10570000000E+00 0. -1.
         13    1    3    3    0    0 -0.96945329620E+01 -0.24629633429E+01  0.14515741483E+02  0.17628615404E+02  0.10570000000E+00 0.  1.
<mgrwt>
<rscale>  0 0.20006138E+02</rscale>
<asrwt>0</asrwt>
<pdfrwt beam="2">  1        4 0.47852160E-03 0.20006138E+02</pdfrwt>
<pdfrwt beam="1">  1       -4 0.49492375E-02 0.20006138E+02</pdfrwt>
<totfact> 0.12180614E+06</totfact>
</mgrwt>
</event>
<event>
 4    1  0.4710515E-007  0.2001544E+02  0.7818608E-02  0.1745021E+00
          4   -1    0    0  501    0  0.00000000000E+00  0.00000000000E+00  0.14327200589E+02  0.14397398262E+02  0.14200000000E+01 0. -1.
         -4   -1    0    0    0  501 -0.00000000000E+00 -0.00000000000E+00 -0.68300255821E+01  0.69760769385E+01  0.14200000000E+01 0.  1.
        -13    1    1    2    0    0  0.29272618345E+00 -0.99957525630E+01  0.33454522715E+01  0.10545329834E+02  0.10570000000E+00 0. -1.
         13    1    1    2    0    0 -0.29272618345E+00  0.99957525630E+01  0.41517227356E+01  0.10828145367E+02  0.10570000000E+00 0.  1.
<mgrwt>
<rscale>  0 0.20015439E+02</rscale>
<asrwt>0</asrwt>
<pdfrwt beam="1">  1        4 0.22208192E-02 0.20015439E+02</pdfrwt>
<pdfrwt beam="2">  1       -4 0.10674077E-02 0.20015439E+02</pdfrwt>
<totfact> 0.12912433E+06</totfact>
</mgrwt>
</event>
<event>
 5    1  0.4710515E-007  0.2000328E+02  0.7818608E-02  0.1745263E+00
         -4   -1    0    0    0  501 -0.00000000000E+00  0.00000000000E+00  0.41725645364E+02  0.41749800970E+02  0.14200000000E+01 0. -1.
          4   -1    0    0  501    0  0.00000000000E+00 -0.00000000000E+00 -0.21600050238E+01  0.25849606772E+01  0.14200000000E+01 0.  1.
       1023    2    1    2    0    0  0.00000000000E+00  0.00000000000E+00  0.39565640341E+02  0.44334761648E+02  0.20003279601E+02 0.  0.
        -13    1    3    3    0    0 -0.71828505947E+01 -0.69585186686E+01  0.19593433814E+02  0.21998366890E+02  0.10570000000E+00 0. -1.
         13    1    3    3    0    0  0.71828505947E+01  0.69585186686E+01  0.19972206527E+02  0.22336394757E+02  0.10570000000E+00 0.  1.
<mgrwt>
<rscale>  0 0.20003280E+02</rscale>
<asrwt>0</asrwt>
<pdfrwt beam="2">  1        4 0.36685551E-03 0.20003280E+02</pdfrwt>
<pdfrwt beam="1">  1       -4 0.64538766E-02 0.20003280E+02</pdfrwt>
<totfact> 0.11761426E+06</totfact>
</mgrwt>
</event>
<event>
 5    1  0.4710515E-007  0.2000377E+02  0.7818608E-02  0.1745253E+00
          4   -1    0    0  501    0  0.00000000000E+00  0.00000000000E+00  0.24751129538E+01  0.28535213569E+01  0.14200000000E+01 0. -1.
         -4   -1    0    0    0  501 -0.00000000000E+00 -0.00000000000E+00 -0.37154274066E+02  0.37181399670E+02  0.14200000000E+01 0.  1.
       1023    2    1    2    0    0  0.00000000000E+00  0.00000000000E+00 -0.34679161113E+02  0.40034921026E+02  0.20003766799E+02 0.  0.
        -13    1    3    3    0    0 -0.21243539452E+01 -0.97726732523E+01 -0.17523846357E+02  0.20177075750E+02  0.10570000000E+00 0.  1.
         13    1    3    3    0    0  0.21243539452E+01  0.97726732523E+01 -0.17155314755E+02  0.19857845276E+02  0.10570000000E+00 0. -1.
<mgrwt>
<rscale>  0 0.20003767E+02</rscale>
<asrwt>0</asrwt>
<pdfrwt beam="1">  1        4 0.41198156E-03 0.20003767E+02</pdfrwt>
<pdfrwt beam="2">  1       -4 0.57472367E-02 0.20003767E+02</pdfrwt>
<totfact> 0.11956426E+06</totfact>
</mgrwt>
</event>
<event>
 5    1  0.4710515E-007  0.2000219E+02  0.7818608E-02  0.1745284E+00
          4   -1    0    0  501    0  0.00000000000E+00  0.00000000000E+00  0.66550830150E+02  0.66565977749E+02  0.14200000000E+01 0.  1.
         -4   -1    0    0    0  501 -0.00000000000E+00 -0.00000000000E+00 -0.11487113997E+01  0.18264550035E+01  0.14200000000E+01 0. -1.
       1023    2    1    2    0    0  0.00000000000E+00  0.00000000000E+00  0.65402118750E+02  0.68392432752E+02  0.20002192899E+02 0.  0.
        -13    1    3    3    0    0 -0.70656397687E+01  0.70769564136E+01  0.32479987811E+02  0.33984810697E+02  0.10570000000E+00 0.  1.
         13    1    3    3    0    0  0.70656397687E+01 -0.70769564136E+01  0.32922130939E+02  0.34407622055E+02  0.10570000000E+00 0. -1.
<mgrwt>
<rscale>  0 0.20002193E+02</rscale>
<asrwt>0</asrwt>
<pdfrwt beam="1">  1        4 0.10291888E-01 0.20002193E+02</pdfrwt>
<pdfrwt beam="2">  1       -4 0.23002416E-03 0.20002193E+02</pdfrwt>
<totfact> 0.10805544E+06</totfact>
</mgrwt>
</event>
<event>
 4    1  0.4710515E-007  0.2010303E+02  0.7818608E-02  0.1743287E+00
         -4   -1    0    0    0  501 -0.00000000000E+00  0.00000000000E+00  0.92700219946E+01  0.93781505522E+01  0.14200000000E+01 0.  1.
          4   -1    0    0  501    0  0.00000000000E+00 -0.00000000000E+00 -0.10680298002E+02  0.10774282594E+02  0.14200000000E+01 0. -1.
        -13    1    1    2    0    0 -0.41915554844E+01  0.91334419203E+01 -0.52344786016E+00  0.10063501818E+02  0.10570000000E+00 0.  1.
         13    1    1    2    0    0  0.41915554844E+01 -0.91334419203E+01 -0.88682814744E+00  0.10088931328E+02  0.10570000000E+00 0. -1.
<mgrwt>
<rscale>  0 0.20103027E+02</rscale>
<asrwt>0</asrwt>
<pdfrwt beam="2">  1        4 0.16586699E-02 0.20103027E+02</pdfrwt>
<pdfrwt beam="1">  1       -4 0.14417044E-02 0.20103027E+02</pdfrwt>
<totfact> 0.12869185E+06</totfact>
</mgrwt>
</event>
<event>
 5    1  0.4710515E-007  0.2000367E+02  0.7818608E-02  0.1745255E+00
          4   -1    0    0  501    0  0.00000000000E+00  0.00000000000E+00  0.37628047977E+02  0.37654832287E+02  0.14200000000E+01 0. -1.
         -4   -1    0    0    0  501 -0.00000000000E+00 -0.00000000000E+00 -0.24391512028E+01  0.28223852661E+01  0.14200000000E+01 0.  1.
       1023    2    1    2    0    0  0.00000000000E+00  0.00000000000E+00  0.35188896775E+02  0.40477217553E+02  0.20003666780E+02 0.  0.
        -13    1    3    3    0    0 -0.79158723464E+01  0.61125653429E+01  0.17530185524E+02  0.20182741813E+02  0.10570000000E+00 0. -1.
         13    1    3    3    0    0  0.79158723464E+01 -0.61125653429E+01  0.17658711250E+02  0.20294475741E+02  0.10570000000E+00 0.  1.
<mgrwt>
<rscale>  0 0.20003667E+02</rscale>
<asrwt>0</asrwt>
<pdfrwt beam="1">  1        4 0.58204692E-02 0.20003667E+02</pdfrwt>
<pdfrwt beam="2">  1       -4 0.40679398E-03 0.20003667E+02</pdfrwt>
<totfact> 0.11936027E+06</totfact>
</mgrwt>
</event>
<event>
 5    1  0.4982028E-007  0.2000273E+02  0.7818608E-02  0.1745274E+00
          4   -1    0    0  501    0  0.00000000000E+00  0.00000000000E+00  0.92177287033E+01  0.93264635552E+01  0.14200000000E+01 0.  1.
         -4   -1    0    0    0  501 -0.00000000000E+00 -0.00000000000E+00 -0.10631775901E+02  0.10726185660E+02  0.14200000000E+01 0. -1.
       1023    2    1    2    0    0  0.00000000000E+00  0.00000000000E+00 -0.14140471974E+01  0.20052649215E+02  0.20002730090E+02 0.  0.
        -13    1    3    3    0    0  0.99072944248E+01 -0.13587495582E+01 -0.58242710157E+00  0.10017538470E+02  0.10570000000E+00 0.  1.
         13    1    3    3    0    0 -0.99072944248E+01  0.13587495582E+01 -0.83162009583E+00  0.10035110745E+02  0.10570000000E+00 0. -1.
<mgrwt>
<rscale>  0 0.20002730E+02</rscale>
<asrwt>0</asrwt>
<pdfrwt beam="1">  1        4 0.14337386E-02 0.20002730E+02</pdfrwt>
<pdfrwt beam="2">  1       -4 0.16512843E-02 0.20002730E+02</pdfrwt>
<totfact> 0.13007295E+06</totfact>
</mgrwt>
</event>
<event>
 5    1  0.4741954E-007  0.2000188E+02  0.7818608E-02  0.1745291E+00
         -4   -1    0    0    0  501 -0.00000000000E+00  0.00000000000E+00  0.41468547346E+02  0.41492852625E+02  0.14200000000E+01 0.  1.
          4   -1    0    0  501    0  0.00000000000E+00 -0.00000000000E+00 -0.21756464661E+01  0.25980449467E+01  0.14200000000E+01 0. -1.
       1023    2    1    2    0    0  0.00000000000E+00  0.00000000000E+00  0.39292900880E+02  0.44090897572E+02  0.20001879640E+02 0.  0.
        -13    1    3    3    0    0  0.97445636171E+01  0.22463360488E+01  0.19803548222E+02  0.22185451098E+02  0.10570000000E+00 0. -1.
         13    1    3    3    0    0 -0.97445636171E+01 -0.22463360488E+01  0.19489352658E+02  0.21905446475E+02  0.10570000000E+00 0.  1.
<mgrwt>
<rscale>  0 0.20001880E+02</rscale>
<asrwt>0</asrwt>
<pdfrwt beam="2">  1        4 0.36907662E-03 0.20001880E+02</pdfrwt>
<pdfrwt beam="1">  1       -4 0.64141391E-02 0.20001880E+02</pdfrwt>
<totfact> 0.11773959E+06</totfact>
</mgrwt>
</event>
<event>
 4    1  0.4710515E-007  0.2002402E+02  0.7818608E-02  0.1744851E+00
          4   -1    0    0  501    0  0.00000000000E+00  0.00000000000E+00  0.31435667509E+01  0.34494074733E+01  0.14200000000E+01 0. -1.
         -4   -1    0    0    0  501 -0.00000000000E+00 -0.00000000000E+00 -0.30084853090E+02  0.30118346326E+02  0.14200000000E+01 0.  1.
        -13    1    1    2    0    0 -0.98250909351E+01 -0.19121937716E+01 -0.13134418234E+02  0.16514024698E+02  0.10570000000E+00 0. -1.
         13    1    1    2    0    0  0.98250909351E+01  0.19121937716E+01 -0.13806868105E+02  0.17053729101E+02  0.10570000000E+00 0.  1.
<mgrwt>
<rscale>  0 0.20024015E+02</rscale>
<asrwt>0</asrwt>
<pdfrwt beam="1">  1        4 0.50972829E-03 0.20024015E+02</pdfrwt>
<pdfrwt beam="2">  1       -4 0.46545413E-02 0.20024015E+02</pdfrwt>
<totfact> 0.12243301E+06</totfact>
</mgrwt>
</event>
<event>
 5    1  0.4710515E-007  0.2000250E+02  0.7818608E-02  0.1745278E+00
          4   -1    0    0  501    0  0.00000000000E+00  0.00000000000E+00  0.28227184301E+02  0.28262879074E+02  0.14200000000E+01 0. -1.
         -4   -1    0    0    0  501 -0.00000000000E+00 -0.00000000000E+00 -0.33617439482E+01  0.36493454719E+01  0.14200000000E+01 0.  1.
       1023    2    1    2    0    0  0.00000000000E+00  0.00000000000E+00  0.24865440353E+02  0.31912224546E+02  0.20002498633E+02 0.  0.
        -13    1    3    3    0    0  0.73907722831E+01 -0.67363308899E+01  0.12608553087E+02  0.16093118164E+02  0.10570000000E+00 0.  1.
         13    1    3    3    0    0 -0.73907722831E+01  0.67363308899E+01  0.12256887266E+02  0.15819106382E+02  0.10570000000E+00 0. -1.
<mgrwt>
<rscale>  0 0.20002499E+02</rscale>
<asrwt>0</asrwt>
<pdfrwt beam="1">  1        4 0.43675125E-02 0.20002499E+02</pdfrwt>
<pdfrwt beam="2">  1       -4 0.54206034E-03 0.20002499E+02</pdfrwt>
<totfact> 0.12353816E+06</totfact>
</mgrwt>
</event>
<event>
 4    1  0.4710515E-007  0.2007020E+02  0.7818608E-02  0.1743936E+00
          4   -1    0    0  501    0  0.00000000000E+00  0.00000000000E+00  0.60833550680E+02  0.60850121514E+02  0.14200000000E+01 0. -1.
         -4   -1    0    0    0  501 -0.00000000000E+00 -0.00000000000E+00 -0.13309021672E+01  0.19462015771E+01  0.14200000000E+01 0.  1.
        -13    1    1    2    0    0  0.99460062522E+01  0.13300247247E+01  0.29724259842E+02  0.31372516663E+02  0.10570000000E+00 0.  1.
         13    1    1    2    0    0 -0.99460062522E+01 -0.13300247247E+01  0.29778388670E+02  0.31423806428E+02  0.10570000000E+00 0. -1.
<mgrwt>
<rscale>  0 0.20070202E+02</rscale>
<asrwt>0</asrwt>
<pdfrwt beam="1">  1        4 0.94076140E-02 0.20070202E+02</pdfrwt>
<pdfrwt beam="2">  1       -4 0.25335956E-03 0.20070202E+02</pdfrwt>
<totfact> 0.10935444E+06</totfact>
</mgrwt>
</event>
<event>
 4    1  0.4710515E-007  0.2001858E+02  0.7818608E-02  0.1744959E+00
         -4   -1    0    0    0  501 -0.00000000000E+00  0.00000000000E+00  0.25176676558E+00  0.14421464920E+01  0.14200000000E+01 0. -1.
          4   -1    0    0  501    0  0.00000000000E+00 -0.00000000000E+00 -0.11709153518E+03  0.11710014522E+03  0.14200000000E+01 0.  1.
        -13    1    1    2    0    0 -0.94588983290E+01  0.32710299908E+01 -0.58807877698E+02  0.59653566923E+02  0.10570000000E+00 0.  1.
         13    1    1    2    0    0  0.94588983290E+01 -0.32710299908E+01 -0.58031890718E+02  0.58888724792E+02  0.10570000000E+00 0. -1.
<mgrwt>
<rscale>  0 0.20018577E+02</rscale>
<asrwt>0</asrwt>
<pdfrwt beam="2">  1        4 0.18106299E-01 0.20018577E+02</pdfrwt>
<pdfrwt beam="1">  1       -4 0.13096342E-03 0.20018577E+02</pdfrwt>
<totfact> 0.92855096E+05</totfact>
</mgrwt>
</event>
<event>
 5    1  0.4710515E-007  0.2000753E+02  0.7818608E-02  0.1745178E+00
         -4   -1    0    0    0  501 -0.00000000000E+00  0.00000000000E+00  0.30695137810E+01  0.33820577836E+01  0.14200000000E+01 0. -1.
          4   -1    0    0  501    0  0.00000000000E+00 -0.00000000000E+00 -0.30693779475E+02  0.30726608965E+02  0.14200000000E+01 0.  1.
       1023    2    1    2    0    0  0.00000000000E+00  0.00000000000E+00 -0.27624265694E+02  0.34108666749E+02  0.20007525889E+02 0.  0.
        -13    1    3    3    0    0  0.99502415406E+01 -0.10235596641E+01 -0.13649332283E+02  0.16922482837E+02  0.10570000000E+00 0.  1.
         13    1    3    3    0    0 -0.99502415406E+01  0.10235596641E+01 -0.13974933411E+02  0.17186183911E+02  0.10570000000E+00 0. -1.
<mgrwt>
<rscale>  0 0.20007526E+02</rscale>
<asrwt>0</asrwt>
<pdfrwt beam="2">  1        4 0.47486869E-02 0.20007526E+02</pdfrwt>
<pdfrwt beam="1">  1       -4 0.49880010E-03 0.20007526E+02</pdfrwt>
<totfact> 0.12236790E+06</totfact>
</mgrwt>
</event>
<event>
 5    1  0.4710515E-007  0.2000463E+02  0.7818608E-02  0.1745236E+00
          4   -1    0    0  501    0  0.00000000000E+00  0.00000000000E+00  0.10352083227E+02  0.10449020391E+02  0.14200000000E+01 0.  1.
         -4   -1    0    0    0  501 -0.00000000000E+00 -0.00000000000E+00 -0.94691989630E+01  0.95750785376E+01  0.14200000000E+01 0. -1.
       1023    2    1    2    0    0  0.00000000000E+00  0.00000000000E+00  0.88288426373E+00  0.20024098929E+02  0.20004625797E+02 0.  0.
        -13    1    3    3    0    0 -0.82662147892E+01 -0.56284891848E+01  0.28351216933E+00  0.10005086161E+02  0.10570000000E+00 0.  1.
         13    1    3    3    0    0  0.82662147892E+01  0.56284891848E+01  0.59937209440E+00  0.10019012768E+02  0.10570000000E+00 0. -1.
<mgrwt>
<rscale>  0 0.20004626E+02</rscale>
<asrwt>0</asrwt>
<pdfrwt beam="1">  1        4 0.16082295E-02 0.20004626E+02</pdfrwt>
<pdfrwt beam="2">  1       -4 0.14724011E-02 0.20004626E+02</pdfrwt>
<totfact> 0.13006471E+06</totfact>
</mgrwt>
</event>
<event>
 4    1  0.4710515E-007  0.2012649E+02  0.7818608E-02  0.1742824E+00
         -4   -1    0    0    0  501 -0.00000000000E+00  0.00000000000E+00  0.64965240265E+01  0.66499040916E+01  0.14200000000E+01 0.  1.
          4   -1    0    0  501    0  0.00000000000E+00 -0.00000000000E+00 -0.15219480691E+02  0.15285581197E+02  0.14200000000E+01 0. -1.
        -13    1    1    2    0    0  0.93105450479E+01 -0.38132105957E+01 -0.41699292790E+01  0.10891570448E+02  0.10570000000E+00 0. -1.
         13    1    1    2    0    0 -0.93105450479E+01  0.38132105957E+01 -0.45530273860E+01  0.11043914840E+02  0.10570000000E+00 0.  1.
<mgrwt>
<rscale>  0 0.20126489E+02</rscale>
<asrwt>0</asrwt>
<pdfrwt beam="2">  1        4 0.23583417E-02 0.20126489E+02</pdfrwt>
<pdfrwt beam="1">  1       -4 0.10163484E-02 0.20126489E+02</pdfrwt>
<totfact> 0.12735028E+06</totfact>
</mgrwt>
</event>
<event>
 5    1  0.4710515E-007  0.2000136E+02  0.7818608E-02  0.1745301E+00
          4   -1    0    0  501    0  0.00000000000E+00  0.00000000000E+00  0.23955306933E+01  0.27847741924E+01  0.14200000000E+01 0. -1.
         -4   -1    0    0    0  501 -0.00000000000E+00 -0.00000000000E+00 -0.38209612682E+02  0.38235989608E+02  0.14200000000E+01 0.  1.
       1023    2    1    2    0    0  0.00000000000E+00  0.00000000000E+00 -0.35814081989E+02  0.41020763801E+02  0.20001364806E+02 0.  0.
        -13    1    3    3    0    0  0.56543215681E+01 -0.82480261361E+01 -0.17977744770E+02  0.20572111390E+02  0.10570000000E+00 0.  1.
         13    1    3    3    0    0 -0.56543215681E+01  0.82480261361E+01 -0.17836337219E+02  0.20448652411E+02  0.10570000000E+00 0. -1.
<mgrwt>
<rscale>  0 0.20001365E+02</rscale>
<asrwt>0</asrwt>
<pdfrwt beam="1">  1        4 0.40051401E-03 0.20001365E+02</pdfrwt>
<pdfrwt beam="2">  1       -4 0.59103723E-02 0.20001365E+02</pdfrwt>
<totfact> 0.11913717E+06</totfact>
</mgrwt>
</event>
<event>
 5    1  0.4710515E-007  0.2000470E+02  0.7818608E-02  0.1745235E+00
         -4   -1    0    0    0  501 -0.00000000000E+00  0.00000000000E+00  0.93464494493E+01  0.94537038936E+01  0.14200000000E+01 0.  1.
          4   -1    0    0  501    0  0.00000000000E+00 -0.00000000000E+00 -0.10487837296E+02  0.10583531128E+02  0.14200000000E+01 0. -1.
       1023    2    1    2    0    0  0.00000000000E+00  0.00000000000E+00 -0.11413878466E+01  0.20037235022E+02  0.20004699975E+02 0.  0.
        -13    1    3    3    0    0 -0.12273597440E+01 -0.99261974386E+01 -0.57572756525E+00  0.10018904244E+02  0.10570000000E+00 0. -1.
         13    1    3    3    0    0  0.12273597440E+01  0.99261974386E+01 -0.56566028131E+00  0.10018330778E+02  0.10570000000E+00 0.  1.
<mgrwt>
<rscale>  0 0.20004700E+02</rscale>
<asrwt>0</asrwt>
<pdfrwt beam="2">  1        4 0.16291248E-02 0.20004700E+02</pdfrwt>
<pdfrwt beam="1">  1       -4 0.14535267E-02 0.20004700E+02</pdfrwt>
<totfact> 0.13005593E+06</totfact>
</mgrwt>
</event>
<event>
 5    1  0.4710515E-007  0.2000427E+02  0.7818608E-02  0.1745243E+00
         -4   -1    0    0    0  501 -0.00000000000E+00  0.00000000000E+00  0.10185866673E+03  0.10186856428E+03  0.14200000000E+01 0. -1.
          4   -1    0    0  501    0  0.00000000000E+00 -0.00000000000E+00 -0.45368689417E+00  0.14907151968E+01  0.14200000000E+01 0.  1.
       1023    2    1    2    0    0  0.00000000000E+00  0.00000000000E+00  0.10140497984E+03  0.10335927948E+03  0.20004267495E+02 0.  0.
        -13    1    3    3    0    0  0.53705534255E+01 -0.84372459414E+01  0.50905505004E+02  0.51878816249E+02  0.10570000000E+00 0.  1.
         13    1    3    3    0    0 -0.53705534255E+01  0.84372459414E+01  0.50499474836E+02  0.51480463230E+02  0.10570000000E+00 0. -1.
<mgrwt>
<rscale>  0 0.20004267E+02</rscale>
<asrwt>0</asrwt>
<pdfrwt beam="2">  1        4 0.15033071E-03 0.20004267E+02</pdfrwt>
<pdfrwt beam="1">  1       -4 0.15751100E-01 0.20004267E+02</pdfrwt>
<totfact> 0.97024988E+05</totfact>
</mgrwt>
</event>
<event>
 5    1  0.4710515E-007  0.2000294E+02  0.7818608E-02  0.1745270E+00
          4   -1    0    0  501    0  0.00000000000E+00  0.00000000000E+00  0.17313772990E+02  0.17371906492E+02  0.14200000000E+01 0.  1.
         -4   -1    0    0    0  501 -0.00000000000E+00 -0.00000000000E+00 -0.56211879281E+01  0.57977714445E+01  0.14200000000E+01 0. -1.
       1023    2    1    2    0    0  0.00000000000E+00  0.00000000000E+00  0.11692585062E+02  0.23169677936E+02  0.20002935541E+02 0.  0.
        -13    1    3    3    0    0  0.83254010011E+01  0.55398557147E+01  0.59922672050E+01  0.11658505132E+02  0.10570000000E+00 0. -1.
         13    1    3    3    0    0 -0.83254010011E+01 -0.55398557147E+01  0.57003178574E+01  0.11511172804E+02  0.10570000000E+00 0.  1.
<mgrwt>
<rscale>  0 0.20002936E+02</rscale>
<asrwt>0</asrwt>
<pdfrwt beam="1">  1        4 0.26817124E-02 0.20002936E+02</pdfrwt>
<pdfrwt beam="2">  1       -4 0.88285333E-03 0.20002936E+02</pdfrwt>
<totfact> 0.12825041E+06</totfact>
</mgrwt>
</event>
<event>
 5    1  0.4710515E-007  0.2000792E+02  0.7818608E-02  0.1745171E+00
          4   -1    0    0  501    0  0.00000000000E+00  0.00000000000E+00  0.28118442697E+02  0.28154275336E+02  0.14200000000E+01 0. -1.
         -4   -1    0    0    0  501 -0.00000000000E+00 -0.00000000000E+00 -0.33778441835E+01  0.36641822182E+01  0.14200000000E+01 0.  1.
       1023    2    1    2    0    0  0.00000000000E+00  0.00000000000E+00  0.24740598514E+02  0.31818457555E+02  0.20007924089E+02 0.  0.
        -13    1    3    3    0    0  0.12360192533E+01 -0.99262006496E+01  0.12536187178E+02  0.16038215748E+02  0.10570000000E+00 0. -1.
         13    1    3    3    0    0 -0.12360192533E+01  0.99262006496E+01  0.12204411336E+02  0.15780241807E+02  0.10570000000E+00 0.  1.
<mgrwt>
<rscale>  0 0.20007924E+02</rscale>
<asrwt>0</asrwt>
<pdfrwt beam="1">  1        4 0.43506968E-02 0.20007924E+02</pdfrwt>
<pdfrwt beam="2">  1       -4 0.54445068E-03 0.20007924E+02</pdfrwt>
<totfact> 0.12351807E+06</totfact>
</mgrwt>
</event>
<event>
 5    1  0.4710515E-007  0.2000367E+02  0.7818608E-02  0.1745255E+00
          4   -1    0    0  501    0  0.00000000000E+00  0.00000000000E+00  0.20342686091E+02  0.20392186675E+02  0.14200000000E+01 0. -1.
         -4   -1    0    0    0  501 -0.00000000000E+00 -0.00000000000E+00 -0.47582891997E+01  0.49656536436E+01  0.14200000000E+01 0.  1.
       1023    2    1    2    0    0  0.00000000000E+00  0.00000000000E+00  0.15584396891E+02  0.25357840318E+02  0.20003665643E+02 0.  0.
        -13    1    3    3    0    0  0.99715449219E+01  0.76961099584E+00  0.78409347478E+01  0.12708872469E+02  0.10570000000E+00 0. -1.
         13    1    3    3    0    0 -0.99715449219E+01 -0.76961099584E+00  0.77434621431E+01  0.12648967850E+02  0.10570000000E+00 0.  1.
<mgrwt>
<rscale>  0 0.20003666E+02</rscale>
<asrwt>0</asrwt>
<pdfrwt beam="1">  1        4 0.31494028E-02 0.20003666E+02</pdfrwt>
<pdfrwt beam="2">  1       -4 0.75180335E-03 0.20003666E+02</pdfrwt>
<totfact> 0.12700933E+06</totfact>
</mgrwt>
</event>
<event>
 5    1  0.4710515E-007  0.2000125E+02  0.7818608E-02  0.1745303E+00
         -4   -1    0    0    0  501 -0.00000000000E+00  0.00000000000E+00  0.10364621708E+03  0.10365594394E+03  0.14200000000E+01 0. -1.
          4   -1    0    0  501    0  0.00000000000E+00 -0.00000000000E+00 -0.42737020146E+00  0.14829178295E+01  0.14200000000E+01 0.  1.
       1023    2    1    2    0    0  0.00000000000E+00  0.00000000000E+00  0.10321884688E+03  0.10513886177E+03  0.20001247565E+02 0.  0.
        -13    1    3    3    0    0  0.86680871914E+01 -0.49865193167E+01  0.51682468716E+02  0.52641142232E+02  0.10570000000E+00 0. -1.
         13    1    3    3    0    0 -0.86680871914E+01  0.49865193167E+01  0.51536378159E+02  0.52497719538E+02  0.10570000000E+00 0.  1.
<mgrwt>
<rscale>  0 0.20001248E+02</rscale>
<asrwt>0</asrwt>
<pdfrwt beam="2">  1        4 0.14769351E-03 0.20001248E+02</pdfrwt>
<pdfrwt beam="1">  1       -4 0.16027510E-01 0.20001248E+02</pdfrwt>
<totfact> 0.96561100E+05</totfact>
</mgrwt>
</event>
<event>
 4    1  0.4710515E-007  0.2003723E+02  0.7818608E-02  0.1744589E+00
         -4   -1    0    0    0  501 -0.00000000000E+00  0.00000000000E+00  0.10926004101E+01  0.17916963069E+01  0.14200000000E+01 0. -1.
          4   -1    0    0  501    0  0.00000000000E+00 -0.00000000000E+00 -0.68891234602E+02  0.68905867711E+02  0.14200000000E+01 0.  1.
        -13    1    1    2    0    0 -0.64666428868E+01 -0.76366823082E+01 -0.32225207487E+02  0.33743318701E+02  0.10570000000E+00 0. -1.
         13    1    1    2    0    0  0.64666428868E+01  0.76366823082E+01 -0.35573426705E+02  0.36954245317E+02  0.10570000000E+00 0.  1.
<mgrwt>
<rscale>  0 0.20037234E+02</rscale>
<asrwt>0</asrwt>
<pdfrwt beam="2">  1        4 0.10653551E-01 0.20037234E+02</pdfrwt>
<pdfrwt beam="1">  1       -4 0.22299466E-03 0.20037234E+02</pdfrwt>
<totfact> 0.10686278E+06</totfact>
</mgrwt>
</event>
<event>
 4    1  0.4710515E-007  0.2008466E+02  0.7818608E-02  0.1743650E+00
          4   -1    0    0  501    0  0.00000000000E+00  0.00000000000E+00  0.86479347249E+01  0.87637420664E+01  0.14200000000E+01 0. -1.
         -4   -1    0    0    0  501 -0.00000000000E+00 -0.00000000000E+00 -0.11423942486E+02  0.11511857448E+02  0.14200000000E+01 0.  1.
        -13    1    1    2    0    0 -0.66717087755E+01  0.74678653140E+01 -0.21411162838E+01  0.10240911178E+02  0.10570000000E+00 0. -1.
         13    1    1    2    0    0  0.66717087755E+01 -0.74678653140E+01 -0.63489147683E+00  0.10034688336E+02  0.10570000000E+00 0.  1.
<mgrwt>
<rscale>  0 0.20084664E+02</rscale>
<asrwt>0</asrwt>
<pdfrwt beam="1">  1        4 0.13461224E-02 0.20084664E+02</pdfrwt>
<pdfrwt beam="2">  1       -4 0.17732006E-02 0.20084664E+02</pdfrwt>
<totfact> 0.12885996E+06</totfact>
</mgrwt>
</event>
<event>
 4    1  0.4710515E-007  0.2002133E+02  0.7818608E-02  0.1744904E+00
         -4   -1    0    0    0  501 -0.00000000000E+00  0.00000000000E+00  0.74460833789E+01  0.75802742487E+01  0.14200000000E+01 0.  1.
          4   -1    0    0  501    0  0.00000000000E+00 -0.00000000000E+00 -0.13165643451E+02  0.13242000132E+02  0.14200000000E+01 0. -1.
        -13    1    1    2    0    0 -0.76432152443E+01  0.64603450569E+01 -0.30863619525E+01  0.10473375775E+02  0.10570000000E+00 0.  1.
         13    1    1    2    0    0  0.76432152443E+01 -0.64603450569E+01 -0.26331981200E+01  0.10348898606E+02  0.10570000000E+00 0. -1.
<mgrwt>
<rscale>  0 0.20021332E+02</rscale>
<asrwt>0</asrwt>
<pdfrwt beam="2">  1        4 0.20416796E-02 0.20021332E+02</pdfrwt>
<pdfrwt beam="1">  1       -4 0.11617473E-02 0.20021332E+02</pdfrwt>
<totfact> 0.12937083E+06</totfact>
</mgrwt>
</event>
<event>
 5    1  0.4710515E-007  0.2000583E+02  0.7818608E-02  0.1745212E+00
          4   -1    0    0  501    0  0.00000000000E+00  0.00000000000E+00  0.21436676092E+02  0.21483656157E+02  0.14200000000E+01 0. -1.
         -4   -1    0    0    0  501 -0.00000000000E+00 -0.00000000000E+00 -0.45061925525E+01  0.47246345171E+01  0.14200000000E+01 0.  1.
       1023    2    1    2    0    0  0.00000000000E+00  0.00000000000E+00  0.16930483539E+02  0.26208290674E+02  0.20005829830E+02 0.  0.
        -13    1    3    3    0    0  0.77407317010E+01  0.63338302672E+01  0.83290917237E+01  0.13016192783E+02  0.10570000000E+00 0.  1.
         13    1    3    3    0    0 -0.77407317010E+01 -0.63338302672E+01  0.86013918157E+01  0.13192097892E+02  0.10570000000E+00 0. -1.
<mgrwt>
<rscale>  0 0.20005830E+02</rscale>
<asrwt>0</asrwt>
<pdfrwt beam="1">  1        4 0.33183672E-02 0.20005830E+02</pdfrwt>
<pdfrwt beam="2">  1       -4 0.71367748E-03 0.20005830E+02</pdfrwt>
<totfact> 0.12651212E+06</totfact>
</mgrwt>
</event>
<event>
 5    1  0.4710515E-007  0.2000283E+02  0.7818608E-02  0.1745272E+00
          4   -1    0    0  501    0  0.00000000000E+00  0.00000000000E+00  0.54876026007E+02  0.54894395254E+02  0.14200000000E+01 0.  1.
         -4   -1    0    0    0  501 -0.00000000000E+00 -0.00000000000E+00 -0.15246632344E+01  0.20835061743E+01  0.14200000000E+01 0. -1.
       1023    2    1    2    0    0  0.00000000000E+00  0.00000000000E+00  0.53351362773E+02  0.56977901428E+02  0.20002833337E+02 0.  0.
        -13    1    3    3    0    0 -0.52691697337E+01 -0.84999485124E+01  0.26498055876E+02  0.28322630741E+02  0.10570000000E+00 0. -1.
         13    1    3    3    0    0  0.52691697337E+01  0.84999485124E+01  0.26853306897E+02  0.28655270688E+02  0.10570000000E+00 0.  1.
<mgrwt>
<rscale>  0 0.20002833E+02</rscale>
<asrwt>0</asrwt>
<pdfrwt beam="1">  1        4 0.84868661E-02 0.20002833E+02</pdfrwt>
<pdfrwt beam="2">  1       -4 0.27896452E-03 0.20002833E+02</pdfrwt>
<totfact> 0.11233102E+06</totfact>
</mgrwt>
</event>
<event>
 4    1  0.4710515E-007  0.2002147E+02  0.7818608E-02  0.1744902E+00
          4   -1    0    0  501    0  0.00000000000E+00  0.00000000000E+00  0.11426678502E+03  0.11427560789E+03  0.14200000000E+01 0.  1.
         -4   -1    0    0    0  501 -0.00000000000E+00 -0.00000000000E+00 -0.28748239999E+00  0.14488085209E+01  0.14200000000E+01 0. -1.
        -13    1    1    2    0    0 -0.19612328162E+01 -0.98161424722E+01  0.56857550281E+02  0.57732099249E+02  0.10570000000E+00 0. -1.
         13    1    1    2    0    0  0.19612328162E+01  0.98161424722E+01  0.57121752342E+02  0.57992317166E+02  0.10570000000E+00 0.  1.
<mgrwt>
<rscale>  0 0.20021467E+02</rscale>
<asrwt>0</asrwt>
<pdfrwt beam="1">  1        4 0.17669499E-01 0.20021467E+02</pdfrwt>
<pdfrwt beam="2">  1       -4 0.13423966E-03 0.20021467E+02</pdfrwt>
<totfact> 0.93548562E+05</totfact>
</mgrwt>
</event>
<event>
 5    1  0.4710515E-007  0.2000176E+02  0.7818608E-02  0.1745293E+00
         -4   -1    0    0    0  501 -0.00000000000E+00  0.00000000000E+00  0.74512626055E+02  0.74526155419E+02  0.14200000000E+01 0.  1.
          4   -1    0    0  501    0  0.00000000000E+00 -0.00000000000E+00 -0.94918521418E+00  0.17080259280E+01  0.14200000000E+01 0. -1.
       1023    2    1    2    0    0  0.00000000000E+00  0.00000000000E+00  0.73563440841E+02  0.76234181347E+02  0.20001764357E+02 0.  0.
        -13    1    3    3    0    0  0.99989604299E+01  0.16421294507E+00  0.36716115264E+02  0.38053783887E+02  0.10570000000E+00 0. -1.
         13    1    3    3    0    0 -0.99989604299E+01 -0.16421294507E+00  0.36847325577E+02  0.38180397460E+02  0.10570000000E+00 0.  1.
<mgrwt>
<rscale>  0 0.20001764E+02</rscale>
<asrwt>0</asrwt>
<pdfrwt beam="2">  1        4 0.20544143E-03 0.20001764E+02</pdfrwt>
<pdfrwt beam="1">  1       -4 0.11522902E-01 0.20001764E+02</pdfrwt>
<totfact> 0.10534146E+06</totfact>
</mgrwt>
</event>
<event>
 5    1  0.4710515E-007  0.2000466E+02  0.7818608E-02  0.1745235E+00
          4   -1    0    0  501    0  0.00000000000E+00  0.00000000000E+00  0.58787610539E+02  0.58804757911E+02  0.14200000000E+01 0.  1.
         -4   -1    0    0    0  501 -0.00000000000E+00 -0.00000000000E+00 -0.13851156436E+01  0.19836696666E+01  0.14200000000E+01 0. -1.
       1023    2    1    2    0    0  0.00000000000E+00  0.00000000000E+00  0.57402494896E+02  0.60788427577E+02  0.20004662133E+02 0.  0.
        -13    1    3    3    0    0  0.87689625688E+01 -0.48104806197E+01  0.28685768657E+02  0.30379597171E+02  0.10570000000E+00 0.  1.
         13    1    3    3    0    0 -0.87689625688E+01  0.48104806197E+01  0.28716726238E+02  0.30408830406E+02  0.10570000000E+00 0. -1.
<mgrwt>
<rscale>  0 0.20004662E+02</rscale>
<asrwt>0</asrwt>
<pdfrwt beam="1">  1        4 0.90916092E-02 0.20004662E+02</pdfrwt>
<pdfrwt beam="2">  1       -4 0.26045637E-03 0.20004662E+02</pdfrwt>
<totfact> 0.11083490E+06</totfact>
</mgrwt>
</event>
<event>
 5    1  0.4710515E-007  0.2000179E+02  0.7818608E-02  0.1745292E+00
          4   -1    0    0  501    0  0.00000000000E+00  0.00000000000E+00  0.39851525299E+02  0.39876816180E+02  0.14200000000E+01 0. -1.
         -4   -1    0    0    0  501 -0.00000000000E+00 -0.00000000000E+00 -0.22806420295E+01  0.26865829722E+01  0.14200000000E+01 0.  1.
       1023    2    1    2    0    0  0.00000000000E+00  0.00000000000E+00  0.37570883270E+02  0.42563399153E+02  0.20001791863E+02 0.  0.
        -13    1    3    3    0    0  0.68737166097E+01  0.72631934341E+01  0.18932688828E+02  0.21411675265E+02  0.10570000000E+00 0. -1.
         13    1    3    3    0    0 -0.68737166097E+01 -0.72631934341E+01  0.18638194442E+02  0.21151723888E+02  0.10570000000E+00 0.  1.
<mgrwt>
<rscale>  0 0.20001792E+02</rscale>
<asrwt>0</asrwt>
<pdfrwt beam="1">  1        4 0.61641749E-02 0.20001792E+02</pdfrwt>
<pdfrwt beam="2">  1       -4 0.38403972E-03 0.20001792E+02</pdfrwt>
<totfact> 0.11842779E+06</totfact>
</mgrwt>
</event>
<event>
 4    1  0.4710515E-007  0.2001295E+02  0.7818608E-02  0.1745071E+00
         -4   -1    0    0    0  501 -0.00000000000E+00  0.00000000000E+00  0.38092668758E+02  0.38119126605E+02  0.14200000000E+01 0. -1.
          4   -1    0    0  501    0  0.00000000000E+00 -0.00000000000E+00 -0.24073408498E+01  0.27949400650E+01  0.14200000000E+01 0.  1.
        -13    1    1    2    0    0  0.92493503511E+01 -0.38089784110E+01  0.18341697534E+02  0.20892291387E+02  0.10570000000E+00 0.  1.
         13    1    1    2    0    0 -0.92493503511E+01  0.38089784110E+01  0.17343630374E+02  0.20021775283E+02  0.10570000000E+00 0. -1.
<mgrwt>
<rscale>  0 0.20012951E+02</rscale>
<asrwt>0</asrwt>
<pdfrwt beam="2">  1        4 0.40221070E-03 0.20012951E+02</pdfrwt>
<pdfrwt beam="1">  1       -4 0.58922607E-02 0.20012951E+02</pdfrwt>
<totfact> 0.11904671E+06</totfact>
</mgrwt>
</event>
<event>
 5    1  0.4996045E-007  0.2000158E+02  0.7818608E-02  0.1745297E+00
          4   -1    0    0  501    0  0.00000000000E+00  0.00000000000E+00  0.25030637551E+02  0.25070883834E+02  0.14200000000E+01 0. -1.
         -4   -1    0    0    0  501 -0.00000000000E+00 -0.00000000000E+00 -0.38246261259E+01  0.40797260941E+01  0.14200000000E+01 0.  1.
       1023    2    1    2    0    0  0.00000000000E+00  0.00000000000E+00  0.21206011425E+02  0.29150609928E+02  0.20001578403E+02 0.  0.
        -13    1    3    3    0    0  0.78964575557E+00 -0.99689851359E+01  0.10573599668E+02  0.14553913133E+02  0.10570000000E+00 0. -1.
         13    1    3    3    0    0 -0.78964575557E+00  0.99689851359E+01  0.10632411758E+02  0.14596696795E+02  0.10570000000E+00 0.  1.
<mgrwt>
<rscale>  0 0.20001578E+02</rscale>
<asrwt>0</asrwt>
<pdfrwt beam="1">  1        4 0.38735863E-02 0.20001578E+02</pdfrwt>
<pdfrwt beam="2">  1       -4 0.61112296E-03 0.20001578E+02</pdfrwt>
<totfact> 0.12498339E+06</totfact>
</mgrwt>
</event>
<event>
 5    1  0.4710515E-007  0.2000156E+02  0.7818608E-02  0.1745297E+00
          4   -1    0    0  501    0  0.00000000000E+00  0.00000000000E+00  0.21055485625E+00  0.14355254604E+01  0.14200000000E+01 0. -1.
         -4   -1    0    0    0  501 -0.00000000000E+00 -0.00000000000E+00 -0.12028746695E+03  0.12029584825E+03  0.14200000000E+01 0.  1.
       1023    2    1    2    0    0  0.00000000000E+00  0.00000000000E+00 -0.12007691210E+03  0.12173137371E+03  0.20001563102E+02 0.  0.
        -13    1    3    3    0    0 -0.65202076360E+01  0.75821101329E+01 -0.59707479242E+02  0.60539208382E+02  0.10570000000E+00 0.  1.
         13    1    3    3    0    0  0.65202076360E+01 -0.75821101329E+01 -0.60369432854E+02  0.61192165326E+02  0.10570000000E+00 0. -1.
<mgrwt>
<rscale>  0 0.20001563E+02</rscale>
<asrwt>0</asrwt>
<pdfrwt beam="1">  1        4 0.12726637E-03 0.20001563E+02</pdfrwt>
<pdfrwt beam="2">  1       -4 0.18600623E-01 0.20001563E+02</pdfrwt>
<totfact> 0.92210020E+05</totfact>
</mgrwt>
</event>
<event>
 5    1  0.4710515E-007  0.2000424E+02  0.7818608E-02  0.1745244E+00
          4   -1    0    0  501    0  0.00000000000E+00  0.00000000000E+00  0.53718475717E+01  0.55563608894E+01  0.14200000000E+01 0. -1.
         -4   -1    0    0    0  501 -0.00000000000E+00 -0.00000000000E+00 -0.18096231391E+02  0.18151859149E+02  0.14200000000E+01 0.  1.
       1023    2    1    2    0    0  0.00000000000E+00  0.00000000000E+00 -0.12724383819E+02  0.23708220038E+02  0.20004243395E+02 0.  0.
        -13    1    3    3    0    0 -0.66031167136E+01  0.75108829194E+01 -0.62087908813E+01  0.11771778509E+02  0.10570000000E+00 0. -1.
         13    1    3    3    0    0  0.66031167136E+01 -0.75108829194E+01 -0.65155929381E+01  0.11936441529E+02  0.10570000000E+00 0.  1.
<mgrwt>
<rscale>  0 0.20004243E+02</rscale>
<asrwt>0</asrwt>
<pdfrwt beam="1">  1        4 0.84491049E-03 0.20004243E+02</pdfrwt>
<pdfrwt beam="2">  1       -4 0.28025080E-02 0.20004243E+02</pdfrwt>
<totfact> 0.12792722E+06</totfact>
</mgrwt>
</event>
<event>
 4    1  0.4710515E-007  0.2001465E+02  0.7818608E-02  0.1745037E+00
         -4   -1    0    0    0  501 -0.00000000000E+00  0.00000000000E+00  0.72307145024E+01  0.73688284154E+01  0.14200000000E+01 0. -1.
          4   -1    0    0  501    0  0.00000000000E+00 -0.00000000000E+00 -0.13543557019E+02  0.13617794856E+02  0.14200000000E+01 0.  1.
        -13    1    1    2    0    0  0.56860756435E+01  0.82336151073E+01 -0.32690989467E+01  0.10527205440E+02  0.10570000000E+00 0. -1.
         13    1    1    2    0    0 -0.56860756435E+01 -0.82336151073E+01 -0.30437435701E+01  0.10459417831E+02  0.10570000000E+00 0.  1.
<mgrwt>
<rscale>  0 0.20014654E+02</rscale>
<asrwt>0</asrwt>
<pdfrwt beam="2">  1        4 0.20999589E-02 0.20014654E+02</pdfrwt>
<pdfrwt beam="1">  1       -4 0.11287524E-02 0.20014654E+02</pdfrwt>
<totfact> 0.12936192E+06</totfact>
</mgrwt>
</event>
<event>
 5    1  0.4710515E-007  0.2000412E+02  0.7818608E-02  0.1745246E+00
         -4   -1    0    0    0  501 -0.00000000000E+00  0.00000000000E+00  0.25498853233E+02  0.25538361659E+02  0.14200000000E+01 0.  1.
          4   -1    0    0  501    0  0.00000000000E+00 -0.00000000000E+00 -0.37508145974E+01  0.40106121907E+01  0.14200000000E+01 0. -1.
       1023    2    1    2    0    0  0.00000000000E+00  0.00000000000E+00  0.21748038636E+02  0.29548973850E+02  0.20004116353E+02 0.  0.
        -13    1    3    3    0    0  0.99695661006E+01  0.78972558748E+00  0.10698739228E+02  0.14645480815E+02  0.10570000000E+00 0. -1.
         13    1    3    3    0    0 -0.99695661006E+01 -0.78972558748E+00  0.11049299408E+02  0.14903493035E+02  0.10570000000E+00 0.  1.
<mgrwt>
<rscale>  0 0.20004116E+02</rscale>
<asrwt>0</asrwt>
<pdfrwt beam="2">  1        4 0.60007195E-03 0.20004116E+02</pdfrwt>
<pdfrwt beam="1">  1       -4 0.39459240E-02 0.20004116E+02</pdfrwt>
<totfact> 0.12474146E+06</totfact>
</mgrwt>
</event>
<event>
 5    1  0.4979751E-007  0.2000129E+02  0.7818608E-02  0.1745302E+00
         -4   -1    0    0    0  501 -0.00000000000E+00  0.00000000000E+00  0.30348738296E+01  0.33506505580E+01  0.14200000000E+01 0. -1.
          4   -1    0    0  501    0  0.00000000000E+00 -0.00000000000E+00 -0.30992036199E+02  0.31024550082E+02  0.14200000000E+01 0.  1.
       1023    2    1    2    0    0  0.00000000000E+00  0.00000000000E+00 -0.27957162369E+02  0.34375200640E+02  0.20001287240E+02 0.  0.
        -13    1    3    3    0    0  0.99329396978E+01  0.11568738290E+01 -0.13991001661E+02  0.17197701825E+02  0.10570000000E+00 0.  1.
         13    1    3    3    0    0 -0.99329396978E+01 -0.11568738290E+01 -0.13966160708E+02  0.17177498814E+02  0.10570000000E+00 0. -1.
<mgrwt>
<rscale>  0 0.20001287E+02</rscale>
<asrwt>0</asrwt>
<pdfrwt beam="2">  1        4 0.47947969E-02 0.20001287E+02</pdfrwt>
<pdfrwt beam="1">  1       -4 0.49369527E-03 0.20001287E+02</pdfrwt>
<totfact> 0.12231287E+06</totfact>
</mgrwt>
</event>
<event>
 5    1  0.4710515E-007  0.2000228E+02  0.7818608E-02  0.1745283E+00
         -4   -1    0    0    0  501 -0.00000000000E+00  0.00000000000E+00  0.15876217734E+01  0.21300100693E+01  0.14200000000E+01 0.  1.
          4   -1    0    0  501    0  0.00000000000E+00 -0.00000000000E+00 -0.53256742108E+02  0.53275669681E+02  0.14200000000E+01 0. -1.
       1023    2    1    2    0    0  0.00000000000E+00  0.00000000000E+00 -0.51669120335E+02  0.55405679750E+02  0.20002283681E+02 0.  0.
        -13    1    3    3    0    0  0.42487349874E+01  0.90531296555E+01 -0.25910926369E+02  0.27774055939E+02  0.10570000000E+00 0. -1.
         13    1    3    3    0    0 -0.42487349874E+01 -0.90531296555E+01 -0.25758193966E+02  0.27631623811E+02  0.10570000000E+00 0.  1.
<mgrwt>
<rscale>  0 0.20002284E+02</rscale>
<asrwt>0</asrwt>
<pdfrwt beam="2">  1        4 0.82365219E-02 0.20002284E+02</pdfrwt>
<pdfrwt beam="1">  1       -4 0.28742769E-03 0.20002284E+02</pdfrwt>
<totfact> 0.11296073E+06</totfact>
</mgrwt>
</event>
<event>
 4    1  0.4710515E-007  0.2092749E+02  0.7818608E-02  0.1727489E+00
          4   -1    0    0  501    0  0.00000000000E+00  0.00000000000E+00  0.46313214860E+01  0.48441241424E+01  0.14200000000E+01 0. -1.
         -4   -1    0    0    0  501 -0.00000000000E+00 -0.00000000000E+00 -0.22874926352E+02  0.22918958432E+02  0.14200000000E+01 0.  1.
        -13    1    1    2    0    0 -0.25039214040E+01 -0.10159187120E+02 -0.91291948153E+01  0.13886398950E+02  0.10570000000E+00 0. -1.
         13    1    1    2    0    0  0.25039214040E+01  0.10159187120E+02 -0.91144100505E+01  0.13876683624E+02  0.10570000000E+00 0.  1.
<mgrwt>
<rscale>  0 0.20927485E+02</rscale>
<asrwt>0</asrwt>
<pdfrwt beam="1">  1        4 0.73226753E-03 0.20927485E+02</pdfrwt>
<pdfrwt beam="2">  1       -4 0.35389759E-02 0.20927485E+02</pdfrwt>
<totfact> 0.11456171E+06</totfact>
</mgrwt>
</event>
<event>
 5    1  0.4710515E-007  0.2000157E+02  0.7818608E-02  0.1745297E+00
          4   -1    0    0  501    0  0.00000000000E+00  0.00000000000E+00  0.96151769378E+00  0.17149099905E+01  0.14200000000E+01 0. -1.
         -4   -1    0    0    0  501 -0.00000000000E+00 -0.00000000000E+00 -0.73976049175E+02  0.73989676655E+02  0.14200000000E+01 0.  1.
       1023    2    1    2    0    0  0.00000000000E+00  0.00000000000E+00 -0.73014531481E+02  0.75704586645E+02  0.20001565733E+02 0.  0.
        -13    1    3    3    0    0 -0.66651560981E+01  0.74552103875E+01 -0.36491334001E+02  0.37836927695E+02  0.10570000000E+00 0. -1.
         13    1    3    3    0    0  0.66651560981E+01 -0.74552103875E+01 -0.36523197479E+02  0.37867658950E+02  0.10570000000E+00 0.  1.
<mgrwt>
<rscale>  0 0.20001566E+02</rscale>
<asrwt>0</asrwt>
<pdfrwt beam="1">  1        4 0.20692738E-03 0.20001566E+02</pdfrwt>
<pdfrwt beam="2">  1       -4 0.11439929E-01 0.20001566E+02</pdfrwt>
<totfact> 0.10552201E+06</totfact>
</mgrwt>
</event>
<event>
 5    1  0.4710515E-007  0.2000334E+02  0.7818608E-02  0.1745262E+00
          4   -1    0    0  501    0  0.00000000000E+00  0.00000000000E+00  0.33629485903E+02  0.33659452195E+02  0.14200000000E+01 0. -1.
         -4   -1    0    0    0  501 -0.00000000000E+00 -0.00000000000E+00 -0.27719297085E+01  0.31144813868E+01  0.14200000000E+01 0.  1.
       1023    2    1    2    0    0  0.00000000000E+00  0.00000000000E+00  0.30857556194E+02  0.36773933582E+02  0.20003335142E+02 0.  0.
        -13    1    3    3    0    0 -0.59233165040E+01  0.80570082704E+01  0.15695952774E+02  0.18611157047E+02  0.10570000000E+00 0.  1.
         13    1    3    3    0    0  0.59233165040E+01 -0.80570082704E+01  0.15161603421E+02  0.18162776535E+02  0.10570000000E+00 0. -1.
<mgrwt>
<rscale>  0 0.20003335E+02</rscale>
<asrwt>0</asrwt>
<pdfrwt beam="1">  1        4 0.52024226E-02 0.20003335E+02</pdfrwt>
<pdfrwt beam="2">  1       -4 0.45510593E-03 0.20003335E+02</pdfrwt>
<totfact> 0.12111399E+06</totfact>
</mgrwt>
</event>
<event>
 5    1  0.4710515E-007  0.2000313E+02  0.7818608E-02  0.1745266E+00
         -4   -1    0    0    0  501 -0.00000000000E+00  0.00000000000E+00  0.97322237396E+01  0.98352721832E+01  0.14200000000E+01 0.  1.
          4   -1    0    0  501    0  0.00000000000E+00 -0.00000000000E+00 -0.10071112871E+02  0.10170728315E+02  0.14200000000E+01 0. -1.
       1023    2    1    2    0    0  0.00000000000E+00  0.00000000000E+00 -0.33888913127E+00  0.20006000498E+02  0.20003130007E+02 0.  0.
        -13    1    3    3    0    0  0.54932710295E+01 -0.83571890176E+01 -0.20811732654E+00  0.10003655342E+02  0.10570000000E+00 0. -1.
         13    1    3    3    0    0 -0.54932710295E+01  0.83571890176E+01 -0.13077180474E+00  0.10002345157E+02  0.10570000000E+00 0.  1.
<mgrwt>
<rscale>  0 0.20003130E+02</rscale>
<asrwt>0</asrwt>
<pdfrwt beam="2">  1        4 0.15649915E-02 0.20003130E+02</pdfrwt>
<pdfrwt beam="1">  1       -4 0.15128547E-02 0.20003130E+02</pdfrwt>
<totfact> 0.13009531E+06</totfact>
</mgrwt>
</event>
<event>
 5    1  0.4710515E-007  0.2001164E+02  0.7818608E-02  0.1745097E+00
          4   -1    0    0  501    0  0.00000000000E+00  0.00000000000E+00  0.92064869516E+01  0.93153530255E+01  0.14200000000E+01 0. -1.
         -4   -1    0    0    0  501 -0.00000000000E+00 -0.00000000000E+00 -0.10654382241E+02  0.10748593440E+02  0.14200000000E+01 0.  1.
       1023    2    1    2    0    0  0.00000000000E+00  0.00000000000E+00 -0.14478952891E+01  0.20063946465E+02  0.20011635290E+02 0.  0.
        -13    1    3    3    0    0  0.95637669179E+01  0.29261405820E+01 -0.10026633341E+01  0.10052086481E+02  0.10570000000E+00 0.  1.
         13    1    3    3    0    0 -0.95637669179E+01 -0.29261405820E+01 -0.44523195506E+00  0.10011859984E+02  0.10570000000E+00 0. -1.
<mgrwt>
<rscale>  0 0.20011635E+02</rscale>
<asrwt>0</asrwt>
<pdfrwt beam="1">  1        4 0.14320039E-02 0.20011635E+02</pdfrwt>
<pdfrwt beam="2">  1       -4 0.16547571E-02 0.20011635E+02</pdfrwt>
<totfact> 0.12994807E+06</totfact>
</mgrwt>
</event>
<event>
 4    1  0.4710515E-007  0.2012066E+02  0.7818608E-02  0.1742939E+00
         -4   -1    0    0    0  501 -0.00000000000E+00  0.00000000000E+00  0.96451841224E+01  0.97491526173E+01  0.14200000000E+01 0.  1.
          4   -1    0    0  501    0  0.00000000000E+00 -0.00000000000E+00 -0.10284076154E+02  0.10381648344E+02  0.14200000000E+01 0. -1.
        -13    1    1    2    0    0 -0.14912613553E+01 -0.99410988713E+01  0.67739199404E-01  0.10053112368E+02  0.10570000000E+00 0. -1.
         13    1    1    2    0    0  0.14912613553E+01  0.99410988713E+01 -0.70663123128E+00  0.10077688593E+02  0.10570000000E+00 0.  1.
<mgrwt>
<rscale>  0 0.20120660E+02</rscale>
<asrwt>0</asrwt>
<pdfrwt beam="2">  1        4 0.15976687E-02 0.20120660E+02</pdfrwt>
<pdfrwt beam="1">  1       -4 0.14993776E-02 0.20120660E+02</pdfrwt>
<totfact> 0.12847395E+06</totfact>
</mgrwt>
</event>
<event>
 4    1  0.4710515E-007  0.2003849E+02  0.7818608E-02  0.1744564E+00
          4   -1    0    0  501    0  0.00000000000E+00  0.00000000000E+00  0.24750479037E+02  0.24791180137E+02  0.14200000000E+01 0.  1.
         -4   -1    0    0    0  501 -0.00000000000E+00 -0.00000000000E+00 -0.38861001329E+01  0.41374115390E+01  0.14200000000E+01 0. -1.
        -13    1    1    2    0    0 -0.62804914658E+01 -0.77855302337E+01  0.96218769320E+01  0.13879868236E+02  0.10570000000E+00 0. -1.
         13    1    1    2    0    0  0.62804914658E+01  0.77855302337E+01  0.11242501972E+02  0.15048723440E+02  0.10570000000E+00 0.  1.
<mgrwt>
<rscale>  0 0.20038491E+02</rscale>
<asrwt>0</asrwt>
<pdfrwt beam="1">  1        4 0.38302285E-02 0.20038491E+02</pdfrwt>
<pdfrwt beam="2">  1       -4 0.62032406E-03 0.20038491E+02</pdfrwt>
<totfact> 0.12463262E+06</totfact>
</mgrwt>
</event>
<event>
 5    1  0.4710515E-007  0.2000998E+02  0.7818608E-02  0.1745130E+00
          4   -1    0    0  501    0  0.00000000000E+00  0.00000000000E+00  0.27335559076E+02  0.27372416590E+02  0.14200000000E+01 0.  1.
         -4   -1    0    0    0  501 -0.00000000000E+00 -0.00000000000E+00 -0.34833120606E+01  0.37616303528E+01  0.14200000000E+01 0. -1.
       1023    2    1    2    0    0  0.00000000000E+00  0.00000000000E+00  0.23852247015E+02  0.31134046943E+02  0.20009977296E+02 0.  0.
        -13    1    3    3    0    0 -0.97239398750E+01  0.23523069290E+01  0.11900520444E+02  0.15547408591E+02  0.10570000000E+00 0.  1.
         13    1    3    3    0    0  0.97239398750E+01 -0.23523069290E+01  0.11951726571E+02  0.15586638351E+02  0.10570000000E+00 0. -1.
<mgrwt>
<rscale>  0 0.20009977E+02</rscale>
<asrwt>0</asrwt>
<pdfrwt beam="1">  1        4 0.42297150E-02 0.20009977E+02</pdfrwt>
<pdfrwt beam="2">  1       -4 0.56013844E-03 0.20009977E+02</pdfrwt>
<totfact> 0.12384375E+06</totfact>
</mgrwt>
</event>
<event>
 5    1  0.4710515E-007  0.2000641E+02  0.7818608E-02  0.1745201E+00
         -4   -1    0    0    0  501 -0.00000000000E+00  0.00000000000E+00  0.11804275210E+02  0.11889378169E+02  0.14200000000E+01 0. -1.
          4   -1    0    0  501    0  0.00000000000E+00 -0.00000000000E+00 -0.83008770690E+01  0.84214583128E+01  0.14200000000E+01 0.  1.
       1023    2    1    2    0    0  0.00000000000E+00  0.00000000000E+00  0.35033981413E+01  0.20310836482E+02  0.20006405975E+02 0.  0.
        -13    1    3    3    0    0 -0.91670741506E+01 -0.40021000574E+01  0.17222023494E+01  0.10150330378E+02  0.10570000000E+00 0.  1.
         13    1    3    3    0    0  0.91670741506E+01  0.40021000574E+01  0.17811957918E+01  0.10160506104E+02  0.10570000000E+00 0. -1.
<mgrwt>
<rscale>  0 0.20006406E+02</rscale>
<asrwt>0</asrwt>
<pdfrwt beam="2">  1        4 0.12928799E-02 0.20006406E+02</pdfrwt>
<pdfrwt beam="1">  1       -4 0.18318642E-02 0.20006406E+02</pdfrwt>
<totfact> 0.12987052E+06</totfact>
</mgrwt>
</event>
<event>
 4    1  0.4710515E-007  0.2003884E+02  0.7818608E-02  0.1744557E+00
          4   -1    0    0  501    0  0.00000000000E+00  0.00000000000E+00  0.14292325334E+01  0.20147222227E+01  0.14200000000E+01 0. -1.
         -4   -1    0    0    0  501 -0.00000000000E+00 -0.00000000000E+00 -0.57702836091E+02  0.57720305724E+02  0.14200000000E+01 0.  1.
        -13    1    1    2    0    0  0.71862849423E+01  0.69739299848E+01 -0.27197853372E+02  0.28982974161E+02  0.10570000000E+00 0.  1.
         13    1    1    2    0    0 -0.71862849423E+01 -0.69739299848E+01 -0.29075750185E+02  0.30752053786E+02  0.10570000000E+00 0. -1.
<mgrwt>
<rscale>  0 0.20038840E+02</rscale>
<asrwt>0</asrwt>
<pdfrwt beam="1">  1        4 0.26626346E-03 0.20038840E+02</pdfrwt>
<pdfrwt beam="2">  1       -4 0.89237394E-02 0.20038840E+02</pdfrwt>
<totfact> 0.11085673E+06</totfact>
</mgrwt>
</event>
<event>
 5    1  0.4710515E-007  0.2000306E+02  0.7818608E-02  0.1745267E+00
          4   -1    0    0  501    0  0.00000000000E+00  0.00000000000E+00  0.75110626701E+00  0.16064123457E+01  0.14200000000E+01 0.  1.
         -4   -1    0    0    0  501 -0.00000000000E+00 -0.00000000000E+00 -0.83997470702E+02  0.84009472587E+02  0.14200000000E+01 0. -1.
       1023    2    1    2    0    0  0.00000000000E+00  0.00000000000E+00 -0.83246364435E+02  0.85615884933E+02  0.20003063794E+02 0.  0.
        -13    1    3    3    0    0 -0.94276546403E+01  0.33350567362E+01 -0.41078538186E+02  0.42278372100E+02  0.10570000000E+00 0.  1.
         13    1    3    3    0    0  0.94276546403E+01 -0.33350567362E+01 -0.42167826249E+02  0.43337512833E+02  0.10570000000E+00 0. -1.
<mgrwt>
<rscale>  0 0.20003064E+02</rscale>
<asrwt>0</asrwt>
<pdfrwt beam="1">  1        4 0.18227087E-03 0.20003064E+02</pdfrwt>
<pdfrwt beam="2">  1       -4 0.12989399E-01 0.20003064E+02</pdfrwt>
<totfact> 0.10228182E+06</totfact>
</mgrwt>
</event>
<event>
 5    1  0.4710515E-007  0.2000313E+02  0.7818608E-02  0.1745266E+00
          4   -1    0    0  501    0  0.00000000000E+00  0.00000000000E+00  0.32601883293E+00  0.14569448443E+01  0.14200000000E+01 0.  1.
         -4   -1    0    0    0  501 -0.00000000000E+00 -0.00000000000E+00 -0.11106956807E+03  0.11107864489E+03  0.14200000000E+01 0. -1.
       1023    2    1    2    0    0  0.00000000000E+00  0.00000000000E+00 -0.11074354923E+03  0.11253558974E+03  0.20003131252E+02 0.  0.
        -13    1    3    3    0    0  0.24681978240E+01  0.96912303734E+01 -0.55881091947E+02  0.56769001720E+02  0.10570000000E+00 0.  1.
         13    1    3    3    0    0 -0.24681978240E+01 -0.96912303734E+01 -0.54862457288E+02  0.55766588015E+02  0.10570000000E+00 0. -1.
<mgrwt>
<rscale>  0 0.20003131E+02</rscale>
<asrwt>0</asrwt>
<pdfrwt beam="1">  1        4 0.13784936E-03 0.20003131E+02</pdfrwt>
<pdfrwt beam="2">  1       -4 0.17175307E-01 0.20003131E+02</pdfrwt>
<totfact> 0.94550640E+05</totfact>
</mgrwt>
</event>
<event>
 5    1  0.4710515E-007  0.2001112E+02  0.7818608E-02  0.1745107E+00
         -4   -1    0    0    0  501 -0.00000000000E+00  0.00000000000E+00  0.98021850623E+00  0.17254646678E+01  0.14200000000E+01 0. -1.
          4   -1    0    0  501    0  0.00000000000E+00 -0.00000000000E+00 -0.73246656236E+02  0.73260419394E+02  0.14200000000E+01 0.  1.
       1023    2    1    2    0    0  0.00000000000E+00  0.00000000000E+00 -0.72266437730E+02  0.74985884062E+02  0.20011116569E+02 0.  0.
        -13    1    3    3    0    0 -0.44702004824E+01 -0.89499065725E+01 -0.35651821205E+02  0.37029002792E+02  0.10570000000E+00 0. -1.
         13    1    3    3    0    0  0.44702004824E+01  0.89499065725E+01 -0.36614616525E+02  0.37956881270E+02  0.10570000000E+00 0.  1.
<mgrwt>
<rscale>  0 0.20011117E+02</rscale>
<asrwt>0</asrwt>
<pdfrwt beam="2">  1        4 0.11327099E-01 0.20011117E+02</pdfrwt>
<pdfrwt beam="1">  1       -4 0.20918824E-03 0.20011117E+02</pdfrwt>
<totfact> 0.10566417E+06</totfact>
</mgrwt>
</event>
<event>
 5    1  0.4710515E-007  0.2000173E+02  0.7818608E-02  0.1745294E+00
         -4   -1    0    0    0  501 -0.00000000000E+00  0.00000000000E+00  0.10765376217E+01  0.17819464781E+01  0.14200000000E+01 0. -1.
          4   -1    0    0  501    0  0.00000000000E+00 -0.00000000000E+00 -0.69264765197E+02  0.69279319409E+02  0.14200000000E+01 0.  1.
       1023    2    1    2    0    0  0.00000000000E+00  0.00000000000E+00 -0.68188227575E+02  0.71061265887E+02  0.20001728166E+02 0.  0.
        -13    1    3    3    0    0 -0.53831863733E+01  0.84277694895E+01 -0.34055879016E+02  0.35493944021E+02  0.10570000000E+00 0. -1.
         13    1    3    3    0    0  0.53831863733E+01 -0.84277694895E+01 -0.34132348559E+02  0.35567321866E+02  0.10570000000E+00 0.  1.
<mgrwt>
<rscale>  0 0.20001728E+02</rscale>
<asrwt>0</asrwt>
<pdfrwt beam="2">  1        4 0.10711497E-01 0.20001728E+02</pdfrwt>
<pdfrwt beam="1">  1       -4 0.22100300E-03 0.20001728E+02</pdfrwt>
<totfact> 0.10711637E+06</totfact>
</mgrwt>
</event>
<event>
 4    1  0.4710515E-007  0.2002933E+02  0.7818608E-02  0.1744745E+00
          4   -1    0    0  501    0  0.00000000000E+00  0.00000000000E+00  0.98027885892E+02  0.98038170182E+02  0.14200000000E+01 0.  1.
         -4   -1    0    0    0  501 -0.00000000000E+00 -0.00000000000E+00 -0.51499321160E+00  0.15105025680E+01  0.14200000000E+01 0. -1.
        -13    1    1    2    0    0  0.14519130480E+01  0.98944545174E+01  0.46154597298E+02  0.47225695400E+02  0.10570000000E+00 0. -1.
         13    1    1    2    0    0 -0.14519130480E+01 -0.98944545174E+01  0.51358295382E+02  0.52322977350E+02  0.10570000000E+00 0.  1.
<mgrwt>
<rscale>  0 0.20029329E+02</rscale>
<asrwt>0</asrwt>
<pdfrwt beam="1">  1        4 0.15158590E-01 0.20029329E+02</pdfrwt>
<pdfrwt beam="2">  1       -4 0.15659838E-03 0.20029329E+02</pdfrwt>
<totfact> 0.97854613E+05</totfact>
</mgrwt>
</event>
<event>
 4    1  0.4710515E-007  0.2006632E+02  0.7818608E-02  0.1744012E+00
         -4   -1    0    0    0  501 -0.00000000000E+00  0.00000000000E+00  0.80331202790E+02  0.80343752350E+02  0.14200000000E+01 0. -1.
          4   -1    0    0  501    0  0.00000000000E+00 -0.00000000000E+00 -0.83404708228E+00  0.16468255935E+01  0.14200000000E+01 0.  1.
        -13    1    1    2    0    0 -0.97561942935E+01  0.23216325397E+01  0.38594339105E+02  0.39876151873E+02  0.10570000000E+00 0. -1.
         13    1    1    2    0    0  0.97561942935E+01 -0.23216325397E+01  0.40902816602E+02  0.42114426070E+02  0.10570000000E+00 0.  1.
<mgrwt>
<rscale>  0 0.20066318E+02</rscale>
<asrwt>0</asrwt>
<pdfrwt beam="2">  1        4 0.19180168E-03 0.20066318E+02</pdfrwt>
<pdfrwt beam="1">  1       -4 0.12422136E-01 0.20066318E+02</pdfrwt>
<totfact> 0.10278218E+06</totfact>
</mgrwt>
</event>
<event>
 5    1  0.5013552E-007  0.2000129E+02  0.7818608E-02  0.1745302E+00
          4   -1    0    0  501    0  0.00000000000E+00  0.00000000000E+00  0.88493989097E+01  0.89626034758E+01  0.14200000000E+01 0.  1.
         -4   -1    0    0    0  501 -0.00000000000E+00 -0.00000000000E+00 -0.11070995767E+02  0.11161691057E+02  0.14200000000E+01 0. -1.
       1023    2    1    2    0    0  0.00000000000E+00  0.00000000000E+00 -0.22215968568E+01  0.20124294533E+02  0.20001293405E+02 0.  0.
        -13    1    3    3    0    0  0.19641049206E+01 -0.98052943301E+01 -0.10946705819E+01  0.10060366853E+02  0.10570000000E+00 0.  1.
         13    1    3    3    0    0 -0.19641049206E+01  0.98052943301E+01 -0.11269262750E+01  0.10063927680E+02  0.10570000000E+00 0. -1.
<mgrwt>
<rscale>  0 0.20001293E+02</rscale>
<asrwt>0</asrwt>
<pdfrwt beam="1">  1        4 0.13771306E-02 0.20001293E+02</pdfrwt>
<pdfrwt beam="2">  1       -4 0.17189147E-02 0.20001293E+02</pdfrwt>
<totfact> 0.13004948E+06</totfact>
</mgrwt>
</event>
<event>
 5    1  0.4710515E-007  0.2000276E+02  0.7818608E-02  0.1745273E+00
          4   -1    0    0  501    0  0.00000000000E+00  0.00000000000E+00  0.16354495070E+02  0.16416025980E+02  0.14200000000E+01 0. -1.
         -4   -1    0    0    0  501 -0.00000000000E+00 -0.00000000000E+00 -0.59596235282E+01  0.61264600380E+01  0.14200000000E+01 0. -1.
       1023    2    1    2    0    0  0.00000000000E+00  0.00000000000E+00  0.10394871542E+02  0.22542486018E+02  0.20002757848E+02 0.  0.
        -13    1    3    3    0    0 -0.25428751099E+01 -0.96721282580E+01  0.51846345005E+01  0.11265340042E+02  0.10570000000E+00 0.  1.
         13    1    3    3    0    0  0.25428751099E+01  0.96721282580E+01  0.52102370412E+01  0.11277145977E+02  0.10570000000E+00 0. -1.
<mgrwt>
<rscale>  0 0.20002758E+02</rscale>
<asrwt>0</asrwt>
<pdfrwt beam="1">  1        4 0.25336429E-02 0.20002758E+02</pdfrwt>
<pdfrwt beam="2">  1       -4 0.93443188E-03 0.20002758E+02</pdfrwt>
<totfact> 0.12861234E+06</totfact>
</mgrwt>
</event>
<event>
 5    1  0.4710515E-007  0.2000340E+02  0.7818608E-02  0.1745261E+00
         -4   -1    0    0    0  501 -0.00000000000E+00  0.00000000000E+00  0.17110110418E+01  0.22235014695E+01  0.14200000000E+01 0.  1.
          4   -1    0    0  501    0  0.00000000000E+00 -0.00000000000E+00 -0.50325685218E+02  0.50345714740E+02  0.14200000000E+01 0. -1.
       1023    2    1    2    0    0  0.00000000000E+00  0.00000000000E+00 -0.48614674176E+02  0.52569216209E+02  0.20003398401E+02 0.  0.
        -13    1    3    3    0    0  0.82413896466E+01 -0.56643215250E+01 -0.23956984596E+02  0.25960611030E+02  0.10570000000E+00 0.  1.
         13    1    3    3    0    0 -0.82413896466E+01  0.56643215250E+01 -0.24657689581E+02  0.26608605179E+02  0.10570000000E+00 0. -1.
<mgrwt>
<rscale>  0 0.20003398E+02</rscale>
<asrwt>0</asrwt>
<pdfrwt beam="2">  1        4 0.77833752E-02 0.20003398E+02</pdfrwt>
<pdfrwt beam="1">  1       -4 0.30419558E-03 0.20003398E+02</pdfrwt>
<totfact> 0.11409594E+06</totfact>
</mgrwt>
</event>
<event>
 5    1  0.4747247E-007  0.2000175E+02  0.7818608E-02  0.1745293E+00
         -4   -1    0    0    0  501 -0.00000000000E+00  0.00000000000E+00  0.29635174783E+02  0.29669175662E+02  0.14200000000E+01 0. -1.
          4   -1    0    0  501    0  0.00000000000E+00 -0.00000000000E+00 -0.31879589082E+01  0.34899114602E+01  0.14200000000E+01 0.  1.
       1023    2    1    2    0    0  0.00000000000E+00  0.00000000000E+00  0.26447215875E+02  0.33159087122E+02  0.20001745704E+02 0.  0.
        -13    1    3    3    0    0  0.99263976562E+01  0.12123420112E+01  0.13130685794E+02  0.16505430182E+02  0.10570000000E+00 0.  1.
         13    1    3    3    0    0 -0.99263976562E+01 -0.12123420112E+01  0.13316530081E+02  0.16653656940E+02  0.10570000000E+00 0. -1.
<mgrwt>
<rscale>  0 0.20001746E+02</rscale>
<asrwt>0</asrwt>
<pdfrwt beam="2">  1        4 0.51629778E-03 0.20001746E+02</pdfrwt>
<pdfrwt beam="1">  1       -4 0.45851003E-02 0.20001746E+02</pdfrwt>
<totfact> 0.12291504E+06</totfact>
</mgrwt>
</event>
<event>
 5    1  0.4710515E-007  0.2000295E+02  0.7818608E-02  0.1745269E+00
          4   -1    0    0  501    0  0.00000000000E+00  0.00000000000E+00  0.26574693119E+02  0.26612604427E+02  0.14200000000E+01 0. -1.
         -4   -1    0    0    0  501 -0.00000000000E+00 -0.00000000000E+00 -0.35880117056E+01  0.38587858193E+01  0.14200000000E+01 0.  1.
       1023    2    1    2    0    0  0.00000000000E+00  0.00000000000E+00  0.22986681414E+02  0.30471390246E+02  0.20002952310E+02 0.  0.
        -13    1    3    3    0    0 -0.62419256834E+01  0.78137421696E+01  0.11563973007E+02  0.15288977962E+02  0.10570000000E+00 0.  1.
         13    1    3    3    0    0  0.62419256834E+01 -0.78137421696E+01  0.11422708407E+02  0.15182412284E+02  0.10570000000E+00 0. -1.
<mgrwt>
<rscale>  0 0.20002952E+02</rscale>
<asrwt>0</asrwt>
<pdfrwt beam="1">  1        4 0.41121592E-02 0.20002952E+02</pdfrwt>
<pdfrwt beam="2">  1       -4 0.57574685E-03 0.20002952E+02</pdfrwt>
<totfact> 0.12427465E+06</totfact>
</mgrwt>
</event>
<event>
 4    1  0.4710515E-007  0.2007573E+02  0.7818608E-02  0.1743826E+00
         -4   -1    0    0    0  501 -0.00000000000E+00  0.00000000000E+00  0.12690311101E+01  0.19044264119E+01  0.14200000000E+01 0. -1.
          4   -1    0    0  501    0  0.00000000000E+00 -0.00000000000E+00 -0.62855886374E+02  0.62871924194E+02  0.14200000000E+01 0.  1.
        -13    1    1    2    0    0 -0.97112436080E+01  0.25375574259E+01 -0.30824297903E+02  0.32417525566E+02  0.10570000000E+00 0. -1.
         13    1    1    2    0    0  0.97112436080E+01 -0.25375574259E+01 -0.30762557360E+02  0.32358825039E+02  0.10570000000E+00 0.  1.
<mgrwt>
<rscale>  0 0.20075728E+02</rscale>
<asrwt>0</asrwt>
<pdfrwt beam="2">  1        4 0.97202447E-02 0.20075728E+02</pdfrwt>
<pdfrwt beam="1">  1       -4 0.24534584E-03 0.20075728E+02</pdfrwt>
<totfact> 0.10856403E+06</totfact>
</mgrwt>
</event>
<event>
 5    1  0.4710515E-007  0.2000256E+02  0.7818608E-02  0.1745277E+00
         -4   -1    0    0    0  501 -0.00000000000E+00  0.00000000000E+00  0.54294907052E+02  0.54313472839E+02  0.14200000000E+01 0.  1.
          4   -1    0    0  501    0  0.00000000000E+00 -0.00000000000E+00 -0.15468648288E+01  0.20998073242E+01  0.14200000000E+01 0. -1.
       1023    2    1    2    0    0  0.00000000000E+00  0.00000000000E+00  0.52748042223E+02  0.56413280163E+02  0.20002555345E+02 0.  0.
        -13    1    3    3    0    0  0.70989388228E+01  0.70436313918E+01  0.26143048700E+02  0.27990674222E+02  0.10570000000E+00 0. -1.
         13    1    3    3    0    0 -0.70989388228E+01 -0.70436313918E+01  0.26604993524E+02  0.28422605941E+02  0.10570000000E+00 0.  1.
<mgrwt>
<rscale>  0 0.20002555E+02</rscale>
<asrwt>0</asrwt>
<pdfrwt beam="2">  1        4 0.28194141E-03 0.20002555E+02</pdfrwt>
<pdfrwt beam="1">  1       -4 0.83970239E-02 0.20002555E+02</pdfrwt>
<totfact> 0.11255704E+06</totfact>
</mgrwt>
</event>
<event>
 4    1  0.4710515E-007  0.2008982E+02  0.7818608E-02  0.1743548E+00
         -4   -1    0    0    0  501 -0.00000000000E+00  0.00000000000E+00  0.32735049449E+02  0.32765833767E+02  0.14200000000E+01 0.  1.
          4   -1    0    0  501    0  0.00000000000E+00 -0.00000000000E+00 -0.28847425088E+01  0.32152977066E+01  0.14200000000E+01 0. -1.
        -13    1    1    2    0    0  0.58331842778E+01  0.81421567557E+01  0.16275346105E+02  0.19110699066E+02  0.10570000000E+00 0. -1.
         13    1    1    2    0    0 -0.58331842778E+01 -0.81421567557E+01  0.13574960836E+02  0.16870432408E+02  0.10570000000E+00 0.  1.
<mgrwt>
<rscale>  0 0.20089823E+02</rscale>
<asrwt>0</asrwt>
<pdfrwt beam="2">  1        4 0.47160190E-03 0.20089823E+02</pdfrwt>
<pdfrwt beam="1">  1       -4 0.50639566E-02 0.20089823E+02</pdfrwt>
<totfact> 0.12043962E+06</totfact>
</mgrwt>
</event>
<event>
 5    1  0.4710515E-007  0.2000710E+02  0.7818608E-02  0.1745187E+00
          4   -1    0    0  501    0  0.00000000000E+00  0.00000000000E+00  0.38746364222E+02  0.38772375996E+02  0.14200000000E+01 0.  1.
         -4   -1    0    0    0  501 -0.00000000000E+00 -0.00000000000E+00 -0.23585358091E+01  0.27530149224E+01  0.14200000000E+01 0. -1.
       1023    2    1    2    0    0  0.00000000000E+00  0.00000000000E+00  0.36387828412E+02  0.41525390919E+02  0.20007099599E+02 0.  0.
        -13    1    3    3    0    0 -0.71359871529E+01 -0.70095517340E+01  0.18320299379E+02  0.20873444133E+02  0.10570000000E+00 0.  1.
         13    1    3    3    0    0  0.71359871529E+01  0.70095517340E+01  0.18067529034E+02  0.20651946786E+02  0.10570000000E+00 0. -1.
<mgrwt>
<rscale>  0 0.20007100E+02</rscale>
<asrwt>0</asrwt>
<pdfrwt beam="1">  1        4 0.59933246E-02 0.20007100E+02</pdfrwt>
<pdfrwt beam="2">  1       -4 0.39519712E-03 0.20007100E+02</pdfrwt>
<totfact> 0.11883661E+06</totfact>
</mgrwt>
</event>
<event>
 5    1  0.4710515E-007  0.2000324E+02  0.7818608E-02  0.1745264E+00
         -4   -1    0    0    0  501 -0.00000000000E+00  0.00000000000E+00  0.53367244597E+00  0.15169727353E+01  0.14200000000E+01 0.  1.
          4   -1    0    0  501    0  0.00000000000E+00 -0.00000000000E+00 -0.96570866420E+02  0.96581305858E+02  0.14200000000E+01 0. -1.
       1023    2    1    2    0    0  0.00000000000E+00  0.00000000000E+00 -0.96037193974E+02  0.98098278593E+02  0.20003240648E+02 0.  0.
        -13    1    3    3    0    0  0.24703378064E+01 -0.96901824147E+01 -0.48695161236E+02  0.49711488656E+02  0.10570000000E+00 0. -1.
         13    1    3    3    0    0 -0.24703378064E+01  0.96901824147E+01 -0.47342032738E+02  0.48386789937E+02  0.10570000000E+00 0.  1.
<mgrwt>
<rscale>  0 0.20003241E+02</rscale>
<asrwt>0</asrwt>
<pdfrwt beam="2">  1        4 0.14933491E-01 0.20003241E+02</pdfrwt>
<pdfrwt beam="1">  1       -4 0.15854505E-03 0.20003241E+02</pdfrwt>
<totfact> 0.98525544E+05</totfact>
</mgrwt>
</event>
<event>
 5    1  0.4710515E-007  0.2000401E+02  0.7818608E-02  0.1745248E+00
         -4   -1    0    0    0  501 -0.00000000000E+00  0.00000000000E+00  0.13440240059E+01  0.19551983348E+01  0.14200000000E+01 0. -1.
          4   -1    0    0  501    0  0.00000000000E+00 -0.00000000000E+00 -0.60023549916E+02  0.60040344307E+02  0.14200000000E+01 0. -1.
       1023    2    1    2    0    0  0.00000000000E+00  0.00000000000E+00 -0.58679525910E+02  0.61995542642E+02  0.20004013258E+02 0.  0.
        -13    1    3    3    0    0  0.98497810481E+01 -0.17342069750E+01 -0.29517892647E+02  0.31166373214E+02  0.10570000000E+00 0. -1.
         13    1    3    3    0    0 -0.98497810481E+01  0.17342069750E+01 -0.29161633263E+02  0.30829169428E+02  0.10570000000E+00 0.  1.
<mgrwt>
<rscale>  0 0.20004013E+02</rscale>
<asrwt>0</asrwt>
<pdfrwt beam="2">  1        4 0.92826959E-02 0.20004013E+02</pdfrwt>
<pdfrwt beam="1">  1       -4 0.25507826E-03 0.20004013E+02</pdfrwt>
<totfact> 0.11038445E+06</totfact>
</mgrwt>
</event>
<event>
 4    1  0.4710515E-007  0.2007027E+02  0.7818608E-02  0.1743934E+00
         -4   -1    0    0    0  501 -0.00000000000E+00  0.00000000000E+00  0.34237243885E+01  0.37065197542E+01  0.14200000000E+01 0. -1.
          4   -1    0    0  501    0  0.00000000000E+00 -0.00000000000E+00 -0.27945453813E+02  0.27981507980E+02  0.14200000000E+01 0.  1.
        -13    1    1    2    0    0 -0.84333654673E+01  0.54379056469E+01 -0.12232248466E+02  0.15821869231E+02  0.10570000000E+00 0.  1.
         13    1    1    2    0    0  0.84333654673E+01 -0.54379056469E+01 -0.12289480959E+02  0.15866158503E+02  0.10570000000E+00 0. -1.
<mgrwt>
<rscale>  0 0.20070274E+02</rscale>
<asrwt>0</asrwt>
<pdfrwt beam="2">  1        4 0.43238273E-02 0.20070274E+02</pdfrwt>
<pdfrwt beam="1">  1       -4 0.55125374E-03 0.20070274E+02</pdfrwt>
<totfact> 0.12280613E+06</totfact>
</mgrwt>
</event>
<event>
 4    1  0.4710515E-007  0.2004359E+02  0.7818608E-02  0.1744463E+00
          4   -1    0    0  501    0  0.00000000000E+00  0.00000000000E+00  0.29781671463E+02  0.29815505281E+02  0.14200000000E+01 0.  1.
         -4   -1    0    0    0  501 -0.00000000000E+00 -0.00000000000E+00 -0.31855045642E+01  0.34876696129E+01  0.14200000000E+01 0. -1.
        -13    1    1    2    0    0  0.21122914599E+01 -0.97792838891E+01  0.14251116888E+02  0.17412687146E+02  0.10570000000E+00 0.  1.
         13    1    1    2    0    0 -0.21122914599E+01  0.97792838891E+01  0.12345050012E+02  0.15890487748E+02  0.10570000000E+00 0. -1.
<mgrwt>
<rscale>  0 0.20043587E+02</rscale>
<asrwt>0</asrwt>
<pdfrwt beam="1">  1        4 0.46076420E-02 0.20043587E+02</pdfrwt>
<pdfrwt beam="2">  1       -4 0.51592366E-03 0.20043587E+02</pdfrwt>
<totfact> 0.12232262E+06</totfact>
</mgrwt>
</event>
<event>
 5    1  0.4710515E-007  0.2000331E+02  0.7818608E-02  0.1745262E+00
         -4   -1    0    0    0  501 -0.00000000000E+00  0.00000000000E+00  0.41925258610E+02  0.41949299273E+02  0.14200000000E+01 0.  1.
          4   -1    0    0  501    0  0.00000000000E+00 -0.00000000000E+00 -0.21477082883E+01  0.25746943297E+01  0.14200000000E+01 0. -1.
       1023    2    1    2    0    0  0.00000000000E+00  0.00000000000E+00  0.39777550322E+02  0.44523993603E+02  0.20003312145E+02 0.  0.
        -13    1    3    3    0    0 -0.16597136372E+01 -0.98622727236E+01  0.20008206446E+02  0.22368696214E+02  0.10570000000E+00 0.  1.
         13    1    3    3    0    0  0.16597136372E+01  0.98622727236E+01  0.19769343875E+02  0.22155297389E+02  0.10570000000E+00 0. -1.
<mgrwt>
<rscale>  0 0.20003312E+02</rscale>
<asrwt>0</asrwt>
<pdfrwt beam="2">  1        4 0.36511107E-03 0.20003312E+02</pdfrwt>
<pdfrwt beam="1">  1       -4 0.64847333E-02 0.20003312E+02</pdfrwt>
<totfact> 0.11752974E+06</totfact>
</mgrwt>
</event>
<event>
 4    1  0.4710515E-007  0.2001696E+02  0.7818608E-02  0.1744991E+00
          4   -1    0    0  501    0  0.00000000000E+00  0.00000000000E+00  0.12082798370E+01  0.18644946137E+01  0.14200000000E+01 0. -1.
         -4   -1    0    0    0  501 -0.00000000000E+00 -0.00000000000E+00 -0.64532480779E+02  0.64548102029E+02  0.14200000000E+01 0. -1.
        -13    1    1    2    0    0  0.97923263353E+01  0.20579077723E+01 -0.31051856533E+02  0.32624432655E+02  0.10570000000E+00 0.  1.
         13    1    1    2    0    0 -0.97923263353E+01 -0.20579077723E+01 -0.32272344409E+02  0.33788163987E+02  0.10570000000E+00 0. -1.
<mgrwt>
<rscale>  0 0.20016957E+02</rscale>
<asrwt>0</asrwt>
<pdfrwt beam="1">  1        4 0.23756895E-03 0.20016957E+02</pdfrwt>
<pdfrwt beam="2">  1       -4 0.99797516E-02 0.20016957E+02</pdfrwt>
<totfact> 0.10860806E+06</totfact>
</mgrwt>
</event>
<event>
 4    1  0.4710515E-007  0.2007137E+02  0.7818608E-02  0.1743913E+00
          4   -1    0    0  501    0  0.00000000000E+00  0.00000000000E+00  0.16569578197E+02  0.16630313335E+02  0.14200000000E+01 0.  1.
         -4   -1    0    0    0  501 -0.00000000000E+00 -0.00000000000E+00 -0.59223698583E+01  0.60902269858E+01  0.14200000000E+01 0. -1.
        -13    1    1    2    0    0  0.44678725980E+01  0.89788825263E+01  0.49288872481E+01  0.11175299502E+02  0.10570000000E+00 0.  1.
         13    1    1    2    0    0 -0.44678725980E+01 -0.89788825263E+01  0.57183210904E+01  0.11545240818E+02  0.10570000000E+00 0. -1.
<mgrwt>
<rscale>  0 0.20071370E+02</rscale>
<asrwt>0</asrwt>
<pdfrwt beam="1">  1        4 0.25667498E-02 0.20071370E+02</pdfrwt>
<pdfrwt beam="2">  1       -4 0.92871786E-03 0.20071370E+02</pdfrwt>
<totfact> 0.12761549E+06</totfact>
</mgrwt>
</event>
<event>
 5    1  0.4710515E-007  0.2000461E+02  0.7818608E-02  0.1745236E+00
          4   -1    0    0  501    0  0.00000000000E+00  0.00000000000E+00  0.30473847681E+01  0.33619866039E+01  0.14200000000E+01 0.  1.
         -4   -1    0    0    0  501 -0.00000000000E+00 -0.00000000000E+00 -0.30886981019E+02  0.30919605373E+02  0.14200000000E+01 0. -1.
       1023    2    1    2    0    0  0.00000000000E+00  0.00000000000E+00 -0.27839596250E+02  0.34281591977E+02  0.20004610196E+02 0.  0.
        -13    1    3    3    0    0  0.96911112561E+01 -0.24732269845E+01 -0.13883619835E+02  0.17111416111E+02  0.10570000000E+00 0.  1.
         13    1    3    3    0    0 -0.96911112561E+01  0.24732269845E+01 -0.13955976415E+02  0.17170175866E+02  0.10570000000E+00 0. -1.
<mgrwt>
<rscale>  0 0.20004610E+02</rscale>
<asrwt>0</asrwt>
<pdfrwt beam="1">  1        4 0.49553815E-03 0.20004610E+02</pdfrwt>
<pdfrwt beam="2">  1       -4 0.47785528E-02 0.20004610E+02</pdfrwt>
<totfact> 0.12231812E+06</totfact>
</mgrwt>
</event>
<event>
 5    1  0.4710515E-007  0.2000291E+02  0.7818608E-02  0.1745270E+00
         -4   -1    0    0    0  501 -0.00000000000E+00  0.00000000000E+00  0.44097601514E+00  0.14868960441E+01  0.14200000000E+01 0. -1.
          4   -1    0    0  501    0  0.00000000000E+00 -0.00000000000E+00 -0.10271802681E+03  0.10272784156E+03  0.14200000000E+01 0.  1.
       1023    2    1    2    0    0  0.00000000000E+00  0.00000000000E+00 -0.10227705079E+03  0.10421473760E+03  0.20002910157E+02 0.  0.
        -13    1    3    3    0    0  0.99986525647E+01  0.20866258023E+00 -0.50947950168E+02  0.51920336978E+02  0.10570000000E+00 0. -1.
         13    1    3    3    0    0 -0.99986525647E+01 -0.20866258023E+00 -0.51329100624E+02  0.52294400623E+02  0.10570000000E+00 0.  1.
<mgrwt>
<rscale>  0 0.20002910E+02</rscale>
<asrwt>0</asrwt>
<pdfrwt beam="2">  1        4 0.15883975E-01 0.20002910E+02</pdfrwt>
<pdfrwt beam="1">  1       -4 0.14905291E-03 0.20002910E+02</pdfrwt>
<totfact> 0.96800504E+05</totfact>
</mgrwt>
</event>
<event>
 4    1  0.4710515E-007  0.2001407E+02  0.7818608E-02  0.1745049E+00
          4   -1    0    0  501    0  0.00000000000E+00  0.00000000000E+00  0.11346058279E+03  0.11346946834E+03  0.14200000000E+01 0. -1.
         -4   -1    0    0    0  501 -0.00000000000E+00 -0.00000000000E+00 -0.29666337771E+00  0.14506581815E+01  0.14200000000E+01 0.  1.
        -13    1    1    2    0    0  0.93108654998E+01  0.36645253595E+01  0.57113555914E+02  0.57983535629E+02  0.10570000000E+00 0.  1.
         13    1    1    2    0    0 -0.93108654998E+01 -0.36645253595E+01  0.56050363495E+02  0.56936590896E+02  0.10570000000E+00 0. -1.
<mgrwt>
<rscale>  0 0.20014066E+02</rscale>
<asrwt>0</asrwt>
<pdfrwt beam="1">  1        4 0.17544914E-01 0.20014066E+02</pdfrwt>
<pdfrwt beam="2">  1       -4 0.13509295E-03 0.20014066E+02</pdfrwt>
<totfact> 0.93825360E+05</totfact>
</mgrwt>
</event>
<event>
 5    1  0.4710515E-007  0.2000335E+02  0.7818608E-02  0.1745261E+00
         -4   -1    0    0    0  501 -0.00000000000E+00  0.00000000000E+00  0.10367706524E+03  0.10368678921E+03  0.14200000000E+01 0. -1.
          4   -1    0    0  501    0  0.00000000000E+00 -0.00000000000E+00 -0.42724391047E+00  0.14828814380E+01  0.14200000000E+01 0.  1.
       1023    2    1    2    0    0  0.00000000000E+00  0.00000000000E+00  0.10324982133E+03  0.10516967065E+03  0.20003350212E+02 0.  0.
        -13    1    3    3    0    0  0.94933462064E+01  0.31455165440E+01  0.51975081020E+02  0.52928613396E+02  0.10570000000E+00 0.  1.
         13    1    3    3    0    0 -0.94933462064E+01 -0.31455165440E+01  0.51274740308E+02  0.52241057251E+02  0.10570000000E+00 0. -1.
<mgrwt>
<rscale>  0 0.20003350E+02</rscale>
<asrwt>0</asrwt>
<pdfrwt beam="2">  1        4 0.14768066E-03 0.20003350E+02</pdfrwt>
<pdfrwt beam="1">  1       -4 0.16032275E-01 0.20003350E+02</pdfrwt>
<totfact> 0.96532359E+05</totfact>
</mgrwt>
</event>
<event>
 4    1  0.4710515E-007  0.2013312E+02  0.7818608E-02  0.1742694E+00
          4   -1    0    0  501    0  0.00000000000E+00  0.00000000000E+00  0.50460288105E+02  0.50480264219E+02  0.14200000000E+01 0. -1.
         -4   -1    0    0    0  501 -0.00000000000E+00 -0.00000000000E+00 -0.17342051770E+01  0.22413985803E+01  0.14200000000E+01 0.  1.
        -13    1    1    2    0    0  0.80535672138E+01  0.59831498939E+01  0.26500803684E+02  0.28336580526E+02  0.10570000000E+00 0. -1.
         13    1    1    2    0    0 -0.80535672138E+01 -0.59831498939E+01  0.22225279244E+02  0.24385082273E+02  0.10570000000E+00 0.  1.
<mgrwt>
<rscale>  0 0.20133121E+02</rscale>
<asrwt>0</asrwt>
<pdfrwt beam="1">  1        4 0.78036720E-02 0.20133121E+02</pdfrwt>
<pdfrwt beam="2">  1       -4 0.30735233E-03 0.20133121E+02</pdfrwt>
<totfact> 0.11255577E+06</totfact>
</mgrwt>
</event>
<event>
 4    1  0.4710515E-007  0.2003400E+02  0.7818608E-02  0.1744653E+00
         -4   -1    0    0    0  501 -0.00000000000E+00  0.00000000000E+00  0.82037277901E+02  0.82049566516E+02  0.14200000000E+01 0. -1.
          4   -1    0    0  501    0  0.00000000000E+00 -0.00000000000E+00 -0.79432237234E+00  0.16270673100E+01  0.14200000000E+01 0.  1.
        -13    1    1    2    0    0  0.94714211825E+01 -0.32564613319E+01  0.40080526966E+02  0.41313099302E+02  0.10570000000E+00 0. -1.
         13    1    1    2    0    0 -0.94714211825E+01  0.32564613319E+01  0.41162428563E+02  0.42363534524E+02  0.10570000000E+00 0.  1.
<mgrwt>
<rscale>  0 0.20034002E+02</rscale>
<asrwt>0</asrwt>
<pdfrwt beam="2">  1        4 0.18720605E-03 0.20034002E+02</pdfrwt>
<pdfrwt beam="1">  1       -4 0.12686121E-01 0.20034002E+02</pdfrwt>
<totfact> 0.10257673E+06</totfact>
</mgrwt>
</event>
<event>
 4    1  0.4710515E-007  0.2007402E+02  0.7818608E-02  0.1743860E+00
         -4   -1    0    0    0  501 -0.00000000000E+00  0.00000000000E+00  0.47580599125E+02  0.47601783718E+02  0.14200000000E+01 0. -1.
          4   -1    0    0  501    0  0.00000000000E+00 -0.00000000000E+00 -0.18550189999E+01  0.23361283120E+01  0.14200000000E+01 0.  1.
        -13    1    1    2    0    0  0.81612832127E+01  0.58101590434E+01  0.24367647722E+02  0.26346876850E+02  0.10570000000E+00 0. -1.
         13    1    1    2    0    0 -0.81612832127E+01 -0.58101590434E+01  0.21357932404E+02  0.23591035179E+02  0.10570000000E+00 0.  1.
<mgrwt>
<rscale>  0 0.20074023E+02</rscale>
<asrwt>0</asrwt>
<pdfrwt beam="2">  1        4 0.32402557E-03 0.20074023E+02</pdfrwt>
<pdfrwt beam="1">  1       -4 0.73587293E-02 0.20074023E+02</pdfrwt>
<totfact> 0.11437222E+06</totfact>
</mgrwt>
</event>
<event>
 5    1  0.5075500E-007  0.2000134E+02  0.7818608E-02  0.1745301E+00
         -4   -1    0    0    0  501 -0.00000000000E+00  0.00000000000E+00  0.23195565193E+02  0.23238989750E+02  0.14200000000E+01 0.  1.
          4   -1    0    0  501    0  0.00000000000E+00 -0.00000000000E+00 -0.41459621511E+01  0.43823968508E+01  0.14200000000E+01 0. -1.
       1023    2    1    2    0    0  0.00000000000E+00  0.00000000000E+00  0.19049603042E+02  0.27621386601E+02  0.20001340498E+02 0.  0.
        -13    1    3    3    0    0 -0.98524233169E+01 -0.17122613132E+01  0.95416539530E+01  0.13822315894E+02  0.10570000000E+00 0. -1.
         13    1    3    3    0    0  0.98524233169E+01  0.17122613132E+01  0.95079490886E+01  0.13799070707E+02  0.10570000000E+00 0.  1.
<mgrwt>
<rscale>  0 0.20001340E+02</rscale>
<asrwt>0</asrwt>
<pdfrwt beam="2">  1        4 0.65936797E-03 0.20001340E+02</pdfrwt>
<pdfrwt beam="1">  1       -4 0.35900761E-02 0.20001340E+02</pdfrwt>
<totfact> 0.12580177E+06</totfact>
</mgrwt>
</event>
<event>
 4    1  0.4710515E-007  0.2071210E+02  0.7818608E-02  0.1731527E+00
          4   -1    0    0  501    0  0.00000000000E+00  0.00000000000E+00  0.56830479066E+01  0.58577669387E+01  0.14200000000E+01 0.  1.
         -4   -1    0    0    0  501 -0.00000000000E+00 -0.00000000000E+00 -0.18383317211E+02  0.18438078850E+02  0.14200000000E+01 0. -1.
        -13    1    1    2    0    0 -0.84872966981E+01 -0.59035956205E+01 -0.70441079864E+01  0.12510686484E+02  0.10570000000E+00 0. -1.
         13    1    1    2    0    0  0.84872966981E+01  0.59035956205E+01 -0.56561613184E+01  0.11785159305E+02  0.10570000000E+00 0.  1.
<mgrwt>
<rscale>  0 0.20712105E+02</rscale>
<asrwt>0</asrwt>
<pdfrwt beam="1">  1        4 0.89196743E-03 0.20712105E+02</pdfrwt>
<pdfrwt beam="2">  1       -4 0.28458550E-02 0.20712105E+02</pdfrwt>
<totfact> 0.11879982E+06</totfact>
</mgrwt>
</event>
<event>
 5    1  0.4710515E-007  0.2000287E+02  0.7818608E-02  0.1745271E+00
         -4   -1    0    0    0  501 -0.00000000000E+00  0.00000000000E+00  0.21384574430E+02  0.21431668707E+02  0.14200000000E+01 0.  1.
          4   -1    0    0  501    0  0.00000000000E+00 -0.00000000000E+00 -0.45162631837E+01  0.47342405035E+01  0.14200000000E+01 0. -1.
       1023    2    1    2    0    0  0.00000000000E+00  0.00000000000E+00  0.16868311247E+02  0.26165909210E+02  0.20002871806E+02 0.  0.
        -13    1    3    3    0    0  0.94118532389E+01  0.33808916811E+01  0.85182994256E+01  0.13137199380E+02  0.10570000000E+00 0. -1.
         13    1    3    3    0    0 -0.94118532389E+01 -0.33808916811E+01  0.83500118210E+01  0.13028709831E+02  0.10570000000E+00 0.  1.
<mgrwt>
<rscale>  0 0.20002872E+02</rscale>
<asrwt>0</asrwt>
<pdfrwt beam="2">  1        4 0.71519984E-03 0.20002872E+02</pdfrwt>
<pdfrwt beam="1">  1       -4 0.33103247E-02 0.20002872E+02</pdfrwt>
<totfact> 0.12657346E+06</totfact>
</mgrwt>
</event>
<event>
 5    1  0.4710515E-007  0.2000492E+02  0.7818608E-02  0.1745230E+00
          4   -1    0    0  501    0  0.00000000000E+00  0.00000000000E+00  0.34305045444E+02  0.34334422128E+02  0.14200000000E+01 0.  1.
         -4   -1    0    0    0  501 -0.00000000000E+00 -0.00000000000E+00 -0.27110737049E+01  0.30604445156E+01  0.14200000000E+01 0. -1.
       1023    2    1    2    0    0  0.00000000000E+00  0.00000000000E+00  0.31593971739E+02  0.37394866644E+02  0.20004924421E+02 0.  0.
        -13    1    3    3    0    0 -0.50106737346E+01 -0.86562554054E+01  0.15837462022E+02  0.18731630594E+02  0.10570000000E+00 0. -1.
         13    1    3    3    0    0  0.50106737346E+01  0.86562554054E+01  0.15756509717E+02  0.18663236051E+02  0.10570000000E+00 0.  1.
<mgrwt>
<rscale>  0 0.20004924E+02</rscale>
<asrwt>0</asrwt>
<pdfrwt beam="1">  1        4 0.53068336E-02 0.20004924E+02</pdfrwt>
<pdfrwt beam="2">  1       -4 0.44622270E-03 0.20004924E+02</pdfrwt>
<totfact> 0.12079606E+06</totfact>
</mgrwt>
</event>
<event>
 5    1  0.5043113E-007  0.2000249E+02  0.7818608E-02  0.1745279E+00
          4   -1    0    0  501    0  0.00000000000E+00  0.00000000000E+00  0.12232880486E+02  0.12315021924E+02  0.14200000000E+01 0.  1.
         -4   -1    0    0    0  501 -0.00000000000E+00 -0.00000000000E+00 -0.80045237768E+01  0.81295018847E+01  0.14200000000E+01 0. -1.
       1023    2    1    2    0    0  0.00000000000E+00  0.00000000000E+00  0.42283567095E+01  0.20444523809E+02  0.20002488678E+02 0.  0.
        -13    1    3    3    0    0 -0.50106091613E+01  0.86545336795E+01  0.21969523491E+01  0.10239381304E+02  0.10570000000E+00 0. -1.
         13    1    3    3    0    0  0.50106091613E+01 -0.86545336795E+01  0.20314043604E+01  0.10205142505E+02  0.10570000000E+00 0.  1.
<mgrwt>
<rscale>  0 0.20002489E+02</rscale>
<asrwt>0</asrwt>
<pdfrwt beam="1">  1        4 0.18979139E-02 0.20002489E+02</pdfrwt>
<pdfrwt beam="2">  1       -4 0.12473975E-02 0.20002489E+02</pdfrwt>
<totfact> 0.12984310E+06</totfact>
</mgrwt>
</event>
<event>
 5    1  0.4710515E-007  0.2000149E+02  0.7818608E-02  0.1745298E+00
          4   -1    0    0  501    0  0.00000000000E+00  0.00000000000E+00  0.59453046236E+02  0.59470001738E+02  0.14200000000E+01 0.  1.
         -4   -1    0    0    0  501 -0.00000000000E+00 -0.00000000000E+00 -0.13622508393E+01  0.19677721792E+01  0.14200000000E+01 0. -1.
       1023    2    1    2    0    0  0.00000000000E+00  0.00000000000E+00  0.58090795397E+02  0.61437773917E+02  0.20001488797E+02 0.  0.
        -13    1    3    3    0    0 -0.88219210115E+01  0.47090395301E+01  0.28895785307E+02  0.30577425081E+02  0.10570000000E+00 0.  1.
         13    1    3    3    0    0  0.88219210115E+01 -0.47090395301E+01  0.29195010090E+02  0.30860348836E+02  0.10570000000E+00 0. -1.
<mgrwt>
<rscale>  0 0.20001489E+02</rscale>
<asrwt>0</asrwt>
<pdfrwt beam="1">  1        4 0.91945059E-02 0.20001489E+02</pdfrwt>
<pdfrwt beam="2">  1       -4 0.25745987E-03 0.20001489E+02</pdfrwt>
<totfact> 0.11062340E+06</totfact>
</mgrwt>
</event>
<event>
 5    1  0.4872047E-007  0.2000333E+02  0.7818608E-02  0.1745262E+00
          4   -1    0    0  501    0  0.00000000000E+00  0.00000000000E+00  0.28561789830E+01  0.31896956568E+01  0.14200000000E+01 0.  1.
         -4   -1    0    0    0  501 -0.00000000000E+00 -0.00000000000E+00 -0.32741674726E+02  0.32772452820E+02  0.14200000000E+01 0. -1.
       1023    2    1    2    0    0  0.00000000000E+00  0.00000000000E+00 -0.29885495743E+02  0.35962148477E+02  0.20003331405E+02 0.  0.
        -13    1    3    3    0    0 -0.99302315776E+01  0.11827197792E+01 -0.14731407366E+02  0.17805444694E+02  0.10570000000E+00 0.  1.
         13    1    3    3    0    0  0.99302315776E+01 -0.11827197792E+01 -0.15154088376E+02  0.18156703783E+02  0.10570000000E+00 0. -1.
<mgrwt>
<rscale>  0 0.20003331E+02</rscale>
<asrwt>0</asrwt>
<pdfrwt beam="1">  1        4 0.46743485E-03 0.20003331E+02</pdfrwt>
<pdfrwt beam="2">  1       -4 0.50652032E-02 0.20003331E+02</pdfrwt>
<totfact> 0.12150750E+06</totfact>
</mgrwt>
</event>
<event>
 5    1  0.4710515E-007  0.2000122E+02  0.7818608E-02  0.1745304E+00
          4   -1    0    0  501    0  0.00000000000E+00  0.00000000000E+00  0.48522466466E+00  0.15006141993E+01  0.14200000000E+01 0. -1.
         -4   -1    0    0    0  501 -0.00000000000E+00 -0.00000000000E+00 -0.99702316575E+02  0.99712428165E+02  0.14200000000E+01 0.  1.
       1023    2    1    2    0    0  0.00000000000E+00  0.00000000000E+00 -0.99217091911E+02  0.10121304236E+03  0.20001215397E+02 0.  0.
        -13    1    3    3    0    0 -0.72132279035E+01 -0.69259926840E+01 -0.49764549249E+02  0.50759448045E+02  0.10570000000E+00 0. -1.
         13    1    3    3    0    0  0.72132279035E+01  0.69259926840E+01 -0.49452542662E+02  0.50453594319E+02  0.10570000000E+00 0.  1.
<mgrwt>
<rscale>  0 0.20001215E+02</rscale>
<asrwt>0</asrwt>
<pdfrwt beam="1">  1        4 0.15353473E-03 0.20001215E+02</pdfrwt>
<pdfrwt beam="2">  1       -4 0.15417695E-01 0.20001215E+02</pdfrwt>
<totfact> 0.97656610E+05</totfact>
</mgrwt>
</event>
<event>
 5    1  0.4710515E-007  0.2000214E+02  0.7818608E-02  0.1745285E+00
         -4   -1    0    0    0  501 -0.00000000000E+00  0.00000000000E+00  0.40784674893E+02  0.40809387475E+02  0.14200000000E+01 0.  1.
          4   -1    0    0  501    0  0.00000000000E+00 -0.00000000000E+00 -0.22191961383E+01  0.26346216996E+01  0.14200000000E+01 0. -1.
       1023    2    1    2    0    0  0.00000000000E+00  0.00000000000E+00  0.38565478754E+02  0.43444009175E+02  0.20002144426E+02 0.  0.
        -13    1    3    3    0    0  0.97409808882E+01 -0.22624143130E+01  0.19437021372E+02  0.21858961537E+02  0.10570000000E+00 0. -1.
         13    1    3    3    0    0 -0.97409808882E+01  0.22624143130E+01  0.19128457383E+02  0.21585047637E+02  0.10570000000E+00 0.  1.
<mgrwt>
<rscale>  0 0.20002144E+02</rscale>
<asrwt>0</asrwt>
<pdfrwt beam="2">  1        4 0.37527158E-03 0.20002144E+02</pdfrwt>
<pdfrwt beam="1">  1       -4 0.63084220E-02 0.20002144E+02</pdfrwt>
<totfact> 0.11802609E+06</totfact>
</mgrwt>
</event>
<event>
 4    1  0.4873185E-007  0.2042993E+02  0.7818608E-02  0.1736911E+00
          4   -1    0    0  501    0  0.00000000000E+00  0.00000000000E+00  0.30098653595E+02  0.30132131491E+02  0.14200000000E+01 0. -1.
         -4   -1    0    0    0  501 -0.00000000000E+00 -0.00000000000E+00 -0.32843832675E+01  0.35782081337E+01  0.14200000000E+01 0.  1.
        -13    1    1    2    0    0 -0.50445379297E-01  0.10163346203E+02  0.15088364542E+02  0.18192472834E+02  0.10570000000E+00 0. -1.
         13    1    1    2    0    0  0.50445379297E-01 -0.10163346203E+02  0.11725905785E+02  0.15517866791E+02  0.10570000000E+00 0.  1.
<mgrwt>
<rscale>  0 0.20429927E+02</rscale>
<asrwt>0</asrwt>
<pdfrwt beam="1">  1        4 0.46557392E-02 0.20429927E+02</pdfrwt>
<pdfrwt beam="2">  1       -4 0.53046687E-03 0.20429927E+02</pdfrwt>
<totfact> 0.11745357E+06</totfact>
</mgrwt>
</event>
<event>
 5    1  0.4710515E-007  0.2000879E+02  0.7818608E-02  0.1745153E+00
          4   -1    0    0  501    0  0.00000000000E+00  0.00000000000E+00  0.32205109424E+01  0.35196719634E+01  0.14200000000E+01 0. -1.
         -4   -1    0    0    0  501 -0.00000000000E+00 -0.00000000000E+00 -0.29381792654E+02  0.29416086408E+02  0.14200000000E+01 0.  1.
       1023    2    1    2    0    0  0.00000000000E+00  0.00000000000E+00 -0.26161281712E+02  0.32935758371E+02  0.20008786038E+02 0.  0.
        -13    1    3    3    0    0 -0.17444140730E+01  0.98505625099E+01 -0.13060821960E+02  0.16452136791E+02  0.10570000000E+00 0. -1.
         13    1    3    3    0    0  0.17444140730E+01 -0.98505625099E+01 -0.13100459751E+02  0.16483621580E+02  0.10570000000E+00 0.  1.
<mgrwt>
<rscale>  0 0.20008786E+02</rscale>
<asrwt>0</asrwt>
<pdfrwt beam="1">  1        4 0.52111361E-03 0.20008786E+02</pdfrwt>
<pdfrwt beam="2">  1       -4 0.45459260E-02 0.20008786E+02</pdfrwt>
<totfact> 0.12293980E+06</totfact>
</mgrwt>
</event>
<event>
 4    1  0.4710515E-007  0.2023623E+02  0.7818608E-02  0.1740671E+00
         -4   -1    0    0    0  501 -0.00000000000E+00  0.00000000000E+00  0.23701369677E+01  0.27629602324E+01  0.14200000000E+01 0. -1.
          4   -1    0    0  501    0  0.00000000000E+00 -0.00000000000E+00 -0.39482128031E+02  0.39507655383E+02  0.14200000000E+01 0.  1.
        -13    1    1    2    0    0 -0.70329368678E+01 -0.72305486251E+01 -0.16908498110E+02  0.19688867800E+02  0.10570000000E+00 0.  1.
         13    1    1    2    0    0  0.70329368678E+01  0.72305486251E+01 -0.20203492953E+02  0.22581747816E+02  0.10570000000E+00 0. -1.
<mgrwt>
<rscale>  0 0.20236231E+02</rscale>
<asrwt>0</asrwt>
<pdfrwt beam="2">  1        4 0.61063539E-02 0.20236231E+02</pdfrwt>
<pdfrwt beam="1">  1       -4 0.39681730E-03 0.20236231E+02</pdfrwt>
<totfact> 0.11579467E+06</totfact>
</mgrwt>
</event>
<event>
 5    1  0.4710515E-007  0.2000287E+02  0.7818608E-02  0.1745271E+00
         -4   -1    0    0    0  501 -0.00000000000E+00  0.00000000000E+00  0.59999366492E+02  0.60016167650E+02  0.14200000000E+01 0.  1.
          4   -1    0    0  501    0  0.00000000000E+00 -0.00000000000E+00 -0.13445869427E+01  0.19555853463E+01  0.14200000000E+01 0. -1.
       1023    2    1    2    0    0  0.00000000000E+00  0.00000000000E+00  0.58654779549E+02  0.61971752997E+02  0.20002874931E+02 0.  0.
        -13    1    3    3    0    0 -0.60913481767E+01  0.79310089262E+01  0.29668940648E+02  0.31309146217E+02  0.10570000000E+00 0.  1.
         13    1    3    3    0    0  0.60913481767E+01 -0.79310089262E+01  0.28985838901E+02  0.30662606779E+02  0.10570000000E+00 0. -1.
<mgrwt>
<rscale>  0 0.20002875E+02</rscale>
<asrwt>0</asrwt>
<pdfrwt beam="2">  1        4 0.25515182E-03 0.20002875E+02</pdfrwt>
<pdfrwt beam="1">  1       -4 0.92789636E-02 0.20002875E+02</pdfrwt>
<totfact> 0.11040605E+06</totfact>
</mgrwt>
</event>
<event>
 5    1  0.4710515E-007  0.2000471E+02  0.7818608E-02  0.1745234E+00
         -4   -1    0    0    0  501 -0.00000000000E+00  0.00000000000E+00  0.40497226577E+01  0.42914628746E+01  0.14200000000E+01 0. -1.
          4   -1    0    0  501    0  0.00000000000E+00 -0.00000000000E+00 -0.23725119728E+02  0.23767576782E+02  0.14200000000E+01 0.  1.
       1023    2    1    2    0    0  0.00000000000E+00  0.00000000000E+00 -0.19675397070E+02  0.28059039657E+02  0.20004710860E+02 0.  0.
        -13    1    3    3    0    0  0.32718079511E+01  0.94510435804E+01 -0.99706862326E+01  0.14122772690E+02  0.10570000000E+00 0.  1.
         13    1    3    3    0    0 -0.32718079511E+01 -0.94510435804E+01 -0.97047108373E+01  0.13936266966E+02  0.10570000000E+00 0. -1.
<mgrwt>
<rscale>  0 0.20004711E+02</rscale>
<asrwt>0</asrwt>
<pdfrwt beam="2">  1        4 0.36718797E-02 0.20004711E+02</pdfrwt>
<pdfrwt beam="1">  1       -4 0.64489560E-03 0.20004711E+02</pdfrwt>
<totfact> 0.12552374E+06</totfact>
</mgrwt>
</event>
<event>
 5    1  0.4710515E-007  0.2000139E+02  0.7818608E-02  0.1745300E+00
         -4   -1    0    0    0  501 -0.00000000000E+00  0.00000000000E+00  0.97920203960E+02  0.97930499557E+02  0.14200000000E+01 0. -1.
          4   -1    0    0  501    0  0.00000000000E+00 -0.00000000000E+00 -0.51239471116E+00  0.15096186075E+01  0.14200000000E+01 0.  1.
       1023    2    1    2    0    0  0.00000000000E+00  0.00000000000E+00  0.97407809249E+02  0.99440118165E+02  0.20001394901E+02 0.  0.
        -13    1    3    3    0    0 -0.90778917117E+01  0.41945773079E+01  0.48770659488E+02  0.49785449643E+02  0.10570000000E+00 0.  1.
         13    1    3    3    0    0  0.90778917117E+01 -0.41945773079E+01  0.48637149760E+02  0.49654668522E+02  0.10570000000E+00 0. -1.
<mgrwt>
<rscale>  0 0.20001395E+02</rscale>
<asrwt>0</asrwt>
<pdfrwt beam="2">  1        4 0.15633144E-03 0.20001395E+02</pdfrwt>
<pdfrwt beam="1">  1       -4 0.15142150E-01 0.20001395E+02</pdfrwt>
<totfact> 0.98158542E+05</totfact>
</mgrwt>
</event>
<event>
 5    1  0.4710515E-007  0.2000341E+02  0.7818608E-02  0.1745260E+00
          4   -1    0    0  501    0  0.00000000000E+00  0.00000000000E+00  0.86124567174E+01  0.87287347714E+01  0.14200000000E+01 0.  1.
         -4   -1    0    0    0  501 -0.00000000000E+00 -0.00000000000E+00 -0.11376454117E+02  0.11464733241E+02  0.14200000000E+01 0. -1.
       1023    2    1    2    0    0  0.00000000000E+00  0.00000000000E+00 -0.27639973996E+01  0.20193468012E+02  0.20003411427E+02 0.  0.
        -13    1    3    3    0    0 -0.59214963755E+01 -0.80592308401E+01 -0.12938557026E+01  0.10084669361E+02  0.10570000000E+00 0. -1.
         13    1    3    3    0    0  0.59214963755E+01  0.80592308401E+01 -0.14701416970E+01  0.10108798651E+02  0.10570000000E+00 0.  1.
<mgrwt>
<rscale>  0 0.20003411E+02</rscale>
<asrwt>0</asrwt>
<pdfrwt beam="1">  1        4 0.13407285E-02 0.20003411E+02</pdfrwt>
<pdfrwt beam="2">  1       -4 0.17659589E-02 0.20003411E+02</pdfrwt>
<totfact> 0.12998007E+06</totfact>
</mgrwt>
</event>
<event>
 4    1  0.4710515E-007  0.2003543E+02  0.7818608E-02  0.1744624E+00
          4   -1    0    0  501    0  0.00000000000E+00  0.00000000000E+00  0.67578784832E+01  0.69054559294E+01  0.14200000000E+01 0.  1.
         -4   -1    0    0    0  501 -0.00000000000E+00 -0.00000000000E+00 -0.14507001746E+02  0.14576333547E+02  0.14200000000E+01 0. -1.
        -13    1    1    2    0    0  0.94162336358E+01 -0.34156905743E+01 -0.39871235556E+01  0.10781499187E+02  0.10570000000E+00 0.  1.
         13    1    1    2    0    0 -0.94162336358E+01  0.34156905743E+01 -0.37619997077E+01  0.10700290289E+02  0.10570000000E+00 0. -1.
<mgrwt>
<rscale>  0 0.20035428E+02</rscale>
<asrwt>0</asrwt>
<pdfrwt beam="1">  1        4 0.10563589E-02 0.20035428E+02</pdfrwt>
<pdfrwt beam="2">  1       -4 0.22485317E-02 0.20035428E+02</pdfrwt>
<totfact> 0.12879837E+06</totfact>
</mgrwt>
</event>
<event>
 5    1  0.4710515E-007  0.2001062E+02  0.7818608E-02  0.1745117E+00
         -4   -1    0    0    0  501 -0.00000000000E+00  0.00000000000E+00  0.71525311918E+02  0.71539406239E+02  0.14200000000E+01 0.  1.
          4   -1    0    0  501    0  0.00000000000E+00 -0.00000000000E+00 -0.10214378467E+01  0.17492099001E+01  0.14200000000E+01 0. -1.
       1023    2    1    2    0    0  0.00000000000E+00  0.00000000000E+00  0.70503874072E+02  0.73288616139E+02  0.20010622091E+02 0.  0.
        -13    1    3    3    0    0 -0.98309149600E+01  0.18569291928E+01  0.35256638514E+02  0.36648830906E+02  0.10570000000E+00 0. -1.
         13    1    3    3    0    0  0.98309149600E+01 -0.18569291928E+01  0.35247235558E+02  0.36639785233E+02  0.10570000000E+00 0.  1.
<mgrwt>
<rscale>  0 0.20010622E+02</rscale>
<asrwt>0</asrwt>
<pdfrwt beam="2">  1        4 0.21421095E-03 0.20010622E+02</pdfrwt>
<pdfrwt beam="1">  1       -4 0.11060960E-01 0.20010622E+02</pdfrwt>
<totfact> 0.10624886E+06</totfact>
</mgrwt>
</event>
<event>
 5    1  0.5001070E-007  0.2000162E+02  0.7818608E-02  0.1745296E+00
         -4   -1    0    0    0  501 -0.00000000000E+00  0.00000000000E+00  0.10990166469E+02  0.11081523316E+02  0.14200000000E+01 0.  1.
          4   -1    0    0  501    0  0.00000000000E+00 -0.00000000000E+00 -0.89150707803E+01  0.90274518563E+01  0.14200000000E+01 0. -1.
       1023    2    1    2    0    0  0.00000000000E+00  0.00000000000E+00  0.20750956884E+01  0.20108975173E+02  0.20001621444E+02 0.  0.
        -13    1    3    3    0    0 -0.62179187802E+01 -0.78321169821E+01  0.10157004684E+01  0.10052233101E+02  0.10570000000E+00 0. -1.
         13    1    3    3    0    0  0.62179187802E+01  0.78321169821E+01  0.10593952200E+01  0.10056742072E+02  0.10570000000E+00 0.  1.
<mgrwt>
<rscale>  0 0.20001621E+02</rscale>
<asrwt>0</asrwt>
<pdfrwt beam="2">  1        4 0.13872215E-02 0.20001621E+02</pdfrwt>
<pdfrwt beam="1">  1       -4 0.17064670E-02 0.20001621E+02</pdfrwt>
<totfact> 0.13005427E+06</totfact>
</mgrwt>
</event>
<event>
 5    1  0.4740899E-007  0.2000176E+02  0.7818608E-02  0.1745293E+00
          4   -1    0    0  501    0  0.00000000000E+00  0.00000000000E+00  0.33860506051E+01  0.36717487251E+01  0.14200000000E+01 0. -1.
         -4   -1    0    0    0  501 -0.00000000000E+00 -0.00000000000E+00 -0.28038049246E+02  0.28073984496E+02  0.14200000000E+01 0.  1.
       1023    2    1    2    0    0  0.00000000000E+00  0.00000000000E+00 -0.24651998640E+02  0.31745733221E+02  0.20001763442E+02 0.  0.
        -13    1    3    3    0    0 -0.21240777260E+01  0.97718607071E+01 -0.12208348545E+02  0.15781505459E+02  0.10570000000E+00 0.  1.
         13    1    3    3    0    0  0.21240777260E+01 -0.97718607071E+01 -0.12443650096E+02  0.15964227763E+02  0.10570000000E+00 0. -1.
<mgrwt>
<rscale>  0 0.20001763E+02</rscale>
<asrwt>0</asrwt>
<pdfrwt beam="1">  1        4 0.54567191E-03 0.20001763E+02</pdfrwt>
<pdfrwt beam="2">  1       -4 0.43382869E-02 0.20001763E+02</pdfrwt>
<totfact> 0.12363257E+06</totfact>
</mgrwt>
</event>
<event>
 5    1  0.4710515E-007  0.2000606E+02  0.7818608E-02  0.1745208E+00
          4   -1    0    0  501    0  0.00000000000E+00  0.00000000000E+00  0.45883773042E+01  0.48030829980E+01  0.14200000000E+01 0.  1.
         -4   -1    0    0    0  501 -0.00000000000E+00 -0.00000000000E+00 -0.21069701046E+02  0.21117497535E+02  0.14200000000E+01 0. -1.
       1023    2    1    2    0    0  0.00000000000E+00  0.00000000000E+00 -0.16481323742E+02  0.25920580533E+02  0.20006060654E+02 0.  0.
        -13    1    3    3    0    0  0.72429437702E+01  0.68983549936E+01 -0.82972437004E+01  0.12996267217E+02  0.10570000000E+00 0.  1.
         13    1    3    3    0    0 -0.72429437702E+01 -0.68983549936E+01 -0.81840800412E+01  0.12924313316E+02  0.10570000000E+00 0. -1.
<mgrwt>
<rscale>  0 0.20006061E+02</rscale>
<asrwt>0</asrwt>
<pdfrwt beam="1">  1        4 0.72609669E-03 0.20006061E+02</pdfrwt>
<pdfrwt beam="2">  1       -4 0.32616849E-02 0.20006061E+02</pdfrwt>
<totfact> 0.12666728E+06</totfact>
</mgrwt>
</event>
<event>
 5    1  0.4867884E-007  0.2000258E+02  0.7818608E-02  0.1745277E+00
          4   -1    0    0  501    0  0.00000000000E+00  0.00000000000E+00  0.62353474814E+01  0.63949947783E+01  0.14200000000E+01 0.  1.
         -4   -1    0    0    0  501 -0.00000000000E+00 -0.00000000000E+00 -0.15646767145E+02  0.15711070049E+02  0.14200000000E+01 0. -1.
       1023    2    1    2    0    0  0.00000000000E+00  0.00000000000E+00 -0.94114196639E+01  0.22106064828E+02  0.20002581885E+02 0.  0.
        -13    1    3    3    0    0  0.49032817418E+01  0.87155217732E+01 -0.45838591229E+01  0.11001155783E+02  0.10570000000E+00 0.  1.
         13    1    3    3    0    0 -0.49032817418E+01 -0.87155217732E+01 -0.48275605410E+01  0.11104909045E+02  0.10570000000E+00 0. -1.
<mgrwt>
<rscale>  0 0.20002582E+02</rscale>
<asrwt>0</asrwt>
<pdfrwt beam="1">  1        4 0.97651117E-03 0.20002582E+02</pdfrwt>
<pdfrwt beam="2">  1       -4 0.24244219E-02 0.20002582E+02</pdfrwt>
<totfact> 0.12886679E+06</totfact>
</mgrwt>
</event>
<event>
 5    1  0.4710515E-007  0.2000282E+02  0.7818608E-02  0.1745272E+00
         -4   -1    0    0    0  501 -0.00000000000E+00  0.00000000000E+00  0.15540950061E+01  0.21051392562E+01  0.14200000000E+01 0. -1.
          4   -1    0    0  501    0  0.00000000000E+00 -0.00000000000E+00 -0.54109888081E+02  0.54128517328E+02  0.14200000000E+01 0.  1.
       1023    2    1    2    0    0  0.00000000000E+00  0.00000000000E+00 -0.52555793075E+02  0.56233656584E+02  0.20002818479E+02 0.  0.
        -13    1    3    3    0    0  0.77964097989E+00  0.99699347794E+01 -0.26552982385E+02  0.28373922633E+02  0.10570000000E+00 0.  1.
         13    1    3    3    0    0 -0.77964097989E+00 -0.99699347794E+01 -0.26002810690E+02  0.27859733951E+02  0.10570000000E+00 0. -1.
<mgrwt>
<rscale>  0 0.20002818E+02</rscale>
<asrwt>0</asrwt>
<pdfrwt beam="2">  1        4 0.83684180E-02 0.20002818E+02</pdfrwt>
<pdfrwt beam="1">  1       -4 0.28291262E-03 0.20002818E+02</pdfrwt>
<totfact> 0.11262520E+06</totfact>
</mgrwt>
</event>
<event>
 5    1  0.4710515E-007  0.2000386E+02  0.7818608E-02  0.1745251E+00
         -4   -1    0    0    0  501 -0.00000000000E+00  0.00000000000E+00  0.30823813414E+02  0.30856504555E+02  0.14200000000E+01 0. -1.
          4   -1    0    0  501    0  0.00000000000E+00 -0.00000000000E+00 -0.30540104810E+01  0.33679934706E+01  0.14200000000E+01 0.  1.
       1023    2    1    2    0    0  0.00000000000E+00  0.00000000000E+00  0.27769802933E+02  0.34224498026E+02  0.20003857383E+02 0.  0.
        -13    1    3    3    0    0  0.99911795529E+01  0.45135762956E+00  0.13890948191E+02  0.17117155333E+02  0.10570000000E+00 0.  1.
         13    1    3    3    0    0 -0.99911795529E+01 -0.45135762956E+00  0.13878854742E+02  0.17107342692E+02  0.10570000000E+00 0. -1.
<mgrwt>
<rscale>  0 0.20003857E+02</rscale>
<asrwt>0</asrwt>
<pdfrwt beam="2">  1        4 0.49651501E-03 0.20003857E+02</pdfrwt>
<pdfrwt beam="1">  1       -4 0.47687923E-02 0.20003857E+02</pdfrwt>
<totfact> 0.12235583E+06</totfact>
</mgrwt>
</event>
<event>
 5    1  0.4710515E-007  0.2000254E+02  0.7818608E-02  0.1745278E+00
         -4   -1    0    0    0  501 -0.00000000000E+00  0.00000000000E+00  0.17689956608E+02  0.17746857885E+02  0.14200000000E+01 0.  1.
          4   -1    0    0  501    0  0.00000000000E+00 -0.00000000000E+00 -0.54980271492E+01  0.56784419107E+01  0.14200000000E+01 0. -1.
       1023    2    1    2    0    0  0.00000000000E+00  0.00000000000E+00  0.12191929459E+02  0.23425299796E+02  0.20002538004E+02 0.  0.
        -13    1    3    3    0    0 -0.92921496994E+01  0.36969195891E+01  0.61595583178E+01  0.11745747811E+02  0.10570000000E+00 0.  1.
         13    1    3    3    0    0  0.92921496994E+01 -0.36969195891E+01  0.60323711408E+01  0.11679551984E+02  0.10570000000E+00 0. -1.
<mgrwt>
<rscale>  0 0.20002538E+02</rscale>
<asrwt>0</asrwt>
<pdfrwt beam="2">  1        4 0.86410541E-03 0.20002538E+02</pdfrwt>
<pdfrwt beam="1">  1       -4 0.27397869E-02 0.20002538E+02</pdfrwt>
<totfact> 0.12810999E+06</totfact>
</mgrwt>
</event>
<event>
 5    1  0.5676233E-007  0.2000227E+02  0.7818608E-02  0.1745283E+00
         -4   -1    0    0    0  501 -0.00000000000E+00  0.00000000000E+00  0.58146466674E+01  0.59855255297E+01  0.14200000000E+01 0. -1.
          4   -1    0    0  501    0  0.00000000000E+00 -0.00000000000E+00 -0.16751392790E+02  0.16811471096E+02  0.14200000000E+01 0.  1.
       1023    2    1    2    0    0  0.00000000000E+00  0.00000000000E+00 -0.10936746123E+02  0.22796996626E+02  0.20002265857E+02 0.  0.
        -13    1    3    3    0    0 -0.99938365594E+01  0.36689064521E+00 -0.54802959516E+01  0.11404218260E+02  0.10570000000E+00 0. -1.
         13    1    3    3    0    0  0.99938365594E+01 -0.36689064521E+00 -0.54564501710E+01  0.11392778365E+02  0.10570000000E+00 0.  1.
<mgrwt>
<rscale>  0 0.20002266E+02</rscale>
<asrwt>0</asrwt>
<pdfrwt beam="2">  1        4 0.25949033E-02 0.20002266E+02</pdfrwt>
<pdfrwt beam="1">  1       -4 0.91232697E-03 0.20002266E+02</pdfrwt>
<totfact> 0.12847245E+06</totfact>
</mgrwt>
</event>
<event>
 4    1  0.4710515E-007  0.2014512E+02  0.7818608E-02  0.1742457E+00
         -4   -1    0    0    0  501 -0.00000000000E+00  0.00000000000E+00  0.55150832249E+02  0.55169109996E+02  0.14200000000E+01 0.  1.
          4   -1    0    0  501    0  0.00000000000E+00 -0.00000000000E+00 -0.15441628729E+01  0.20978176703E+01  0.14200000000E+01 0. -1.
        -13    1    1    2    0    0  0.50506218526E+01  0.87125984596E+01  0.27271953979E+02  0.29072130973E+02  0.10570000000E+00 0. -1.
         13    1    1    2    0    0 -0.50506218526E+01 -0.87125984596E+01  0.26334715397E+02  0.28194796693E+02  0.10570000000E+00 0.  1.
<mgrwt>
<rscale>  0 0.20145124E+02</rscale>
<asrwt>0</asrwt>
<pdfrwt beam="2">  1        4 0.28155834E-03 0.20145124E+02</pdfrwt>
<pdfrwt beam="1">  1       -4 0.85287379E-02 0.20145124E+02</pdfrwt>
<totfact> 0.11062569E+06</totfact>
</mgrwt>
</event>
<event>
 5    1  0.4710515E-007  0.2000188E+02  0.7818608E-02  0.1745291E+00
         -4   -1    0    0    0  501 -0.00000000000E+00  0.00000000000E+00  0.18742931712E+02  0.18796645689E+02  0.14200000000E+01 0. -1.
          4   -1    0    0  501    0  0.00000000000E+00 -0.00000000000E+00 -0.51792955666E+01  0.53704285273E+01  0.14200000000E+01 0.  1.
       1023    2    1    2    0    0  0.00000000000E+00  0.00000000000E+00  0.13563636145E+02  0.24167074216E+02  0.20001881179E+02 0.  0.
        -13    1    3    3    0    0  0.24856845625E+01  0.96864305127E+01  0.68368740892E+01  0.12114436992E+02  0.10570000000E+00 0.  1.
         13    1    3    3    0    0 -0.24856845625E+01 -0.96864305127E+01  0.67267620560E+01  0.12052637225E+02  0.10570000000E+00 0. -1.
<mgrwt>
<rscale>  0 0.20001881E+02</rscale>
<asrwt>0</asrwt>
<pdfrwt beam="2">  1        4 0.81564908E-03 0.20001881E+02</pdfrwt>
<pdfrwt beam="1">  1       -4 0.29023623E-02 0.20001881E+02</pdfrwt>
<totfact> 0.12769898E+06</totfact>
</mgrwt>
</event>
<event>
 5    1  0.4710515E-007  0.2000247E+02  0.7818608E-02  0.1745279E+00
         -4   -1    0    0    0  501 -0.00000000000E+00  0.00000000000E+00  0.42604544256E+02  0.42628201830E+02  0.14200000000E+01 0.  1.
          4   -1    0    0  501    0  0.00000000000E+00 -0.00000000000E+00 -0.21064104433E+01  0.25403474084E+01  0.14200000000E+01 0. -1.
       1023    2    1    2    0    0  0.00000000000E+00  0.00000000000E+00  0.40498133813E+02  0.45168549239E+02  0.20002474797E+02 0.  0.
        -13    1    3    3    0    0  0.99889535004E+01 -0.47321700092E+00  0.20479913759E+02  0.22791251971E+02  0.10570000000E+00 0.  1.
         13    1    3    3    0    0 -0.99889535004E+01  0.47321700092E+00  0.20018220055E+02  0.22377297268E+02  0.10570000000E+00 0. -1.
<mgrwt>
<rscale>  0 0.20002475E+02</rscale>
<asrwt>0</asrwt>
<pdfrwt beam="2">  1        4 0.35926276E-03 0.20002475E+02</pdfrwt>
<pdfrwt beam="1">  1       -4 0.65897442E-02 0.20002475E+02</pdfrwt>
<totfact> 0.11725429E+06</totfact>
</mgrwt>
</event>
<event>
 5    1  0.4710515E-007  0.2000857E+02  0.7818608E-02  0.1745158E+00
         -4   -1    0    0    0  501 -0.00000000000E+00  0.00000000000E+00  0.70349281791E+01  0.71768108854E+01  0.14200000000E+01 0.  1.
          4   -1    0    0  501    0  0.00000000000E+00 -0.00000000000E+00 -0.13906537168E+02  0.13978847449E+02  0.14200000000E+01 0. -1.
       1023    2    1    2    0    0  0.00000000000E+00  0.00000000000E+00 -0.68716089885E+01  0.21155658334E+02  0.20008569900E+02 0.  0.
        -13    1    3    3    0    0 -0.52169247471E+01  0.85357035188E+01 -0.34331093543E+01  0.10576953754E+02  0.10570000000E+00 0. -1.
         13    1    3    3    0    0  0.52169247471E+01 -0.85357035188E+01 -0.34384996342E+01  0.10578704581E+02  0.10570000000E+00 0.  1.
<mgrwt>
<rscale>  0 0.20008570E+02</rscale>
<asrwt>0</asrwt>
<pdfrwt beam="2">  1        4 0.21559436E-02 0.20008570E+02</pdfrwt>
<pdfrwt beam="1">  1       -4 0.10987730E-02 0.20008570E+02</pdfrwt>
<totfact> 0.12934264E+06</totfact>
</mgrwt>
</event>
<event>
 5    1  0.4710515E-007  0.2000250E+02  0.7818608E-02  0.1745278E+00
         -4   -1    0    0    0  501 -0.00000000000E+00  0.00000000000E+00  0.31747729654E+02  0.31779470388E+02  0.14200000000E+01 0.  1.
          4   -1    0    0  501    0  0.00000000000E+00 -0.00000000000E+00 -0.29555092286E+01  0.32789380599E+01  0.14200000000E+01 0. -1.
       1023    2    1    2    0    0  0.00000000000E+00  0.00000000000E+00  0.28792220425E+02  0.35058408448E+02  0.20002500991E+02 0.  0.
        -13    1    3    3    0    0 -0.29698834277E+01  0.95492060638E+01  0.14257049472E+02  0.17414998597E+02  0.10570000000E+00 0. -1.
         13    1    3    3    0    0  0.29698834277E+01 -0.95492060638E+01  0.14535170953E+02  0.17643409851E+02  0.10570000000E+00 0.  1.
<mgrwt>
<rscale>  0 0.20002501E+02</rscale>
<asrwt>0</asrwt>
<pdfrwt beam="2">  1        4 0.48201448E-03 0.20002501E+02</pdfrwt>
<pdfrwt beam="1">  1       -4 0.49115867E-02 0.20002501E+02</pdfrwt>
<totfact> 0.12196019E+06</totfact>
</mgrwt>
</event>
<event>
 5    1  0.4710515E-007  0.2000605E+02  0.7818608E-02  0.1745208E+00
         -4   -1    0    0    0  501 -0.00000000000E+00  0.00000000000E+00  0.87314109093E+02  0.87325655146E+02  0.14200000000E+01 0. -1.
          4   -1    0    0  501    0  0.00000000000E+00 -0.00000000000E+00 -0.68992963911E+00  0.15787345904E+01  0.14200000000E+01 0.  1.
       1023    2    1    2    0    0  0.00000000000E+00  0.00000000000E+00  0.86624179454E+02  0.88904389736E+02  0.20006050294E+02 0.  0.
        -13    1    3    3    0    0  0.99102047140E+01  0.13375984431E+01  0.44285821098E+02  0.45400952081E+02  0.10570000000E+00 0.  1.
         13    1    3    3    0    0 -0.99102047140E+01 -0.13375984431E+01  0.42338358356E+02  0.43503437655E+02  0.10570000000E+00 0. -1.
<mgrwt>
<rscale>  0 0.20006050E+02</rscale>
<asrwt>0</asrwt>
<pdfrwt beam="2">  1        4 0.17540081E-03 0.20006050E+02</pdfrwt>
<pdfrwt beam="1">  1       -4 0.13502196E-01 0.20006050E+02</pdfrwt>
<totfact> 0.10123083E+06</totfact>
</mgrwt>
</event>
<event>
 5    1  0.4710515E-007  0.2000485E+02  0.7818608E-02  0.1745232E+00
          4   -1    0    0  501    0  0.00000000000E+00  0.00000000000E+00  0.42547872965E+00  0.14823738224E+01  0.14200000000E+01 0. -1.
         -4   -1    0    0    0  501 -0.00000000000E+00 -0.00000000000E+00 -0.10381626213E+03  0.10382597307E+03  0.14200000000E+01 0.  1.
       1023    2    1    2    0    0  0.00000000000E+00  0.00000000000E+00 -0.10339078341E+03  0.10530834689E+03  0.20004845208E+02 0.  0.
        -13    1    3    3    0    0  0.26779992537E+01 -0.96363337168E+01 -0.52125570777E+02  0.53076519373E+02  0.10570000000E+00 0. -1.
         13    1    3    3    0    0 -0.26779992537E+01  0.96363337168E+01 -0.51265212629E+02  0.52231827518E+02  0.10570000000E+00 0.  1.
<mgrwt>
<rscale>  0 0.20004845E+02</rscale>
<asrwt>0</asrwt>
<pdfrwt beam="1">  1        4 0.14750497E-03 0.20004845E+02</pdfrwt>
<pdfrwt beam="2">  1       -4 0.16053770E-01 0.20004845E+02</pdfrwt>
<totfact> 0.96479815E+05</totfact>
</mgrwt>
</event>
<event>
 4    1  0.4710515E-007  0.2001470E+02  0.7818608E-02  0.1745036E+00
         -4   -1    0    0    0  501 -0.00000000000E+00  0.00000000000E+00  0.14744534274E+02  0.14812754334E+02  0.14200000000E+01 0.  1.
          4   -1    0    0  501    0  0.00000000000E+00 -0.00000000000E+00 -0.66329319726E+01  0.67832283282E+01  0.14200000000E+01 0. -1.
        -13    1    1    2    0    0  0.80020471453E+01 -0.60032191458E+01  0.37817194444E+01  0.10695044323E+02  0.10570000000E+00 0. -1.
         13    1    1    2    0    0 -0.80020471453E+01  0.60032191458E+01  0.43298828573E+01  0.10900938339E+02  0.10570000000E+00 0.  1.
<mgrwt>
<rscale>  0 0.20014704E+02</rscale>
<asrwt>0</asrwt>
<pdfrwt beam="2">  1        4 0.10372600E-02 0.20014704E+02</pdfrwt>
<pdfrwt beam="1">  1       -4 0.22851988E-02 0.20014704E+02</pdfrwt>
<totfact> 0.12900398E+06</totfact>
</mgrwt>
</event>
<event>
 4    1  0.4710515E-007  0.2002483E+02  0.7818608E-02  0.1744835E+00
         -4   -1    0    0    0  501 -0.00000000000E+00  0.00000000000E+00  0.12249810197E+02  0.12331838868E+02  0.14200000000E+01 0. -1.
          4   -1    0    0  501    0  0.00000000000E+00 -0.00000000000E+00 -0.80116952180E+01  0.81365631729E+01  0.14200000000E+01 0.  1.
        -13    1    1    2    0    0 -0.70340797802E+01  0.71229530769E+01  0.19655492423E+01  0.10202416145E+02  0.10570000000E+00 0.  1.
         13    1    1    2    0    0  0.70340797802E+01 -0.71229530769E+01  0.22725657369E+01  0.10265985896E+02  0.10570000000E+00 0. -1.
<mgrwt>
<rscale>  0 0.20024831E+02</rscale>
<asrwt>0</asrwt>
<pdfrwt beam="2">  1        4 0.12484836E-02 0.20024831E+02</pdfrwt>
<pdfrwt beam="1">  1       -4 0.19005013E-02 0.20024831E+02</pdfrwt>
<totfact> 0.12953343E+06</totfact>
</mgrwt>
</event>
<event>
 5    1  0.4710515E-007  0.2000527E+02  0.7818608E-02  0.1745223E+00
         -4   -1    0    0    0  501 -0.00000000000E+00  0.00000000000E+00  0.69905190748E+01  0.71332851433E+01  0.14200000000E+01 0. -1.
          4   -1    0    0  501    0  0.00000000000E+00 -0.00000000000E+00 -0.13988887936E+02  0.14060774719E+02  0.14200000000E+01 0.  1.
       1023    2    1    2    0    0  0.00000000000E+00  0.00000000000E+00 -0.69983688612E+01  0.21194059862E+02  0.20005274472E+02 0.  0.
        -13    1    3    3    0    0  0.10000130508E+02  0.15862063226E+00 -0.33746919584E+01  0.10555921986E+02  0.10570000000E+00 0. -1.
         13    1    3    3    0    0 -0.10000130508E+02 -0.15862063226E+00 -0.36236769028E+01  0.10638137876E+02  0.10570000000E+00 0.  1.
<mgrwt>
<rscale>  0 0.20005274E+02</rscale>
<asrwt>0</asrwt>
<pdfrwt beam="2">  1        4 0.21686484E-02 0.20005274E+02</pdfrwt>
<pdfrwt beam="1">  1       -4 0.10919762E-02 0.20005274E+02</pdfrwt>
<totfact> 0.12936354E+06</totfact>
</mgrwt>
</event>
<event>
 4    1  0.4710515E-007  0.2003806E+02  0.7818608E-02  0.1744572E+00
         -4   -1    0    0    0  501 -0.00000000000E+00  0.00000000000E+00  0.36542624240E+02  0.36570203531E+02  0.14200000000E+01 0. -1.
          4   -1    0    0  501    0  0.00000000000E+00 -0.00000000000E+00 -0.25328221167E+01  0.29037196619E+01  0.14200000000E+01 0.  1.
        -13    1    1    2    0    0 -0.80810460746E+01  0.59054835011E+01  0.16142209489E+02  0.18993686865E+02  0.10570000000E+00 0. -1.
         13    1    1    2    0    0  0.80810460746E+01 -0.59054835011E+01  0.17867592634E+02  0.20480236329E+02  0.10570000000E+00 0.  1.
<mgrwt>
<rscale>  0 0.20038063E+02</rscale>
<asrwt>0</asrwt>
<pdfrwt beam="2">  1        4 0.42031700E-03 0.20038063E+02</pdfrwt>
<pdfrwt beam="1">  1       -4 0.56525944E-02 0.20038063E+02</pdfrwt>
<totfact> 0.11941101E+06</totfact>
</mgrwt>
</event>
<event>
 5    1  0.4871242E-007  0.2000242E+02  0.7818608E-02  0.1745280E+00
         -4   -1    0    0    0  501 -0.00000000000E+00  0.00000000000E+00  0.59365771049E+02  0.59382751471E+02  0.14200000000E+01 0. -1.
          4   -1    0    0  501    0  0.00000000000E+00 -0.00000000000E+00 -0.13653272034E+01  0.19699031378E+01  0.14200000000E+01 0.  1.
       1023    2    1    2    0    0  0.00000000000E+00  0.00000000000E+00  0.58000443845E+02  0.61352654608E+02  0.20002418385E+02 0.  0.
        -13    1    3    3    0    0 -0.99625367502E+01 -0.86731348846E+00  0.28715088080E+02  0.30406772718E+02  0.10570000000E+00 0.  1.
         13    1    3    3    0    0  0.99625367502E+01  0.86731348846E+00  0.29285355765E+02  0.30945881890E+02  0.10570000000E+00 0. -1.
<mgrwt>
<rscale>  0 0.20002418E+02</rscale>
<asrwt>0</asrwt>
<pdfrwt beam="2">  1        4 0.25786235E-03 0.20002418E+02</pdfrwt>
<pdfrwt beam="1">  1       -4 0.91810082E-02 0.20002418E+02</pdfrwt>
<totfact> 0.11064534E+06</totfact>
</mgrwt>
</event>
<event>
 5    1  0.4710515E-007  0.2000478E+02  0.7818608E-02  0.1745233E+00
         -4   -1    0    0    0  501 -0.00000000000E+00  0.00000000000E+00  0.10723118528E+02  0.10816731067E+02  0.14200000000E+01 0. -1.
          4   -1    0    0  501    0  0.00000000000E+00 -0.00000000000E+00 -0.91408881112E+01  0.92505262262E+01  0.14200000000E+01 0.  1.
       1023    2    1    2    0    0  0.00000000000E+00  0.00000000000E+00  0.15822304169E+01  0.20067257293E+02  0.20004783482E+02 0.  0.
        -13    1    3    3    0    0 -0.82850474367E+01  0.56030172953E+01  0.82043337485E+00  0.10035940277E+02  0.10570000000E+00 0. -1.
         13    1    3    3    0    0  0.82850474367E+01 -0.56030172953E+01  0.76179704205E+00  0.10031317015E+02  0.10570000000E+00 0.  1.
<mgrwt>
<rscale>  0 0.20004783E+02</rscale>
<asrwt>0</asrwt>
<pdfrwt beam="2">  1        4 0.14219252E-02 0.20004783E+02</pdfrwt>
<pdfrwt beam="1">  1       -4 0.16653452E-02 0.20004783E+02</pdfrwt>
<totfact> 0.13003702E+06</totfact>
</mgrwt>
</event>
<event>
 5    1  0.4710515E-007  0.2000690E+02  0.7818608E-02  0.1745191E+00
         -4   -1    0    0    0  501 -0.00000000000E+00  0.00000000000E+00  0.25099626773E+01  0.28838017687E+01  0.14200000000E+01 0.  1.
          4   -1    0    0  501    0  0.00000000000E+00 -0.00000000000E+00 -0.36716916762E+02  0.36744365235E+02  0.14200000000E+01 0. -1.
       1023    2    1    2    0    0  0.00000000000E+00  0.00000000000E+00 -0.34206954085E+02  0.39628167004E+02  0.20006896619E+02 0.  0.
        -13    1    3    3    0    0 -0.30847396209E+01  0.95129657009E+01 -0.17526771681E+02  0.20179470583E+02  0.10570000000E+00 0. -1.
         13    1    3    3    0    0  0.30847396209E+01 -0.95129657009E+01 -0.16680182404E+02  0.19448696421E+02  0.10570000000E+00 0.  1.
<mgrwt>
<rscale>  0 0.20006897E+02</rscale>
<asrwt>0</asrwt>
<pdfrwt beam="2">  1        4 0.56796243E-02 0.20006897E+02</pdfrwt>
<pdfrwt beam="1">  1       -4 0.41701640E-03 0.20006897E+02</pdfrwt>
<totfact> 0.11971592E+06</totfact>
</mgrwt>
</event>
<event>
 4    1  0.4710515E-007  0.2027017E+02  0.7818608E-02  0.1740008E+00
         -4   -1    0    0    0  501 -0.00000000000E+00  0.00000000000E+00  0.92148816013E+01  0.93236496570E+01  0.14200000000E+01 0. -1.
          4   -1    0    0  501    0  0.00000000000E+00 -0.00000000000E+00 -0.10926803943E+02  0.11018686147E+02  0.14200000000E+01 0.  1.
        -13    1    1    2    0    0 -0.79717420166E+01  0.62550335183E+01 -0.66902031849E+00  0.10155435775E+02  0.10570000000E+00 0.  1.
         13    1    1    2    0    0  0.79717420166E+01 -0.62550335183E+01 -0.10429020233E+01  0.10186900030E+02  0.10570000000E+00 0. -1.
<mgrwt>
<rscale>  0 0.20270174E+02</rscale>
<asrwt>0</asrwt>
<pdfrwt beam="2">  1        4 0.16964814E-02 0.20270174E+02</pdfrwt>
<pdfrwt beam="1">  1       -4 0.14331087E-02 0.20270174E+02</pdfrwt>
<totfact> 0.12641770E+06</totfact>
</mgrwt>
</event>
<event>
 5    1  0.4710515E-007  0.2000921E+02  0.7818608E-02  0.1745145E+00
         -4   -1    0    0    0  501 -0.00000000000E+00  0.00000000000E+00  0.13518268569E+02  0.13592644522E+02  0.14200000000E+01 0. -1.
          4   -1    0    0  501    0  0.00000000000E+00 -0.00000000000E+00 -0.72403639415E+01  0.73782972294E+01  0.14200000000E+01 0.  1.
       1023    2    1    2    0    0  0.00000000000E+00  0.00000000000E+00  0.62779046277E+01  0.20970941752E+02  0.20009205667E+02 0.  0.
        -13    1    3    3    0    0 -0.87809603932E+01 -0.47862303237E+01  0.34115281898E+01  0.10567069756E+02  0.10570000000E+00 0. -1.
         13    1    3    3    0    0  0.87809603932E+01  0.47862303237E+01  0.28663764379E+01  0.10403871996E+02  0.10570000000E+00 0.  1.
<mgrwt>
<rscale>  0 0.20009206E+02</rscale>
<asrwt>0</asrwt>
<pdfrwt beam="2">  1        4 0.11302336E-02 0.20009206E+02</pdfrwt>
<pdfrwt beam="1">  1       -4 0.20960651E-02 0.20009206E+02</pdfrwt>
<totfact> 0.12944306E+06</totfact>
</mgrwt>
</event>
<event>
 5    1  0.4798504E-007  0.2000214E+02  0.7818608E-02  0.1745286E+00
         -4   -1    0    0    0  501 -0.00000000000E+00  0.00000000000E+00  0.88121984393E+01  0.89258748217E+01  0.14200000000E+01 0. -1.
          4   -1    0    0  501    0  0.00000000000E+00 -0.00000000000E+00 -0.11118470361E+02  0.11208781520E+02  0.14200000000E+01 0.  1.
       1023    2    1    2    0    0  0.00000000000E+00  0.00000000000E+00 -0.23062719214E+01  0.20134656342E+02  0.20002137281E+02 0.  0.
        -13    1    3    3    0    0  0.77309199645E+00 -0.99702951982E+01 -0.10768453750E+01  0.10058589664E+02  0.10570000000E+00 0.  1.
         13    1    3    3    0    0 -0.77309199645E+00  0.99702951982E+01 -0.12294265464E+01  0.10076066678E+02  0.10570000000E+00 0. -1.
<mgrwt>
<rscale>  0 0.20002137E+02</rscale>
<asrwt>0</asrwt>
<pdfrwt beam="2">  1        4 0.17262252E-02 0.20002137E+02</pdfrwt>
<pdfrwt beam="1">  1       -4 0.13714142E-02 0.20002137E+02</pdfrwt>
<totfact> 0.13003208E+06</totfact>
</mgrwt>
</event>
<event>
 5    1  0.4710515E-007  0.2000442E+02  0.7818608E-02  0.1745240E+00
          4   -1    0    0  501    0  0.00000000000E+00  0.00000000000E+00  0.72969322006E+02  0.72983137463E+02  0.14200000000E+01 0.  1.
         -4   -1    0    0    0  501 -0.00000000000E+00 -0.00000000000E+00 -0.98560085071E+00  0.17285279971E+01  0.14200000000E+01 0. -1.
       1023    2    1    2    0    0  0.00000000000E+00  0.00000000000E+00  0.71983721155E+02  0.74711665460E+02  0.20004420625E+02 0.  0.
        -13    1    3    3    0    0  0.10790030974E+01 -0.99425895571E+01  0.35554656811E+02  0.36934592569E+02  0.10570000000E+00 0. -1.
         13    1    3    3    0    0 -0.10790030974E+01  0.99425895571E+01  0.36429064344E+02  0.37777072891E+02  0.10570000000E+00 0.  1.
<mgrwt>
<rscale>  0 0.20004421E+02</rscale>
<asrwt>0</asrwt>
<pdfrwt beam="1">  1        4 0.11284262E-01 0.20004421E+02</pdfrwt>
<pdfrwt beam="2">  1       -4 0.20984185E-03 0.20004421E+02</pdfrwt>
<totfact> 0.10582823E+06</totfact>
</mgrwt>
</event>
<event>
 5    1  0.4710515E-007  0.2001152E+02  0.7818608E-02  0.1745099E+00
         -4   -1    0    0    0  501 -0.00000000000E+00  0.00000000000E+00  0.12039545048E+01  0.18616945103E+01  0.14200000000E+01 0.  1.
          4   -1    0    0  501    0  0.00000000000E+00 -0.00000000000E+00 -0.64647006860E+02  0.64662600442E+02  0.14200000000E+01 0. -1.
       1023    2    1    2    0    0  0.00000000000E+00  0.00000000000E+00 -0.63443052355E+02  0.66524294953E+02  0.20011519852E+02 0.  0.
        -13    1    3    3    0    0 -0.43394693807E+01  0.90151205092E+01 -0.31635677794E+02  0.33180275380E+02  0.10570000000E+00 0.  1.
         13    1    3    3    0    0  0.43394693807E+01 -0.90151205092E+01 -0.31807374562E+02  0.33344019573E+02  0.10570000000E+00 0. -1.
<mgrwt>
<rscale>  0 0.20011520E+02</rscale>
<asrwt>0</asrwt>
<pdfrwt beam="2">  1        4 0.99974861E-02 0.20011520E+02</pdfrwt>
<pdfrwt beam="1">  1       -4 0.23701871E-03 0.20011520E+02</pdfrwt>
<totfact> 0.10862682E+06</totfact>
</mgrwt>
</event>
<event>
 5    1  0.4710515E-007  0.2000634E+02  0.7818608E-02  0.1745202E+00
          4   -1    0    0  501    0  0.00000000000E+00  0.00000000000E+00  0.46649502057E+02  0.46671109288E+02  0.14200000000E+01 0.  1.
         -4   -1    0    0    0  501 -0.00000000000E+00 -0.00000000000E+00 -0.18853826792E+01  0.23603109640E+01  0.14200000000E+01 0. -1.
       1023    2    1    2    0    0  0.00000000000E+00  0.00000000000E+00  0.44764119378E+02  0.49031420252E+02  0.20006343700E+02 0.  0.
        -13    1    3    3    0    0  0.12480540310E+01  0.99242939265E+01  0.22516870447E+02  0.24638788039E+02  0.10570000000E+00 0. -1.
         13    1    3    3    0    0 -0.12480540310E+01 -0.99242939265E+01  0.22247248930E+02  0.24392632213E+02  0.10570000000E+00 0.  1.
<mgrwt>
<rscale>  0 0.20006344E+02</rscale>
<asrwt>0</asrwt>
<pdfrwt beam="1">  1        4 0.72150409E-02 0.20006344E+02</pdfrwt>
<pdfrwt beam="2">  1       -4 0.32825394E-03 0.20006344E+02</pdfrwt>
<totfact> 0.11553748E+06</totfact>
</mgrwt>
</event>
<event>
 4    1  0.4710515E-007  0.2001774E+02  0.7818608E-02  0.1744976E+00
         -4   -1    0    0    0  501 -0.00000000000E+00  0.00000000000E+00  0.48623629262E+01  0.50654687075E+01  0.14200000000E+01 0.  1.
          4   -1    0    0  501    0  0.00000000000E+00 -0.00000000000E+00 -0.19952278259E+02  0.20002745005E+02  0.14200000000E+01 0. -1.
        -13    1    1    2    0    0 -0.59713641090E+01 -0.80242971419E+01 -0.71116146771E+01  0.12273254244E+02  0.10570000000E+00 0.  1.
         13    1    1    2    0    0  0.59713641090E+01  0.80242971419E+01 -0.79783006560E+01  0.12794959468E+02  0.10570000000E+00 0. -1.
<mgrwt>
<rscale>  0 0.20017737E+02</rscale>
<asrwt>0</asrwt>
<pdfrwt beam="2">  1        4 0.30890868E-02 0.20017737E+02</pdfrwt>
<pdfrwt beam="1">  1       -4 0.76756142E-03 0.20017737E+02</pdfrwt>
<totfact> 0.12698845E+06</totfact>
</mgrwt>
</event>
<event>
 4    1  0.4710515E-007  0.2014759E+02  0.7818608E-02  0.1742409E+00
          4   -1    0    0  501    0  0.00000000000E+00  0.00000000000E+00  0.21499103114E+01  0.25765314567E+01  0.14200000000E+01 0.  1.
         -4   -1    0    0    0  501 -0.00000000000E+00 -0.00000000000E+00 -0.42502394219E+02  0.42526108620E+02  0.14200000000E+01 0. -1.
        -13    1    1    2    0    0  0.60975628294E+01 -0.79927167336E+01 -0.21603224304E+02  0.23828014312E+02  0.10570000000E+00 0.  1.
         13    1    1    2    0    0 -0.60975628294E+01  0.79927167336E+01 -0.18749259604E+02  0.21274625764E+02  0.10570000000E+00 0. -1.
<mgrwt>
<rscale>  0 0.20147585E+02</rscale>
<asrwt>0</asrwt>
<pdfrwt beam="1">  1        4 0.36539666E-03 0.20147585E+02</pdfrwt>
<pdfrwt beam="2">  1       -4 0.65734705E-02 0.20147585E+02</pdfrwt>
<totfact> 0.11558111E+06</totfact>
</mgrwt>
</event>
<event>
 5    1  0.4710515E-007  0.2000695E+02  0.7818608E-02  0.1745190E+00
         -4   -1    0    0    0  501 -0.00000000000E+00  0.00000000000E+00  0.96531714272E+00  0.17170431521E+01  0.14200000000E+01 0.  1.
          4   -1    0    0  501    0  0.00000000000E+00 -0.00000000000E+00 -0.73852528325E+02  0.73866178593E+02  0.14200000000E+01 0. -1.
       1023    2    1    2    0    0  0.00000000000E+00  0.00000000000E+00 -0.72887211182E+02  0.75583221745E+02  0.20006945181E+02 0.  0.
        -13    1    3    3    0    0 -0.99339406373E+01  0.11720621612E+01 -0.36303006244E+02  0.37656026625E+02  0.10570000000E+00 0.  1.
         13    1    3    3    0    0  0.99339406373E+01 -0.11720621612E+01 -0.36584204938E+02  0.37927195120E+02  0.10570000000E+00 0. -1.
<mgrwt>
<rscale>  0 0.20006945E+02</rscale>
<asrwt>0</asrwt>
<pdfrwt beam="2">  1        4 0.11420799E-01 0.20006945E+02</pdfrwt>
<pdfrwt beam="1">  1       -4 0.20738549E-03 0.20006945E+02</pdfrwt>
<totfact> 0.10550613E+06</totfact>
</mgrwt>
</event>
<event>
 5    1  0.4710515E-007  0.2000440E+02  0.7818608E-02  0.1745241E+00
         -4   -1    0    0    0  501 -0.00000000000E+00  0.00000000000E+00  0.74807728647E+02  0.74821204651E+02  0.14200000000E+01 0.  1.
          4   -1    0    0  501    0  0.00000000000E+00 -0.00000000000E+00 -0.94289611587E+00  0.17045389656E+01  0.14200000000E+01 0. -1.
       1023    2    1    2    0    0  0.00000000000E+00  0.00000000000E+00  0.73864832531E+02  0.76525743616E+02  0.20004398294E+02 0.  0.
        -13    1    3    3    0    0  0.89130976741E+01  0.45374262841E+01  0.36796203615E+02  0.38131395469E+02  0.10570000000E+00 0. -1.
         13    1    3    3    0    0 -0.89130976741E+01 -0.45374262841E+01  0.37068628917E+02  0.38394348148E+02  0.10570000000E+00 0.  1.
<mgrwt>
<rscale>  0 0.20004398E+02</rscale>
<asrwt>0</asrwt>
<pdfrwt beam="2">  1        4 0.20468546E-03 0.20004398E+02</pdfrwt>
<pdfrwt beam="1">  1       -4 0.11568506E-01 0.20004398E+02</pdfrwt>
<totfact> 0.10521579E+06</totfact>
</mgrwt>
</event>
<event>
 4    1  0.4819442E-007  0.2015731E+02  0.7818608E-02  0.1742218E+00
          4   -1    0    0  501    0  0.00000000000E+00  0.00000000000E+00  0.49930589913E+02  0.49950777862E+02  0.14200000000E+01 0.  1.
         -4   -1    0    0    0  501 -0.00000000000E+00 -0.00000000000E+00 -0.17634327431E+01  0.22640881254E+01  0.14200000000E+01 0. -1.
        -13    1    1    2    0    0  0.39914288839E+01  0.92038872254E+01  0.26575027067E+02  0.28405743798E+02  0.10570000000E+00 0.  1.
         13    1    1    2    0    0 -0.39914288839E+01 -0.92038872254E+01  0.21592130102E+02  0.23809122189E+02  0.10570000000E+00 0. -1.
<mgrwt>
<rscale>  0 0.20157311E+02</rscale>
<asrwt>0</asrwt>
<pdfrwt beam="1">  1        4 0.77216939E-02 0.20157311E+02</pdfrwt>
<pdfrwt beam="2">  1       -4 0.31136222E-03 0.20157311E+02</pdfrwt>
<totfact> 0.11248768E+06</totfact>
</mgrwt>
</event>
<event>
 4    1  0.4710515E-007  0.2024266E+02  0.7818608E-02  0.1740545E+00
          4   -1    0    0  501    0  0.00000000000E+00  0.00000000000E+00  0.12565744561E+01  0.18961485606E+01  0.14200000000E+01 0. -1.
         -4   -1    0    0    0  501 -0.00000000000E+00 -0.00000000000E+00 -0.64336927617E+02  0.64352596336E+02  0.14200000000E+01 0.  1.
        -13    1    1    2    0    0  0.65281620577E+01  0.77301127130E+01 -0.30747956514E+02  0.32370040851E+02  0.10570000000E+00 0. -1.
         13    1    1    2    0    0 -0.65281620577E+01 -0.77301127130E+01 -0.32332396646E+02  0.33878704045E+02  0.10570000000E+00 0.  1.
<mgrwt>
<rscale>  0 0.20242659E+02</rscale>
<asrwt>0</asrwt>
<pdfrwt beam="1">  1        4 0.24372249E-03 0.20242659E+02</pdfrwt>
<pdfrwt beam="2">  1       -4 0.99483901E-02 0.20242659E+02</pdfrwt>
<totfact> 0.10624294E+06</totfact>
</mgrwt>
</event>
<event>
 5    1  0.4710515E-007  0.2001146E+02  0.7818608E-02  0.1745100E+00
          4   -1    0    0  501    0  0.00000000000E+00  0.00000000000E+00  0.92957492777E+01  0.94035820108E+01  0.14200000000E+01 0.  1.
         -4   -1    0    0    0  501 -0.00000000000E+00 -0.00000000000E+00 -0.10552170388E+02  0.10647286034E+02  0.14200000000E+01 0. -1.
       1023    2    1    2    0    0  0.00000000000E+00  0.00000000000E+00 -0.12564211101E+01  0.20050868045E+02  0.20011464598E+02 0.  0.
        -13    1    3    3    0    0 -0.69984047232E+01  0.71501959497E+01 -0.60502284003E+00  0.10023981041E+02  0.10570000000E+00 0. -1.
         13    1    3    3    0    0  0.69984047232E+01 -0.71501959497E+01 -0.65139827005E+00  0.10026887004E+02  0.10570000000E+00 0.  1.
<mgrwt>
<rscale>  0 0.20011465E+02</rscale>
<asrwt>0</asrwt>
<pdfrwt beam="1">  1        4 0.14457267E-02 0.20011465E+02</pdfrwt>
<pdfrwt beam="2">  1       -4 0.16390222E-02 0.20011465E+02</pdfrwt>
<totfact> 0.12995809E+06</totfact>
</mgrwt>
</event>
<event>
 5    1  0.4710515E-007  0.2000325E+02  0.7818608E-02  0.1745263E+00
          4   -1    0    0  501    0  0.00000000000E+00  0.00000000000E+00  0.24679719207E+01  0.28473295211E+01  0.14200000000E+01 0. -1.
         -4   -1    0    0    0  501 -0.00000000000E+00 -0.00000000000E+00 -0.37245588074E+02  0.37272647223E+02  0.14200000000E+01 0.  1.
       1023    2    1    2    0    0  0.00000000000E+00  0.00000000000E+00 -0.34777616153E+02  0.40119976744E+02  0.20003248451E+02 0.  0.
        -13    1    3    3    0    0 -0.25638354849E+00 -0.99976538051E+01 -0.17489102376E+02  0.20146927521E+02  0.10570000000E+00 0. -1.
         13    1    3    3    0    0  0.25638354849E+00  0.99976538051E+01 -0.17288513778E+02  0.19973049223E+02  0.10570000000E+00 0.  1.
<mgrwt>
<rscale>  0 0.20003248E+02</rscale>
<asrwt>0</asrwt>
<pdfrwt beam="1">  1        4 0.41095084E-03 0.20003248E+02</pdfrwt>
<pdfrwt beam="2">  1       -4 0.57613529E-02 0.20003248E+02</pdfrwt>
<totfact> 0.11953099E+06</totfact>
</mgrwt>
</event>
<event>
 4    1  0.4710515E-007  0.2001794E+02  0.7818608E-02  0.1744972E+00
         -4   -1    0    0    0  501 -0.00000000000E+00  0.00000000000E+00  0.44927029050E+01  0.47117703035E+01  0.14200000000E+01 0.  1.
          4   -1    0    0  501    0  0.00000000000E+00 -0.00000000000E+00 -0.21524538178E+02  0.21571326890E+02  0.14200000000E+01 0. -1.
        -13    1    1    2    0    0 -0.84565603456E+01  0.53524842545E+01 -0.86156802459E+01  0.13206196241E+02  0.10570000000E+00 0. -1.
         13    1    1    2    0    0  0.84565603456E+01 -0.53524842545E+01 -0.84161550271E+01  0.13076900952E+02  0.10570000000E+00 0.  1.
<mgrwt>
<rscale>  0 0.20017937E+02</rscale>
<asrwt>0</asrwt>
<pdfrwt beam="2">  1        4 0.33319178E-02 0.20017937E+02</pdfrwt>
<pdfrwt beam="1">  1       -4 0.71163555E-03 0.20017937E+02</pdfrwt>
<totfact> 0.12631546E+06</totfact>
</mgrwt>
</event>
<event>
 5    1  0.4710515E-007  0.2000195E+02  0.7818608E-02  0.1745289E+00
         -4   -1    0    0    0  501 -0.00000000000E+00  0.00000000000E+00  0.80062472486E+02  0.80075064162E+02  0.14200000000E+01 0.  1.
          4   -1    0    0  501    0  0.00000000000E+00 -0.00000000000E+00 -0.82887823001E+00  0.16442138304E+01  0.14200000000E+01 0. -1.
       1023    2    1    2    0    0  0.00000000000E+00  0.00000000000E+00  0.79233594256E+02  0.81719277992E+02  0.20001948328E+02 0.  0.
        -13    1    3    3    0    0 -0.90156242712E+01 -0.43274489500E+01  0.39600291193E+02  0.40843635128E+02  0.10570000000E+00 0. -1.
         13    1    3    3    0    0  0.90156242712E+01  0.43274489500E+01  0.39633303062E+02  0.40875642864E+02  0.10570000000E+00 0.  1.
<mgrwt>
<rscale>  0 0.20001948E+02</rscale>
<asrwt>0</asrwt>
<pdfrwt beam="2">  1        4 0.19120640E-03 0.20001948E+02</pdfrwt>
<pdfrwt beam="1">  1       -4 0.12380993E-01 0.20001948E+02</pdfrwt>
<totfact> 0.10353301E+06</totfact>
</mgrwt>
</event>
<event>
 5    1  0.4710515E-007  0.2001157E+02  0.7818608E-02  0.1745098E+00
         -4   -1    0    0    0  501 -0.00000000000E+00  0.00000000000E+00  0.86405006704E+00  0.16622221628E+01  0.14200000000E+01 0. -1.
          4   -1    0    0  501    0  0.00000000000E+00 -0.00000000000E+00 -0.78453002358E+02  0.78465852311E+02  0.14200000000E+01 0.  1.
       1023    2    1    2    0    0  0.00000000000E+00  0.00000000000E+00 -0.77588952291E+02  0.80128074474E+02  0.20011566689E+02 0.  0.
        -13    1    3    3    0    0  0.10436162614E+01 -0.99456212144E+01 -0.37528198856E+02  0.38837886118E+02  0.10570000000E+00 0.  1.
         13    1    3    3    0    0 -0.10436162614E+01  0.99456212144E+01 -0.40060753435E+02  0.41290188356E+02  0.10570000000E+00 0. -1.
<mgrwt>
<rscale>  0 0.20011567E+02</rscale>
<asrwt>0</asrwt>
<pdfrwt beam="2">  1        4 0.12132075E-01 0.20011567E+02</pdfrwt>
<pdfrwt beam="1">  1       -4 0.19531715E-03 0.20011567E+02</pdfrwt>
<totfact> 0.10394936E+06</totfact>
</mgrwt>
</event>
<event>
 4    1  0.4710515E-007  0.2029669E+02  0.7818608E-02  0.1739492E+00
          4   -1    0    0  501    0  0.00000000000E+00  0.00000000000E+00  0.43742533213E+01  0.45989664186E+01  0.14200000000E+01 0. -1.
         -4   -1    0    0    0  501 -0.00000000000E+00 -0.00000000000E+00 -0.22707277750E+02  0.22751634289E+02  0.14200000000E+01 0.  1.
        -13    1    1    2    0    0  0.76358111710E+01  0.65201094642E+01 -0.71859118971E+01  0.12347709988E+02  0.10570000000E+00 0.  1.
         13    1    1    2    0    0 -0.76358111710E+01 -0.65201094642E+01 -0.11147112532E+02  0.15002890720E+02  0.10570000000E+00 0. -1.
<mgrwt>
<rscale>  0 0.20296689E+02</rscale>
<asrwt>0</asrwt>
<pdfrwt beam="1">  1        4 0.69365973E-03 0.20296689E+02</pdfrwt>
<pdfrwt beam="2">  1       -4 0.35141250E-02 0.20296689E+02</pdfrwt>
<totfact> 0.12223643E+06</totfact>
</mgrwt>
</event>
<event>
 5    1  0.4710515E-007  0.2000376E+02  0.7818608E-02  0.1745253E+00
         -4   -1    0    0    0  501 -0.00000000000E+00  0.00000000000E+00  0.16912676613E+02  0.16972184015E+02  0.14200000000E+01 0.  1.
          4   -1    0    0  501    0  0.00000000000E+00 -0.00000000000E+00 -0.57586540020E+01  0.59311462564E+01  0.14200000000E+01 0. -1.
       1023    2    1    2    0    0  0.00000000000E+00  0.00000000000E+00  0.11154022611E+02  0.22903330271E+02  0.20003757574E+02 0.  0.
        -13    1    3    3    0    0 -0.21487537269E+01 -0.97666703777E+01  0.57445577856E+01  0.11533261008E+02  0.10570000000E+00 0. -1.
         13    1    3    3    0    0  0.21487537269E+01  0.97666703777E+01  0.54094648256E+01  0.11370069263E+02  0.10570000000E+00 0.  1.
<mgrwt>
<rscale>  0 0.20003758E+02</rscale>
<asrwt>0</asrwt>
<pdfrwt beam="2">  1        4 0.90379292E-03 0.20003758E+02</pdfrwt>
<pdfrwt beam="1">  1       -4 0.26197963E-02 0.20003758E+02</pdfrwt>
<totfact> 0.12839195E+06</totfact>
</mgrwt>
</event>
<event>
 4    1  0.4710515E-007  0.2002551E+02  0.7818608E-02  0.1744821E+00
         -4   -1    0    0    0  501 -0.00000000000E+00  0.00000000000E+00  0.12566272276E+02  0.12646248413E+02  0.14200000000E+01 0.  1.
          4   -1    0    0  501    0  0.00000000000E+00 -0.00000000000E+00 -0.78086031332E+01  0.79366669889E+01  0.14200000000E+01 0. -1.
        -13    1    1    2    0    0 -0.74768301268E+01 -0.66549845622E+01  0.26138177823E+01  0.10345773251E+02  0.10570000000E+00 0.  1.
         13    1    1    2    0    0  0.74768301268E+01  0.66549845622E+01  0.21438513605E+01  0.10237142151E+02  0.10570000000E+00 0. -1.
<mgrwt>
<rscale>  0 0.20025509E+02</rscale>
<asrwt>0</asrwt>
<pdfrwt beam="2">  1        4 0.12173266E-02 0.20025509E+02</pdfrwt>
<pdfrwt beam="1">  1       -4 0.19492757E-02 0.20025509E+02</pdfrwt>
<totfact> 0.12945690E+06</totfact>
</mgrwt>
</event>
<event>
 5    1  0.4710515E-007  0.2000276E+02  0.7818608E-02  0.1745273E+00
          4   -1    0    0  501    0  0.00000000000E+00  0.00000000000E+00  0.11293947063E+03  0.11294839719E+03  0.14200000000E+01 0.  1.
         -4   -1    0    0    0  501 -0.00000000000E+00 -0.00000000000E+00 -0.30168620671E+00  0.14516936892E+01  0.14200000000E+01 0. -1.
       1023    2    1    2    0    0  0.00000000000E+00  0.00000000000E+00  0.11263778443E+03  0.11440009087E+03  0.20002757604E+02 0.  0.
        -13    1    3    3    0    0 -0.62362758882E+01  0.78175733590E+01  0.55724113689E+02  0.56614429337E+02  0.10570000000E+00 0. -1.
         13    1    3    3    0    0  0.62362758882E+01 -0.78175733590E+01  0.56913670736E+02  0.57785661538E+02  0.10570000000E+00 0.  1.
<mgrwt>
<rscale>  0 0.20002758E+02</rscale>
<asrwt>0</asrwt>
<pdfrwt beam="1">  1        4 0.17464448E-01 0.20002758E+02</pdfrwt>
<pdfrwt beam="2">  1       -4 0.13556207E-03 0.20002758E+02</pdfrwt>
<totfact> 0.94066093E+05</totfact>
</mgrwt>
</event>
<event>
 5    1  0.4837698E-007  0.2000275E+02  0.7818608E-02  0.1745273E+00
          4   -1    0    0  501    0  0.00000000000E+00  0.00000000000E+00  0.23171545274E+01  0.27176469793E+01  0.14200000000E+01 0. -1.
         -4   -1    0    0    0  501 -0.00000000000E+00 -0.00000000000E+00 -0.39320126049E+02  0.39345758507E+02  0.14200000000E+01 0.  1.
       1023    2    1    2    0    0  0.00000000000E+00  0.00000000000E+00 -0.37002971522E+02  0.42063405487E+02  0.20002754303E+02 0.  0.
        -13    1    3    3    0    0  0.29921260983E+01  0.95427087774E+01 -0.18535591106E+02  0.21061705048E+02  0.10570000000E+00 0. -1.
         13    1    3    3    0    0 -0.29921260983E+01 -0.95427087774E+01 -0.18467380416E+02  0.21001700439E+02  0.10570000000E+00 0.  1.
<mgrwt>
<rscale>  0 0.20002754E+02</rscale>
<asrwt>0</asrwt>
<pdfrwt beam="1">  1        4 0.38926418E-03 0.20002754E+02</pdfrwt>
<pdfrwt beam="2">  1       -4 0.60820285E-02 0.20002754E+02</pdfrwt>
<totfact> 0.11864332E+06</totfact>
</mgrwt>
</event>
<event>
 4    1  0.4710515E-007  0.2001366E+02  0.7818608E-02  0.1745057E+00
          4   -1    0    0  501    0  0.00000000000E+00  0.00000000000E+00  0.30044055049E+01  0.33230787589E+01  0.14200000000E+01 0.  1.
         -4   -1    0    0    0  501 -0.00000000000E+00 -0.00000000000E+00 -0.31315768598E+02  0.31347946709E+02  0.14200000000E+01 0. -1.
        -13    1    1    2    0    0  0.76159081083E+01 -0.64840457389E+01 -0.13663848467E+02  0.16933895975E+02  0.10570000000E+00 0.  1.
         13    1    1    2    0    0 -0.76159081083E+01  0.64840457389E+01 -0.14647514626E+02  0.17737129493E+02  0.10570000000E+00 0. -1.
<mgrwt>
<rscale>  0 0.20013664E+02</rscale>
<asrwt>0</asrwt>
<pdfrwt beam="1">  1        4 0.48920482E-03 0.20013664E+02</pdfrwt>
<pdfrwt beam="2">  1       -4 0.48447989E-02 0.20013664E+02</pdfrwt>
<totfact> 0.12201315E+06</totfact>
</mgrwt>
</event>
<event>
 5    1  0.4911490E-007  0.2000172E+02  0.7818608E-02  0.1745294E+00
         -4   -1    0    0    0  501 -0.00000000000E+00  0.00000000000E+00  0.13994371869E+02  0.14066230626E+02  0.14200000000E+01 0.  1.
          4   -1    0    0  501    0  0.00000000000E+00 -0.00000000000E+00 -0.69851814385E+01  0.71280544140E+01  0.14200000000E+01 0. -1.
       1023    2    1    2    0    0  0.00000000000E+00  0.00000000000E+00  0.70091904309E+01  0.21194285040E+02  0.20001724122E+02 0.  0.
        -13    1    3    3    0    0 -0.11437164254E+01  0.99345163242E+01  0.34431040618E+01  0.10576806698E+02  0.10570000000E+00 0.  1.
         13    1    3    3    0    0  0.11437164254E+01 -0.99345163242E+01  0.35660863690E+01  0.10617478342E+02  0.10570000000E+00 0. -1.
<mgrwt>
<rscale>  0 0.20001724E+02</rscale>
<asrwt>0</asrwt>
<pdfrwt beam="2">  1        4 0.10911611E-02 0.20001724E+02</pdfrwt>
<pdfrwt beam="1">  1       -4 0.21694981E-02 0.20001724E+02</pdfrwt>
<totfact> 0.12941026E+06</totfact>
</mgrwt>
</event>
<event>
 5    1  0.4913484E-007  0.2000140E+02  0.7818608E-02  0.1745300E+00
          4   -1    0    0  501    0  0.00000000000E+00  0.00000000000E+00  0.20821638832E+02  0.20870003442E+02  0.14200000000E+01 0.  1.
         -4   -1    0    0    0  501 -0.00000000000E+00 -0.00000000000E+00 -0.46431647132E+01  0.48554483371E+01  0.14200000000E+01 0. -1.
       1023    2    1    2    0    0  0.00000000000E+00  0.00000000000E+00  0.16178474119E+02  0.25725451779E+02  0.20001396061E+02 0.  0.
        -13    1    3    3    0    0 -0.91949324669E+01  0.39312087861E+01  0.81407328914E+01  0.12895111093E+02  0.10570000000E+00 0.  1.
         13    1    3    3    0    0  0.91949324669E+01 -0.39312087861E+01  0.80377412275E+01  0.12830340686E+02  0.10570000000E+00 0. -1.
<mgrwt>
<rscale>  0 0.20001396E+02</rscale>
<asrwt>0</asrwt>
<pdfrwt beam="1">  1        4 0.32233789E-02 0.20001396E+02</pdfrwt>
<pdfrwt beam="2">  1       -4 0.73438289E-03 0.20001396E+02</pdfrwt>
<totfact> 0.12683507E+06</totfact>
</mgrwt>
</event>
<event>
 5    1  0.4710515E-007  0.2000602E+02  0.7818608E-02  0.1745208E+00
         -4   -1    0    0    0  501 -0.00000000000E+00  0.00000000000E+00  0.25176166185E+00  0.14421456010E+01  0.14200000000E+01 0. -1.
          4   -1    0    0  501    0  0.00000000000E+00 -0.00000000000E+00 -0.11694355012E+03  0.11695217105E+03  0.14200000000E+01 0.  1.
       1023    2    1    2    0    0  0.00000000000E+00  0.00000000000E+00 -0.11669178845E+03  0.11839431665E+03  0.20006017171E+02 0.  0.
        -13    1    3    3    0    0  0.97989891464E+01 -0.20001084059E+01 -0.57348825814E+02  0.58214427908E+02  0.10570000000E+00 0.  1.
         13    1    3    3    0    0 -0.97989891464E+01  0.20001084059E+01 -0.59342962639E+02  0.60179888744E+02  0.10570000000E+00 0. -1.
<mgrwt>
<rscale>  0 0.20006017E+02</rscale>
<asrwt>0</asrwt>
<pdfrwt beam="2">  1        4 0.18083534E-01 0.20006017E+02</pdfrwt>
<pdfrwt beam="1">  1       -4 0.13096380E-03 0.20006017E+02</pdfrwt>
<totfact> 0.93008697E+05</totfact>
</mgrwt>
</event>
<event>
 5    1  0.4710515E-007  0.2000625E+02  0.7818608E-02  0.1745204E+00
         -4   -1    0    0    0  501 -0.00000000000E+00  0.00000000000E+00  0.29207598104E+01  0.32476511312E+01  0.14200000000E+01 0. -1.
          4   -1    0    0  501    0  0.00000000000E+00 -0.00000000000E+00 -0.32100125093E+02  0.32131517720E+02  0.14200000000E+01 0.  1.
       1023    2    1    2    0    0  0.00000000000E+00  0.00000000000E+00 -0.29179365283E+02  0.35379168852E+02  0.20006254780E+02 0.  0.
        -13    1    3    3    0    0  0.99800900509E+01 -0.66874174827E+00 -0.14668215300E+02  0.17754355114E+02  0.10570000000E+00 0. -1.
         13    1    3    3    0    0 -0.99800900509E+01  0.66874174827E+00 -0.14511149983E+02  0.17624813737E+02  0.10570000000E+00 0.  1.
<mgrwt>
<rscale>  0 0.20006255E+02</rscale>
<asrwt>0</asrwt>
<pdfrwt beam="2">  1        4 0.49660408E-02 0.20006255E+02</pdfrwt>
<pdfrwt beam="1">  1       -4 0.47690799E-03 0.20006255E+02</pdfrwt>
<totfact> 0.12175628E+06</totfact>
</mgrwt>
</event>
<event>
 4    1  0.4710515E-007  0.2004688E+02  0.7818608E-02  0.1744397E+00
          4   -1    0    0  501    0  0.00000000000E+00  0.00000000000E+00  0.38764648699E+02  0.38790648212E+02  0.14200000000E+01 0.  1.
         -4   -1    0    0    0  501 -0.00000000000E+00 -0.00000000000E+00 -0.23683000076E+01  0.27613846030E+01  0.14200000000E+01 0. -1.
        -13    1    1    2    0    0 -0.72976432162E+01 -0.68633559650E+01  0.18843341065E+02  0.21341132270E+02  0.10570000000E+00 0.  1.
         13    1    1    2    0    0  0.72976432162E+01  0.68633559650E+01  0.17553007627E+02  0.20210900545E+02  0.10570000000E+00 0. -1.
<mgrwt>
<rscale>  0 0.20046876E+02</rscale>
<asrwt>0</asrwt>
<pdfrwt beam="1">  1        4 0.59960291E-02 0.20046876E+02</pdfrwt>
<pdfrwt beam="2">  1       -4 0.39659110E-03 0.20046876E+02</pdfrwt>
<totfact> 0.11834778E+06</totfact>
</mgrwt>
</event>
<event>
 5    1  0.4710515E-007  0.2000236E+02  0.7818608E-02  0.1745281E+00
          4   -1    0    0  501    0  0.00000000000E+00  0.00000000000E+00  0.48791860936E+02  0.48812519845E+02  0.14200000000E+01 0.  1.
         -4   -1    0    0    0  501 -0.00000000000E+00 -0.00000000000E+00 -0.17803957273E+01  0.22773249539E+01  0.14200000000E+01 0. -1.
       1023    2    1    2    0    0  0.00000000000E+00  0.00000000000E+00  0.47011465209E+02  0.51089844799E+02  0.20002359373E+02 0.  0.
        -13    1    3    3    0    0 -0.17250029519E+01 -0.98502350381E+01  0.23756734873E+02  0.25775887760E+02  0.10570000000E+00 0.  1.
         13    1    3    3    0    0  0.17250029519E+01  0.98502350381E+01  0.23254730336E+02  0.25313957039E+02  0.10570000000E+00 0. -1.
<mgrwt>
<rscale>  0 0.20002359E+02</rscale>
<asrwt>0</asrwt>
<pdfrwt beam="1">  1        4 0.75462548E-02 0.20002359E+02</pdfrwt>
<pdfrwt beam="2">  1       -4 0.31372150E-03 0.20002359E+02</pdfrwt>
<totfact> 0.11471895E+06</totfact>
</mgrwt>
</event>
<event>
 5    1  0.4710515E-007  0.2000543E+02  0.7818608E-02  0.1745220E+00
          4   -1    0    0  501    0  0.00000000000E+00  0.00000000000E+00  0.21386524104E+02  0.21433614097E+02  0.14200000000E+01 0.  1.
         -4   -1    0    0    0  501 -0.00000000000E+00 -0.00000000000E+00 -0.45170568017E+01  0.47349975871E+01  0.14200000000E+01 0. -1.
       1023    2    1    2    0    0  0.00000000000E+00  0.00000000000E+00  0.16869467303E+02  0.26168611684E+02  0.20005432022E+02 0.  0.
        -13    1    3    3    0    0 -0.93213989413E+01  0.36258696521E+01  0.85498602823E+01  0.13158521661E+02  0.10570000000E+00 0.  1.
         13    1    3    3    0    0  0.93213989413E+01 -0.36258696521E+01  0.83196070203E+01  0.13010090024E+02  0.10570000000E+00 0. -1.
<mgrwt>
<rscale>  0 0.20005432E+02</rscale>
<asrwt>0</asrwt>
<pdfrwt beam="1">  1        4 0.33106215E-02 0.20005432E+02</pdfrwt>
<pdfrwt beam="2">  1       -4 0.71531880E-03 0.20005432E+02</pdfrwt>
<totfact> 0.12653901E+06</totfact>
</mgrwt>
</event>
<event>
 5    1  0.4710515E-007  0.2000632E+02  0.7818608E-02  0.1745202E+00
         -4   -1    0    0    0  501 -0.00000000000E+00  0.00000000000E+00  0.27008577773E+01  0.30513984881E+01  0.14200000000E+01 0.  1.
          4   -1    0    0  501    0  0.00000000000E+00 -0.00000000000E+00 -0.34424869472E+02  0.34454143991E+02  0.14200000000E+01 0. -1.
       1023    2    1    2    0    0  0.00000000000E+00  0.00000000000E+00 -0.31724011694E+02  0.37505542479E+02  0.20006318968E+02 0.  0.
        -13    1    3    3    0    0  0.45492689588E+01  0.89075780591E+01 -0.15663322542E+02  0.18584715238E+02  0.10570000000E+00 0.  1.
         13    1    3    3    0    0 -0.45492689588E+01 -0.89075780591E+01 -0.16060689152E+02  0.18920827241E+02  0.10570000000E+00 0. -1.
<mgrwt>
<rscale>  0 0.20006319E+02</rscale>
<asrwt>0</asrwt>
<pdfrwt beam="2">  1        4 0.53253500E-02 0.20006319E+02</pdfrwt>
<pdfrwt beam="1">  1       -4 0.44473316E-03 0.20006319E+02</pdfrwt>
<totfact> 0.12072604E+06</totfact>
</mgrwt>
</event>
<event>
 4    1  0.4710515E-007  0.2027360E+02  0.7818608E-02  0.1739941E+00
         -4   -1    0    0    0  501 -0.00000000000E+00  0.00000000000E+00  0.74955369701E+02  0.74968819165E+02  0.14200000000E+01 0. -1.
          4   -1    0    0  501    0  0.00000000000E+00 -0.00000000000E+00 -0.98586596668E+00  0.17286791791E+01  0.14200000000E+01 0.  1.
        -13    1    1    2    0    0 -0.52071441717E+00  0.10121326863E+02  0.36317387937E+02  0.37705122199E+02  0.10570000000E+00 0. -1.
         13    1    1    2    0    0  0.52071441717E+00 -0.10121326863E+02  0.37652115797E+02  0.38992376145E+02  0.10570000000E+00 0.  1.
<mgrwt>
<rscale>  0 0.20273598E+02</rscale>
<asrwt>0</asrwt>
<pdfrwt beam="2">  1        4 0.20984572E-03 0.20273598E+02</pdfrwt>
<pdfrwt beam="1">  1       -4 0.11589770E-01 0.20273598E+02</pdfrwt>
<totfact> 0.10237222E+06</totfact>
</mgrwt>
</event>
<event>
 5    1  0.4710515E-007  0.2000875E+02  0.7818608E-02  0.1745154E+00
         -4   -1    0    0    0  501 -0.00000000000E+00  0.00000000000E+00  0.10017626508E+01  0.17377941215E+01  0.14200000000E+01 0.  1.
          4   -1    0    0  501    0  0.00000000000E+00 -0.00000000000E+00 -0.72323536410E+02  0.72337475203E+02  0.14200000000E+01 0. -1.
       1023    2    1    2    0    0  0.00000000000E+00  0.00000000000E+00 -0.71321773759E+02  0.74075269325E+02  0.20008750922E+02 0.  0.
        -13    1    3    3    0    0  0.90461876814E+01 -0.42702536216E+01 -0.35987396466E+02  0.37352007368E+02  0.10570000000E+00 0. -1.
         13    1    3    3    0    0 -0.90461876814E+01  0.42702536216E+01 -0.35334377293E+02  0.36723261956E+02  0.10570000000E+00 0.  1.
<mgrwt>
<rscale>  0 0.20008751E+02</rscale>
<asrwt>0</asrwt>
<pdfrwt beam="2">  1        4 0.11184385E-01 0.20008751E+02</pdfrwt>
<pdfrwt beam="1">  1       -4 0.21180741E-03 0.20008751E+02</pdfrwt>
<totfact> 0.10599922E+06</totfact>
</mgrwt>
</event>
<event>
 5    1  0.5341717E-007  0.2000135E+02  0.7818608E-02  0.1745301E+00
          4   -1    0    0  501    0  0.00000000000E+00  0.00000000000E+00  0.12382290878E+02  0.12463447653E+02  0.14200000000E+01 0.  1.
         -4   -1    0    0    0  501 -0.00000000000E+00 -0.00000000000E+00 -0.79061351798E+01  0.80326442397E+01  0.14200000000E+01 0. -1.
       1023    2    1    2    0    0  0.00000000000E+00  0.00000000000E+00  0.44761556984E+01  0.20496091892E+02  0.20001345280E+02 0.  0.
        -13    1    3    3    0    0  0.26120336712E+01  0.96528934501E+01  0.22024484432E+01  0.10240264816E+02  0.10570000000E+00 0. -1.
         13    1    3    3    0    0 -0.26120336712E+01 -0.96528934501E+01  0.22737072551E+01  0.10255827077E+02  0.10570000000E+00 0.  1.
<mgrwt>
<rscale>  0 0.20001345E+02</rscale>
<asrwt>0</asrwt>
<pdfrwt beam="1">  1        4 0.19209421E-02 0.20001345E+02</pdfrwt>
<pdfrwt beam="2">  1       -4 0.12323028E-02 0.20001345E+02</pdfrwt>
<totfact> 0.12982771E+06</totfact>
</mgrwt>
</event>
<event>
 5    1  0.4710515E-007  0.2000971E+02  0.7818608E-02  0.1745135E+00
          4   -1    0    0  501    0  0.00000000000E+00  0.00000000000E+00  0.68018947448E+01  0.69485374087E+01  0.14200000000E+01 0. -1.
         -4   -1    0    0    0  501 -0.00000000000E+00 -0.00000000000E+00 -0.14377134148E+02  0.14447089199E+02  0.14200000000E+01 0.  1.
       1023    2    1    2    0    0  0.00000000000E+00  0.00000000000E+00 -0.75752394034E+01  0.21395626607E+02  0.20009712289E+02 0.  0.
        -13    1    3    3    0    0 -0.22365732380E+01  0.97495392489E+01 -0.36018061574E+01  0.10632024995E+02  0.10570000000E+00 0. -1.
         13    1    3    3    0    0  0.22365732380E+01 -0.97495392489E+01 -0.39734332460E+01  0.10763601612E+02  0.10570000000E+00 0.  1.
<mgrwt>
<rscale>  0 0.20009712E+02</rscale>
<asrwt>0</asrwt>
<pdfrwt beam="1">  1        4 0.10631067E-02 0.20009712E+02</pdfrwt>
<pdfrwt beam="2">  1       -4 0.22285281E-02 0.20009712E+02</pdfrwt>
<totfact> 0.12918677E+06</totfact>
</mgrwt>
</event>
<event>
 4    1  0.4711266E-007  0.2021475E+02  0.7818608E-02  0.1741091E+00
         -4   -1    0    0    0  501 -0.00000000000E+00  0.00000000000E+00  0.20686785682E+02  0.20735464833E+02  0.14200000000E+01 0. -1.
          4   -1    0    0  501    0  0.00000000000E+00 -0.00000000000E+00 -0.47805497581E+01  0.49869886695E+01  0.14200000000E+01 0.  1.
        -13    1    1    2    0    0 -0.82463433154E+01 -0.57207652095E+01  0.64375749709E+01  0.11924046153E+02  0.10570000000E+00 0.  1.
         13    1    1    2    0    0  0.82463433154E+01  0.57207652095E+01  0.94686609526E+01  0.13798407350E+02  0.10570000000E+00 0. -1.
<mgrwt>
<rscale>  0 0.20214754E+02</rscale>
<asrwt>0</asrwt>
<pdfrwt beam="2">  1        4 0.75509366E-03 0.20214754E+02</pdfrwt>
<pdfrwt beam="1">  1       -4 0.32022069E-02 0.20214754E+02</pdfrwt>
<totfact> 0.12412252E+06</totfact>
</mgrwt>
</event>
<event>
 5    1  0.4710515E-007  0.2000191E+02  0.7818608E-02  0.1745290E+00
         -4   -1    0    0    0  501 -0.00000000000E+00  0.00000000000E+00  0.10590898789E+03  0.10591850696E+03  0.14200000000E+01 0. -1.
          4   -1    0    0  501    0  0.00000000000E+00 -0.00000000000E+00 -0.39554200724E+00  0.14740602021E+01  0.14200000000E+01 0.  1.
       1023    2    1    2    0    0  0.00000000000E+00  0.00000000000E+00  0.10551344589E+03  0.10739256716E+03  0.20001905381E+02 0.  0.
        -13    1    3    3    0    0  0.40950527724E+01 -0.91233698861E+01  0.52485758513E+02  0.53430060402E+02  0.10570000000E+00 0.  1.
         13    1    3    3    0    0 -0.40950527724E+01  0.91233698861E+01  0.53027687374E+02  0.53962506762E+02  0.10570000000E+00 0. -1.
<mgrwt>
<rscale>  0 0.20001905E+02</rscale>
<asrwt>0</asrwt>
<pdfrwt beam="2">  1        4 0.14454775E-03 0.20001905E+02</pdfrwt>
<pdfrwt beam="1">  1       -4 0.16377390E-01 0.20001905E+02</pdfrwt>
<totfact> 0.95937849E+05</totfact>
</mgrwt>
</event>
<event>
 5    1  0.4710515E-007  0.2000270E+02  0.7818608E-02  0.1745274E+00
          4   -1    0    0  501    0  0.00000000000E+00  0.00000000000E+00  0.16992185364E+02  0.17051415292E+02  0.14200000000E+01 0. -1.
         -4   -1    0    0    0  501 -0.00000000000E+00 -0.00000000000E+00 -0.57303655351E+01  0.59036843722E+01  0.14200000000E+01 0.  1.
       1023    2    1    2    0    0  0.00000000000E+00  0.00000000000E+00  0.11261819829E+02  0.22955099664E+02  0.20002700186E+02 0.  0.
        -13    1    3    3    0    0  0.90354912715E+01 -0.42866661002E+01  0.56480249085E+01  0.11485946484E+02  0.10570000000E+00 0. -1.
         13    1    3    3    0    0 -0.90354912715E+01  0.42866661002E+01  0.56137949208E+01  0.11469153180E+02  0.10570000000E+00 0.  1.
<mgrwt>
<rscale>  0 0.20002700E+02</rscale>
<asrwt>0</asrwt>
<pdfrwt beam="1">  1        4 0.26320707E-02 0.20002700E+02</pdfrwt>
<pdfrwt beam="2">  1       -4 0.89948307E-03 0.20002700E+02</pdfrwt>
<totfact> 0.12837614E+06</totfact>
</mgrwt>
</event>
<event>
 5    1  0.4710515E-007  0.2000472E+02  0.7818608E-02  0.1745234E+00
         -4   -1    0    0    0  501 -0.00000000000E+00  0.00000000000E+00  0.17651809604E+02  0.17708833454E+02  0.14200000000E+01 0.  1.
          4   -1    0    0  501    0  0.00000000000E+00 -0.00000000000E+00 -0.55115122714E+01  0.56914995843E+01  0.14200000000E+01 0. -1.
       1023    2    1    2    0    0  0.00000000000E+00  0.00000000000E+00  0.12140297333E+02  0.23400333039E+02  0.20004718618E+02 0.  0.
        -13    1    3    3    0    0 -0.99828444897E+01 -0.61313222291E+00  0.61331848536E+01  0.11732870244E+02  0.10570000000E+00 0.  1.
         13    1    3    3    0    0  0.99828444897E+01  0.61313222291E+00  0.60071124793E+01  0.11667462794E+02  0.10570000000E+00 0. -1.
<mgrwt>
<rscale>  0 0.20004719E+02</rscale>
<asrwt>0</asrwt>
<pdfrwt beam="2">  1        4 0.86615659E-03 0.20004719E+02</pdfrwt>
<pdfrwt beam="1">  1       -4 0.27338947E-02 0.20004719E+02</pdfrwt>
<totfact> 0.12809572E+06</totfact>
</mgrwt>
</event>
<event>
 4    1  0.4710515E-007  0.2005254E+02  0.7818608E-02  0.1744285E+00
         -4   -1    0    0    0  501 -0.00000000000E+00  0.00000000000E+00  0.14760431267E+02  0.14828578192E+02  0.14200000000E+01 0.  1.
          4   -1    0    0  501    0  0.00000000000E+00 -0.00000000000E+00 -0.66515613657E+01  0.68014460669E+01  0.14200000000E+01 0. -1.
        -13    1    1    2    0    0  0.91596252855E+01 -0.40674023558E+01  0.43446242691E+01  0.10923801070E+02  0.10570000000E+00 0.  1.
         13    1    1    2    0    0 -0.91596252855E+01  0.40674023558E+01  0.37642456325E+01  0.10706223189E+02  0.10570000000E+00 0. -1.
<mgrwt>
<rscale>  0 0.20052535E+02</rscale>
<asrwt>0</asrwt>
<pdfrwt beam="2">  1        4 0.10400888E-02 0.20052535E+02</pdfrwt>
<pdfrwt beam="1">  1       -4 0.22876072E-02 0.20052535E+02</pdfrwt>
<totfact> 0.12848803E+06</totfact>
</mgrwt>
</event>
<event>
 4    1  0.4710515E-007  0.2002100E+02  0.7818608E-02  0.1744911E+00
         -4   -1    0    0    0  501 -0.00000000000E+00  0.00000000000E+00  0.23976382683E+02  0.24018395587E+02  0.14200000000E+01 0.  1.
          4   -1    0    0  501    0  0.00000000000E+00 -0.00000000000E+00 -0.40118100037E+01  0.42557043490E+01  0.14200000000E+01 0. -1.
        -13    1    1    2    0    0 -0.74429118243E+01 -0.66902265963E+01  0.10274791578E+02  0.14343590304E+02  0.10570000000E+00 0.  1.
         13    1    1    2    0    0  0.74429118243E+01  0.66902265963E+01  0.96897811015E+01  0.13930509632E+02  0.10570000000E+00 0. -1.
<mgrwt>
<rscale>  0 0.20021003E+02</rscale>
<asrwt>0</asrwt>
<pdfrwt beam="2">  1        4 0.63919441E-03 0.20021003E+02</pdfrwt>
<pdfrwt beam="1">  1       -4 0.37106671E-02 0.20021003E+02</pdfrwt>
<totfact> 0.12520132E+06</totfact>
</mgrwt>
</event>
<event>
 4    1  0.4710515E-007  0.2001567E+02  0.7818608E-02  0.1745017E+00
          4   -1    0    0  501    0  0.00000000000E+00  0.00000000000E+00  0.28472843082E+00  0.14482645750E+01  0.14200000000E+01 0. -1.
         -4   -1    0    0    0  501 -0.00000000000E+00 -0.00000000000E+00 -0.11441732225E+03  0.11442613351E+03  0.14200000000E+01 0.  1.
        -13    1    1    2    0    0 -0.88159436842E+01  0.47242381421E+01 -0.58954037338E+02  0.59796563279E+02  0.10570000000E+00 0. -1.
         13    1    1    2    0    0  0.88159436842E+01 -0.47242381421E+01 -0.55178556479E+02  0.56077834807E+02  0.10570000000E+00 0.  1.
<mgrwt>
<rscale>  0 0.20015673E+02</rscale>
<asrwt>0</asrwt>
<pdfrwt beam="1">  1        4 0.13398503E-03 0.20015673E+02</pdfrwt>
<pdfrwt beam="2">  1       -4 0.17692833E-01 0.20015673E+02</pdfrwt>
<totfact> 0.93563803E+05</totfact>
</mgrwt>
</event>
<event>
 5    1  0.4710515E-007  0.2000425E+02  0.7818608E-02  0.1745244E+00
          4   -1    0    0  501    0  0.00000000000E+00  0.00000000000E+00  0.40264623672E+02  0.40289655241E+02  0.14200000000E+01 0. -1.
         -4   -1    0    0    0  501 -0.00000000000E+00 -0.00000000000E+00 -0.22537357721E+01  0.26637801956E+01  0.14200000000E+01 0.  1.
       1023    2    1    2    0    0  0.00000000000E+00  0.00000000000E+00  0.38010887900E+02  0.42953435436E+02  0.20004249970E+02 0.  0.
        -13    1    3    3    0    0 -0.53836721551E+01 -0.84280698288E+01  0.18742072276E+02  0.21243651583E+02  0.10570000000E+00 0. -1.
         13    1    3    3    0    0  0.53836721551E+01  0.84280698288E+01  0.19268815624E+02  0.21709783853E+02  0.10570000000E+00 0.  1.
<mgrwt>
<rscale>  0 0.20004250E+02</rscale>
<asrwt>0</asrwt>
<pdfrwt beam="1">  1        4 0.62280249E-02 0.20004250E+02</pdfrwt>
<pdfrwt beam="2">  1       -4 0.38019596E-03 0.20004250E+02</pdfrwt>
<totfact> 0.11822190E+06</totfact>
</mgrwt>
</event>
<event>
 4    1  0.4710515E-007  0.2057073E+02  0.7818608E-02  0.1734211E+00
          4   -1    0    0  501    0  0.00000000000E+00  0.00000000000E+00  0.11281260694E+02  0.11370278925E+02  0.14200000000E+01 0. -1.
         -4   -1    0    0    0  501 -0.00000000000E+00 -0.00000000000E+00 -0.91968129386E+01  0.93057921870E+01  0.14200000000E+01 0.  1.
        -13    1    1    2    0    0 -0.10418393626E+01 -0.10169787789E+02 -0.89402548341E-01  0.10223951205E+02  0.10570000000E+00 0.  1.
         13    1    1    2    0    0  0.10418393626E+01  0.10169787789E+02  0.21738503033E+01  0.10452119907E+02  0.10570000000E+00 0. -1.
<mgrwt>
<rscale>  0 0.20570731E+02</rscale>
<asrwt>0</asrwt>
<pdfrwt beam="1">  1        4 0.17508091E-02 0.20570731E+02</pdfrwt>
<pdfrwt beam="2">  1       -4 0.14301249E-02 0.20570731E+02</pdfrwt>
<totfact> 0.12245030E+06</totfact>
</mgrwt>
</event>
<event>
 5    1  0.4710515E-007  0.2000855E+02  0.7818608E-02  0.1745158E+00
         -4   -1    0    0    0  501 -0.00000000000E+00  0.00000000000E+00  0.92989295549E+02  0.93000137025E+02  0.14200000000E+01 0.  1.
          4   -1    0    0  501    0  0.00000000000E+00 -0.00000000000E+00 -0.59221545387E+00  0.15385444887E+01  0.14200000000E+01 0. -1.
       1023    2    1    2    0    0  0.00000000000E+00  0.00000000000E+00  0.92397080095E+02  0.94538681514E+02  0.20008545481E+02 0.  0.
        -13    1    3    3    0    0  0.95297015749E+01 -0.30334384325E+01  0.45067125085E+02  0.46163555937E+02  0.10570000000E+00 0. -1.
         13    1    3    3    0    0 -0.95297015749E+01  0.30334384325E+01  0.47329955010E+02  0.48375125577E+02  0.10570000000E+00 0.  1.
<mgrwt>
<rscale>  0 0.20008545E+02</rscale>
<asrwt>0</asrwt>
<pdfrwt beam="2">  1        4 0.16473862E-03 0.20008545E+02</pdfrwt>
<pdfrwt beam="1">  1       -4 0.14379669E-01 0.20008545E+02</pdfrwt>
<totfact> 0.99511071E+05</totfact>
</mgrwt>
</event>
<event>
 5    1  0.4710515E-007  0.2000471E+02  0.7818608E-02  0.1745234E+00
          4   -1    0    0  501    0  0.00000000000E+00  0.00000000000E+00  0.21739286205E+01  0.25966065638E+01  0.14200000000E+01 0.  1.
         -4   -1    0    0    0  501 -0.00000000000E+00 -0.00000000000E+00 -0.41507870572E+02  0.41532152839E+02  0.14200000000E+01 0. -1.
       1023    2    1    2    0    0  0.00000000000E+00  0.00000000000E+00 -0.39333941952E+02  0.44128759403E+02  0.20004709870E+02 0.  0.
        -13    1    3    3    0    0  0.94414465798E+01 -0.32970421649E+01 -0.20012471579E+02  0.22372339881E+02  0.10570000000E+00 0. -1.
         13    1    3    3    0    0 -0.94414465798E+01  0.32970421649E+01 -0.19321470372E+02  0.21756419522E+02  0.10570000000E+00 0.  1.
<mgrwt>
<rscale>  0 0.20004710E+02</rscale>
<asrwt>0</asrwt>
<pdfrwt beam="1">  1        4 0.36883214E-03 0.20004710E+02</pdfrwt>
<pdfrwt beam="2">  1       -4 0.64202073E-02 0.20004710E+02</pdfrwt>
<totfact> 0.11768904E+06</totfact>
</mgrwt>
</event>
<event>
 5    1  0.4710515E-007  0.2000284E+02  0.7818608E-02  0.1745272E+00
          4   -1    0    0  501    0  0.00000000000E+00  0.00000000000E+00  0.75785892940E+02  0.75799195040E+02  0.14200000000E+01 0.  1.
         -4   -1    0    0    0  501 -0.00000000000E+00 -0.00000000000E+00 -0.92056952601E+00  0.16922908297E+01  0.14200000000E+01 0. -1.
       1023    2    1    2    0    0  0.00000000000E+00  0.00000000000E+00  0.74865323414E+02  0.77491485870E+02  0.20002843108E+02 0.  0.
        -13    1    3    3    0    0  0.78075336200E+01  0.62489903948E+01  0.37049183625E+02  0.38375260806E+02  0.10570000000E+00 0.  1.
         13    1    3    3    0    0 -0.78075336200E+01 -0.62489903948E+01  0.37816139790E+02  0.39116225064E+02  0.10570000000E+00 0. -1.
<mgrwt>
<rscale>  0 0.20002843E+02</rscale>
<asrwt>0</asrwt>
<pdfrwt beam="1">  1        4 0.11719758E-01 0.20002843E+02</pdfrwt>
<pdfrwt beam="2">  1       -4 0.20201244E-03 0.20002843E+02</pdfrwt>
<totfact> 0.10490941E+06</totfact>
</mgrwt>
</event>
<event>
 4    1  0.4710515E-007  0.2001941E+02  0.7818608E-02  0.1744942E+00
         -4   -1    0    0    0  501 -0.00000000000E+00  0.00000000000E+00  0.53676305651E+00  0.15180627717E+01  0.14200000000E+01 0. -1.
          4   -1    0    0  501    0  0.00000000000E+00 -0.00000000000E+00 -0.96531866150E+02  0.96542309805E+02  0.14200000000E+01 0.  1.
        -13    1    1    2    0    0  0.99139721537E+01  0.13476059947E+01 -0.46610774289E+02  0.47672616228E+02  0.10570000000E+00 0.  1.
         13    1    1    2    0    0 -0.99139721537E+01 -0.13476059947E+01 -0.49384328805E+02  0.50387756348E+02  0.10570000000E+00 0. -1.
<mgrwt>
<rscale>  0 0.20019412E+02</rscale>
<asrwt>0</asrwt>
<pdfrwt beam="2">  1        4 0.14927337E-01 0.20019412E+02</pdfrwt>
<pdfrwt beam="1">  1       -4 0.15886696E-03 0.20019412E+02</pdfrwt>
<totfact> 0.98377668E+05</totfact>
</mgrwt>
</event>
<event>
 4    1  0.4710515E-007  0.2008926E+02  0.7818608E-02  0.1743559E+00
         -4   -1    0    0    0  501 -0.00000000000E+00  0.00000000000E+00  0.47653565351E+02  0.47674717520E+02  0.14200000000E+01 0. -1.
          4   -1    0    0  501    0  0.00000000000E+00 -0.00000000000E+00 -0.18550208957E+01  0.23361298174E+01  0.14200000000E+01 0.  1.
        -13    1    1    2    0    0 -0.34328511253E+01  0.94191260447E+01  0.24431779410E+02  0.26408851166E+02  0.10570000000E+00 0. -1.
         13    1    1    2    0    0  0.34328511253E+01 -0.94191260447E+01  0.21366765045E+02  0.23601996171E+02  0.10570000000E+00 0.  1.
<mgrwt>
<rscale>  0 0.20089255E+02</rscale>
<asrwt>0</asrwt>
<pdfrwt beam="2">  1        4 0.32402333E-03 0.20089255E+02</pdfrwt>
<pdfrwt beam="1">  1       -4 0.73699524E-02 0.20089255E+02</pdfrwt>
<totfact> 0.11416674E+06</totfact>
</mgrwt>
</event>
<event>
 5    1  0.4710566E-007  0.2000391E+02  0.7818608E-02  0.1745250E+00
          4   -1    0    0  501    0  0.00000000000E+00  0.00000000000E+00  0.49163965759E+02  0.49184468373E+02  0.14200000000E+01 0.  1.
         -4   -1    0    0    0  501 -0.00000000000E+00 -0.00000000000E+00 -0.17635076861E+01  0.22641464968E+01  0.14200000000E+01 0. -1.
       1023    2    1    2    0    0  0.00000000000E+00  0.00000000000E+00  0.47400458073E+02  0.51448614870E+02  0.20003913280E+02 0.  0.
        -13    1    3    3    0    0  0.41020906330E+01  0.91199841762E+01  0.24120526396E+02  0.26111534329E+02  0.10570000000E+00 0.  1.
         13    1    3    3    0    0 -0.41020906330E+01 -0.91199841762E+01  0.23279931677E+02  0.25337080541E+02  0.10570000000E+00 0. -1.
<mgrwt>
<rscale>  0 0.20003913E+02</rscale>
<asrwt>0</asrwt>
<pdfrwt beam="1">  1        4 0.76037748E-02 0.20003913E+02</pdfrwt>
<pdfrwt beam="2">  1       -4 0.31139668E-03 0.20003913E+02</pdfrwt>
<totfact> 0.11455201E+06</totfact>
</mgrwt>
</event>
<event>
 4    1  0.4710515E-007  0.2002311E+02  0.7818608E-02  0.1744869E+00
          4   -1    0    0  501    0  0.00000000000E+00  0.00000000000E+00  0.89713256838E+01  0.90830107632E+01  0.14200000000E+01 0. -1.
         -4   -1    0    0    0  501 -0.00000000000E+00 -0.00000000000E+00 -0.10945449940E+02  0.11037176921E+02  0.14200000000E+01 0.  1.
        -13    1    1    2    0    0 -0.18581547723E+01 -0.98347424883E+01 -0.77360570183E+00  0.10039150225E+02  0.10570000000E+00 0. -1.
         13    1    1    2    0    0  0.18581547723E+01  0.98347424883E+01 -0.12005185546E+01  0.10081037459E+02  0.10570000000E+00 0.  1.
<mgrwt>
<rscale>  0 0.20023106E+02</rscale>
<asrwt>0</asrwt>
<pdfrwt beam="1">  1        4 0.13958510E-02 0.20023106E+02</pdfrwt>
<pdfrwt beam="2">  1       -4 0.16995625E-02 0.20023106E+02</pdfrwt>
<totfact> 0.12976281E+06</totfact>
</mgrwt>
</event>
<event>
 5    1  0.4710515E-007  0.2000203E+02  0.7818608E-02  0.1745288E+00
          4   -1    0    0  501    0  0.00000000000E+00  0.00000000000E+00  0.59473762393E+02  0.59490711991E+02  0.14200000000E+01 0. -1.
         -4   -1    0    0    0  501 -0.00000000000E+00 -0.00000000000E+00 -0.13616724396E+01  0.19673718085E+01  0.14200000000E+01 0.  1.
       1023    2    1    2    0    0  0.00000000000E+00  0.00000000000E+00  0.58112089954E+02  0.61458083800E+02  0.20002026536E+02 0.  0.
        -13    1    3    3    0    0 -0.73428722654E+01 -0.67886683091E+01  0.29279804322E+02  0.30940619001E+02  0.10570000000E+00 0. -1.
         13    1    3    3    0    0  0.73428722654E+01  0.67886683091E+01  0.28832285631E+02  0.30517464799E+02  0.10570000000E+00 0.  1.
<mgrwt>
<rscale>  0 0.20002027E+02</rscale>
<asrwt>0</asrwt>
<pdfrwt beam="1">  1        4 0.91977047E-02 0.20002027E+02</pdfrwt>
<pdfrwt beam="2">  1       -4 0.25738417E-03 0.20002027E+02</pdfrwt>
<totfact> 0.11060973E+06</totfact>
</mgrwt>
</event>
<event>
 5    1  0.4710515E-007  0.2000136E+02  0.7818608E-02  0.1745301E+00
         -4   -1    0    0    0  501 -0.00000000000E+00  0.00000000000E+00  0.42225086920E+00  0.14814505718E+01  0.14200000000E+01 0. -1.
          4   -1    0    0  501    0  0.00000000000E+00 -0.00000000000E+00 -0.10400600850E+03  0.10401570172E+03  0.14200000000E+01 0.  1.
       1023    2    1    2    0    0  0.00000000000E+00  0.00000000000E+00 -0.10358375763E+03  0.10549715229E+03  0.20001357367E+02 0.  0.
        -13    1    3    3    0    0  0.88216696336E+01 -0.47095513941E+01 -0.51928628555E+02  0.52882845664E+02  0.10570000000E+00 0. -1.
         13    1    3    3    0    0 -0.88216696336E+01  0.47095513941E+01 -0.51655129075E+02  0.52614306625E+02  0.10570000000E+00 0.  1.
<mgrwt>
<rscale>  0 0.20001357E+02</rscale>
<asrwt>0</asrwt>
<pdfrwt beam="2">  1        4 0.16083138E-01 0.20001357E+02</pdfrwt>
<pdfrwt beam="1">  1       -4 0.14718429E-03 0.20001357E+02</pdfrwt>
<totfact> 0.96461380E+05</totfact>
</mgrwt>
</event>
<event>
 5    1  0.5005487E-007  0.2000398E+02  0.7818608E-02  0.1745249E+00
          4   -1    0    0  501    0  0.00000000000E+00  0.00000000000E+00  0.62253005331E+01  0.63851990359E+01  0.14200000000E+01 0.  1.
         -4   -1    0    0    0  501 -0.00000000000E+00 -0.00000000000E+00 -0.15673715871E+02  0.15737908666E+02  0.14200000000E+01 0. -1.
       1023    2    1    2    0    0  0.00000000000E+00  0.00000000000E+00 -0.94484153375E+01  0.22123107702E+02  0.20003983154E+02 0.  0.
        -13    1    3    3    0    0 -0.95578732403E+01  0.29418590890E+01 -0.45632295636E+01  0.10992802751E+02  0.10570000000E+00 0. -1.
         13    1    3    3    0    0  0.95578732403E+01 -0.29418590890E+01 -0.48851857738E+01  0.11130304951E+02  0.10570000000E+00 0.  1.
<mgrwt>
<rscale>  0 0.20003983E+02</rscale>
<asrwt>0</asrwt>
<pdfrwt beam="1">  1        4 0.97497634E-03 0.20003983E+02</pdfrwt>
<pdfrwt beam="2">  1       -4 0.24285787E-02 0.20003983E+02</pdfrwt>
<totfact> 0.12883851E+06</totfact>
</mgrwt>
</event>
<event>
 5    1  0.4710515E-007  0.2000201E+02  0.7818608E-02  0.1745288E+00
         -4   -1    0    0    0  501 -0.00000000000E+00  0.00000000000E+00  0.29960459439E+01  0.33155227789E+01  0.14200000000E+01 0.  1.
          4   -1    0    0  501    0  0.00000000000E+00 -0.00000000000E+00 -0.31357865968E+02  0.31390000925E+02  0.14200000000E+01 0. -1.
       1023    2    1    2    0    0  0.00000000000E+00  0.00000000000E+00 -0.28361820024E+02  0.34705523704E+02  0.20002013411E+02 0.  0.
        -13    1    3    3    0    0  0.99513694006E+01 -0.98897949210E+00 -0.14239216840E+02  0.17400410974E+02  0.10570000000E+00 0.  1.
         13    1    3    3    0    0 -0.99513694006E+01  0.98897949210E+00 -0.14122603185E+02  0.17305112730E+02  0.10570000000E+00 0. -1.
<mgrwt>
<rscale>  0 0.20002013E+02</rscale>
<asrwt>0</asrwt>
<pdfrwt beam="2">  1        4 0.48513339E-02 0.20002013E+02</pdfrwt>
<pdfrwt beam="1">  1       -4 0.48797723E-03 0.20002013E+02</pdfrwt>
<totfact> 0.12214028E+06</totfact>
</mgrwt>
</event>
<event>
 5    1  0.4710515E-007  0.2000309E+02  0.7818608E-02  0.1745267E+00
          4   -1    0    0  501    0  0.00000000000E+00  0.00000000000E+00  0.60350216882E+00  0.15429241290E+01  0.14200000000E+01 0.  1.
         -4   -1    0    0    0  501 -0.00000000000E+00 -0.00000000000E+00 -0.92259639195E+02  0.92270566403E+02  0.14200000000E+01 0. -1.
       1023    2    1    2    0    0  0.00000000000E+00  0.00000000000E+00 -0.91656137026E+02  0.93813490532E+02  0.20003088544E+02 0.  0.
        -13    1    3    3    0    0  0.59236071589E+01 -0.80574828279E+01 -0.46235960420E+02  0.47305257211E+02  0.10570000000E+00 0.  1.
         13    1    3    3    0    0 -0.59236071589E+01  0.80574828279E+01 -0.45420176606E+02  0.46508233322E+02  0.10570000000E+00 0. -1.
<mgrwt>
<rscale>  0 0.20003089E+02</rscale>
<asrwt>0</asrwt>
<pdfrwt beam="1">  1        4 0.16595034E-03 0.20003089E+02</pdfrwt>
<pdfrwt beam="2">  1       -4 0.14266888E-01 0.20003089E+02</pdfrwt>
<totfact> 0.99779875E+05</totfact>
</mgrwt>
</event>
<event>
 5    1  0.4710515E-007  0.2000606E+02  0.7818608E-02  0.1745208E+00
          4   -1    0    0  501    0  0.00000000000E+00  0.00000000000E+00  0.72663463705E+01  0.74037956196E+01  0.14200000000E+01 0. -1.
         -4   -1    0    0    0  501 -0.00000000000E+00 -0.00000000000E+00 -0.13466267921E+02  0.13540929500E+02  0.14200000000E+01 0.  1.
       1023    2    1    2    0    0  0.00000000000E+00  0.00000000000E+00 -0.61999215506E+01  0.20944725120E+02  0.20006061159E+02 0.  0.
        -13    1    3    3    0    0 -0.72178187655E+01  0.69234891741E+01 -0.32397870213E+01  0.10513753017E+02  0.10570000000E+00 0.  1.
         13    1    3    3    0    0  0.72178187655E+01 -0.69234891741E+01 -0.29601345293E+01  0.10430972102E+02  0.10570000000E+00 0. -1.
<mgrwt>
<rscale>  0 0.20006061E+02</rscale>
<asrwt>0</asrwt>
<pdfrwt beam="1">  1        4 0.11342157E-02 0.20006061E+02</pdfrwt>
<pdfrwt beam="2">  1       -4 0.20880497E-02 0.20006061E+02</pdfrwt>
<totfact> 0.12950005E+06</totfact>
</mgrwt>
</event>
<event>
 4    1  0.4710515E-007  0.2003401E+02  0.7818608E-02  0.1744653E+00
          4   -1    0    0  501    0  0.00000000000E+00  0.00000000000E+00  0.29308978053E+01  0.32567717060E+01  0.14200000000E+01 0.  1.
         -4   -1    0    0    0  501 -0.00000000000E+00 -0.00000000000E+00 -0.32089978429E+02  0.32121380972E+02  0.14200000000E+01 0. -1.
        -13    1    1    2    0    0 -0.99485647963E+01  0.10708293598E+01 -0.15386147979E+02  0.18353891663E+02  0.10570000000E+00 0. -1.
         13    1    1    2    0    0  0.99485647963E+01 -0.10708293598E+01 -0.13772932644E+02  0.17024261016E+02  0.10570000000E+00 0.  1.
<mgrwt>
<rscale>  0 0.20034014E+02</rscale>
<asrwt>0</asrwt>
<pdfrwt beam="1">  1        4 0.47839018E-03 0.20034014E+02</pdfrwt>
<pdfrwt beam="2">  1       -4 0.49644023E-02 0.20034014E+02</pdfrwt>
<totfact> 0.12141488E+06</totfact>
</mgrwt>
</event>
<event>
 5    1  0.4808130E-007  0.2000246E+02  0.7818608E-02  0.1745279E+00
         -4   -1    0    0    0  501 -0.00000000000E+00  0.00000000000E+00  0.16504740534E+02  0.16565713389E+02  0.14200000000E+01 0. -1.
          4   -1    0    0  501    0  0.00000000000E+00 -0.00000000000E+00 -0.59038700243E+01  0.60722385711E+01  0.14200000000E+01 0.  1.
       1023    2    1    2    0    0  0.00000000000E+00  0.00000000000E+00  0.10600870510E+02  0.22637951960E+02  0.20002460184E+02 0.  0.
        -13    1    3    3    0    0  0.97203497698E+01  0.23500804459E+01  0.52176302233E+01  0.11280200148E+02  0.10570000000E+00 0. -1.
         13    1    3    3    0    0 -0.97203497698E+01 -0.23500804459E+01  0.53832402864E+01  0.11357751812E+02  0.10570000000E+00 0.  1.
<mgrwt>
<rscale>  0 0.20002460E+02</rscale>
<asrwt>0</asrwt>
<pdfrwt beam="2">  1        4 0.92592937E-03 0.20002460E+02</pdfrwt>
<pdfrwt beam="1">  1       -4 0.25568324E-02 0.20002460E+02</pdfrwt>
<totfact> 0.12856129E+06</totfact>
</mgrwt>
</event>
<event>
 5    1  0.4710515E-007  0.2000240E+02  0.7818608E-02  0.1745280E+00
          4   -1    0    0  501    0  0.00000000000E+00  0.00000000000E+00  0.56876111705E+01  0.58621941990E+01  0.14200000000E+01 0. -1.
         -4   -1    0    0    0  501 -0.00000000000E+00 -0.00000000000E+00 -0.17116035153E+02  0.17174837972E+02  0.14200000000E+01 0.  1.
       1023    2    1    2    0    0  0.00000000000E+00  0.00000000000E+00 -0.11428423982E+02  0.23037032171E+02  0.20002399269E+02 0.  0.
        -13    1    3    3    0    0  0.99540064987E+01  0.96187831053E+00 -0.57985814131E+01  0.11560370848E+02  0.10570000000E+00 0. -1.
         13    1    3    3    0    0 -0.99540064987E+01 -0.96187831053E+00 -0.56298425693E+01  0.11476661322E+02  0.10570000000E+00 0.  1.
<mgrwt>
<rscale>  0 0.20002399E+02</rscale>
<asrwt>0</asrwt>
<pdfrwt beam="1">  1        4 0.89296987E-03 0.20002399E+02</pdfrwt>
<pdfrwt beam="2">  1       -4 0.26511889E-02 0.20002399E+02</pdfrwt>
<totfact> 0.12833319E+06</totfact>
</mgrwt>
</event>
<event>
 5    1  0.4710515E-007  0.2000231E+02  0.7818608E-02  0.1745282E+00
          4   -1    0    0  501    0  0.00000000000E+00  0.00000000000E+00  0.62456723554E+02  0.62472863846E+02  0.14200000000E+01 0. -1.
         -4   -1    0    0    0  501 -0.00000000000E+00 -0.00000000000E+00 -0.12670633393E+01  0.19031157363E+01  0.14200000000E+01 0.  1.
       1023    2    1    2    0    0  0.00000000000E+00  0.00000000000E+00  0.61189660215E+02  0.64375979582E+02  0.20002305616E+02 0.  0.
        -13    1    3    3    0    0 -0.99698853332E+01  0.78291732071E+00  0.30537989063E+02  0.32133962121E+02  0.10570000000E+00 0. -1.
         13    1    3    3    0    0  0.99698853332E+01 -0.78291732071E+00  0.30651671152E+02  0.32242017461E+02  0.10570000000E+00 0.  1.
<mgrwt>
<rscale>  0 0.20002306E+02</rscale>
<asrwt>0</asrwt>
<pdfrwt beam="1">  1        4 0.96588934E-02 0.20002306E+02</pdfrwt>
<pdfrwt beam="2">  1       -4 0.24510154E-03 0.20002306E+02</pdfrwt>
<totfact> 0.10951444E+06</totfact>
</mgrwt>
</event>
<event>
 4    1  0.4710515E-007  0.2002362E+02  0.7818608E-02  0.1744859E+00
          4   -1    0    0  501    0  0.00000000000E+00  0.00000000000E+00  0.97011296956E+00  0.17197439268E+01  0.14200000000E+01 0.  1.
         -4   -1    0    0    0  501 -0.00000000000E+00 -0.00000000000E+00 -0.73770758712E+02  0.73784424108E+02  0.14200000000E+01 0. -1.
        -13    1    1    2    0    0 -0.47441985648E+01  0.88157640812E+01 -0.36372696376E+02  0.37725446724E+02  0.10570000000E+00 0. -1.
         13    1    1    2    0    0  0.47441985648E+01 -0.88157640812E+01 -0.36427949366E+02  0.37778721310E+02  0.10570000000E+00 0.  1.
<mgrwt>
<rscale>  0 0.20023620E+02</rscale>
<asrwt>0</asrwt>
<pdfrwt beam="1">  1        4 0.20796331E-03 0.20023620E+02</pdfrwt>
<pdfrwt beam="2">  1       -4 0.11408059E-01 0.20023620E+02</pdfrwt>
<totfact> 0.10535674E+06</totfact>
</mgrwt>
</event>
<event>
 4    1  0.4710515E-007  0.2008570E+02  0.7818608E-02  0.1743629E+00
         -4   -1    0    0    0  501 -0.00000000000E+00  0.00000000000E+00  0.26453479512E+02  0.26491564285E+02  0.14200000000E+01 0.  1.
          4   -1    0    0  501    0  0.00000000000E+00 -0.00000000000E+00 -0.36381113868E+01  0.39054134817E+01  0.14200000000E+01 0. -1.
        -13    1    1    2    0    0  0.96322139383E+01  0.27897680512E+01  0.10599364668E+02  0.14591780392E+02  0.10570000000E+00 0.  1.
         13    1    1    2    0    0 -0.96322139383E+01 -0.27897680512E+01  0.12216003456E+02  0.15805197375E+02  0.10570000000E+00 0. -1.
<mgrwt>
<rscale>  0 0.20085697E+02</rscale>
<asrwt>0</asrwt>
<pdfrwt beam="2">  1        4 0.58320075E-03 0.20085697E+02</pdfrwt>
<pdfrwt beam="1">  1       -4 0.40932573E-02 0.20085697E+02</pdfrwt>
<totfact> 0.12327446E+06</totfact>
</mgrwt>
</event>
<event>
 4    1  0.4710515E-007  0.2024279E+02  0.7818608E-02  0.1740543E+00
         -4   -1    0    0    0  501 -0.00000000000E+00  0.00000000000E+00  0.18141586326E+02  0.18197075436E+02  0.14200000000E+01 0.  1.
          4   -1    0    0  501    0  0.00000000000E+00 -0.00000000000E+00 -0.54922924010E+01  0.56728895475E+01  0.14200000000E+01 0. -1.
        -13    1    1    2    0    0 -0.10026544942E+02  0.12343474084E+01  0.70479569980E+01  0.12318282645E+02  0.10570000000E+00 0.  1.
         13    1    1    2    0    0  0.10026544942E+02 -0.12343474084E+01  0.56013369269E+01  0.11551682338E+02  0.10570000000E+00 0. -1.
<mgrwt>
<rscale>  0 0.20242791E+02</rscale>
<asrwt>0</asrwt>
<pdfrwt beam="2">  1        4 0.86312854E-03 0.20242791E+02</pdfrwt>
<pdfrwt beam="1">  1       -4 0.28091738E-02 0.20242791E+02</pdfrwt>
<totfact> 0.12477959E+06</totfact>
</mgrwt>
</event>
<event>
 5    1  0.4710515E-007  0.2000808E+02  0.7818608E-02  0.1745167E+00
         -4   -1    0    0    0  501 -0.00000000000E+00  0.00000000000E+00  0.75154059794E+02  0.75167473707E+02  0.14200000000E+01 0.  1.
          4   -1    0    0  501    0  0.00000000000E+00 -0.00000000000E+00 -0.93566624511E+00  0.17005502998E+01  0.14200000000E+01 0. -1.
       1023    2    1    2    0    0  0.00000000000E+00  0.00000000000E+00  0.74218393549E+02  0.76868024007E+02  0.20008077713E+02 0.  0.
        -13    1    3    3    0    0  0.99999308003E+01 -0.19185301720E+00  0.37819651885E+02  0.39119977822E+02  0.10570000000E+00 0.  1.
         13    1    3    3    0    0 -0.99999308003E+01  0.19185301720E+00  0.36398741664E+02  0.37748046185E+02  0.10570000000E+00 0. -1.
<mgrwt>
<rscale>  0 0.20008078E+02</rscale>
<asrwt>0</asrwt>
<pdfrwt beam="2">  1        4 0.20381776E-03 0.20008078E+02</pdfrwt>
<pdfrwt beam="1">  1       -4 0.11622030E-01 0.20008078E+02</pdfrwt>
<totfact> 0.10506242E+06</totfact>
</mgrwt>
</event>
<event>
 4    1  0.4710515E-007  0.2002106E+02  0.7818608E-02  0.1744910E+00
          4   -1    0    0  501    0  0.00000000000E+00  0.00000000000E+00  0.32664096358E+02  0.32694947483E+02  0.14200000000E+01 0.  1.
         -4   -1    0    0    0  501 -0.00000000000E+00 -0.00000000000E+00 -0.28694716449E+01  0.32016038982E+01  0.14200000000E+01 0. -1.
        -13    1    1    2    0    0  0.97887424270E+01 -0.20928446364E+01  0.14907971545E+02  0.17957122961E+02  0.10570000000E+00 0.  1.
         13    1    1    2    0    0 -0.97887424270E+01  0.20928446364E+01  0.14886653169E+02  0.17939428420E+02  0.10570000000E+00 0. -1.
<mgrwt>
<rscale>  0 0.20021057E+02</rscale>
<asrwt>0</asrwt>
<pdfrwt beam="1">  1        4 0.50531676E-02 0.20021057E+02</pdfrwt>
<pdfrwt beam="2">  1       -4 0.46937895E-03 0.20021057E+02</pdfrwt>
<totfact> 0.12132139E+06</totfact>
</mgrwt>
</event>
<event>
 4    1  0.4710515E-007  0.2008405E+02  0.7818608E-02  0.1743662E+00
          4   -1    0    0  501    0  0.00000000000E+00  0.00000000000E+00  0.81955778618E+01  0.83176857652E+01  0.14200000000E+01 0.  1.
         -4   -1    0    0    0  501 -0.00000000000E+00 -0.00000000000E+00 -0.12049382794E+02  0.12132766614E+02  0.14200000000E+01 0. -1.
        -13    1    1    2    0    0  0.10029391226E+02  0.32246058714E+00 -0.23057872599E+01  0.10296625495E+02  0.10570000000E+00 0.  1.
         13    1    1    2    0    0 -0.10029391226E+02 -0.32246058714E+00 -0.15480176719E+01  0.10153826884E+02  0.10570000000E+00 0. -1.
<mgrwt>
<rscale>  0 0.20084053E+02</rscale>
<asrwt>0</asrwt>
<pdfrwt beam="1">  1        4 0.12766652E-02 0.20084053E+02</pdfrwt>
<pdfrwt beam="2">  1       -4 0.18695583E-02 0.20084053E+02</pdfrwt>
<totfact> 0.12876504E+06</totfact>
</mgrwt>
</event>
<event>
 5    1  0.4952709E-007  0.2000259E+02  0.7818608E-02  0.1745277E+00
         -4   -1    0    0    0  501 -0.00000000000E+00  0.00000000000E+00  0.46206502720E+01  0.48339227276E+01  0.14200000000E+01 0. -1.
          4   -1    0    0  501    0  0.00000000000E+00 -0.00000000000E+00 -0.20921374965E+02  0.20969509542E+02  0.14200000000E+01 0.  1.
       1023    2    1    2    0    0  0.00000000000E+00  0.00000000000E+00 -0.16300724693E+02  0.25803432269E+02  0.20002587117E+02 0.  0.
        -13    1    3    3    0    0 -0.94402541922E+01 -0.33007765534E+01 -0.81945867730E+01  0.12929653899E+02  0.10570000000E+00 0.  1.
         13    1    3    3    0    0  0.94402541922E+01  0.33007765534E+01 -0.81061379198E+01  0.12873778371E+02  0.10570000000E+00 0. -1.
<mgrwt>
<rscale>  0 0.20002587E+02</rscale>
<asrwt>0</asrwt>
<pdfrwt beam="2">  1        4 0.32387813E-02 0.20002587E+02</pdfrwt>
<pdfrwt beam="1">  1       -4 0.73097752E-03 0.20002587E+02</pdfrwt>
<totfact> 0.12677665E+06</totfact>
</mgrwt>
</event>
<event>
 5    1  0.4710515E-007  0.2000319E+02  0.7818608E-02  0.1745265E+00
         -4   -1    0    0    0  501 -0.00000000000E+00  0.00000000000E+00  0.36988430839E+02  0.37015677975E+02  0.14200000000E+01 0. -1.
          4   -1    0    0  501    0  0.00000000000E+00 -0.00000000000E+00 -0.24877260671E+01  0.28644687090E+01  0.14200000000E+01 0.  1.
       1023    2    1    2    0    0  0.00000000000E+00  0.00000000000E+00  0.34500704772E+02  0.39880146684E+02  0.20003186490E+02 0.  0.
        -13    1    3    3    0    0  0.83261304910E+01 -0.55404059332E+01  0.17274614302E+02  0.19961062563E+02  0.10570000000E+00 0.  1.
         13    1    3    3    0    0 -0.83261304910E+01  0.55404059332E+01  0.17226090469E+02  0.19919084121E+02  0.10570000000E+00 0. -1.
<mgrwt>
<rscale>  0 0.20003186E+02</rscale>
<asrwt>0</asrwt>
<pdfrwt beam="2">  1        4 0.41380324E-03 0.20003186E+02</pdfrwt>
<pdfrwt beam="1">  1       -4 0.57216037E-02 0.20003186E+02</pdfrwt>
<totfact> 0.11964332E+06</totfact>
</mgrwt>
</event>
<event>
 5    1  0.4710515E-007  0.2000127E+02  0.7818608E-02  0.1745303E+00
         -4   -1    0    0    0  501 -0.00000000000E+00  0.00000000000E+00  0.22764154330E+02  0.22808400259E+02  0.14200000000E+01 0.  1.
          4   -1    0    0  501    0  0.00000000000E+00 -0.00000000000E+00 -0.42287794225E+01  0.44608267624E+01  0.14200000000E+01 0. -1.
       1023    2    1    2    0    0  0.00000000000E+00  0.00000000000E+00  0.18535374908E+02  0.27269227021E+02  0.20001265444E+02 0.  0.
        -13    1    3    3    0    0  0.93728691370E+01  0.34856557691E+01  0.92243511443E+01  0.13605157056E+02  0.10570000000E+00 0. -1.
         13    1    3    3    0    0 -0.93728691370E+01 -0.34856557691E+01  0.93110237635E+01  0.13664069965E+02  0.10570000000E+00 0.  1.
<mgrwt>
<rscale>  0 0.20001265E+02</rscale>
<asrwt>0</asrwt>
<pdfrwt beam="2">  1        4 0.67183479E-03 0.20001265E+02</pdfrwt>
<pdfrwt beam="1">  1       -4 0.35234309E-02 0.20001265E+02</pdfrwt>
<totfact> 0.12599280E+06</totfact>
</mgrwt>
</event>
<event>
 5    1  0.4710515E-007  0.2000818E+02  0.7818608E-02  0.1745165E+00
         -4   -1    0    0    0  501 -0.00000000000E+00  0.00000000000E+00  0.68606887892E+01  0.70061009601E+01  0.14200000000E+01 0.  1.
          4   -1    0    0  501    0  0.00000000000E+00 -0.00000000000E+00 -0.14253686128E+02  0.14324244072E+02  0.14200000000E+01 0. -1.
       1023    2    1    2    0    0  0.00000000000E+00  0.00000000000E+00 -0.73929973388E+01  0.21330345032E+02  0.20008178566E+02 0.  0.
        -13    1    3    3    0    0 -0.41313995275E+01  0.91105378885E+01 -0.37139257884E+01  0.10671212674E+02  0.10570000000E+00 0. -1.
         13    1    3    3    0    0  0.41313995275E+01 -0.91105378885E+01 -0.36790715504E+01  0.10659132359E+02  0.10570000000E+00 0.  1.
<mgrwt>
<rscale>  0 0.20008179E+02</rscale>
<asrwt>0</asrwt>
<pdfrwt beam="2">  1        4 0.22094879E-02 0.20008179E+02</pdfrwt>
<pdfrwt beam="1">  1       -4 0.10721037E-02 0.20008179E+02</pdfrwt>
<totfact> 0.12924523E+06</totfact>
</mgrwt>
</event>
<event>
 5    1  0.4710515E-007  0.2000272E+02  0.7818608E-02  0.1745274E+00
         -4   -1    0    0    0  501 -0.00000000000E+00  0.00000000000E+00  0.10319692144E+03  0.10320669065E+03  0.14200000000E+01 0.  1.
          4   -1    0    0  501    0  0.00000000000E+00 -0.00000000000E+00 -0.43403637588E+00  0.14848527117E+01  0.14200000000E+01 0. -1.
       1023    2    1    2    0    0  0.00000000000E+00  0.00000000000E+00  0.10276288506E+03  0.10469154336E+03  0.20002717428E+02 0.  0.
        -13    1    3    3    0    0 -0.98273345496E+01 -0.18544335664E+01  0.51255891019E+02  0.52222533114E+02  0.10570000000E+00 0. -1.
         13    1    3    3    0    0  0.98273345496E+01  0.18544335664E+01  0.51506994042E+02  0.52469010244E+02  0.10570000000E+00 0.  1.
<mgrwt>
<rscale>  0 0.20002717E+02</rscale>
<asrwt>0</asrwt>
<pdfrwt beam="2">  1        4 0.14835843E-03 0.20002717E+02</pdfrwt>
<pdfrwt beam="1">  1       -4 0.15958022E-01 0.20002717E+02</pdfrwt>
<totfact> 0.96670452E+05</totfact>
</mgrwt>
</event>
<event>
 5    1  0.4710515E-007  0.2000438E+02  0.7818608E-02  0.1745241E+00
          4   -1    0    0  501    0  0.00000000000E+00  0.00000000000E+00  0.83132530862E+00  0.16454488047E+01  0.14200000000E+01 0.  1.
         -4   -1    0    0    0  501 -0.00000000000E+00 -0.00000000000E+00 -0.79963057201E+02  0.79975664530E+02  0.14200000000E+01 0. -1.
       1023    2    1    2    0    0  0.00000000000E+00  0.00000000000E+00 -0.79131731893E+02  0.81621113334E+02  0.20004378261E+02 0.  0.
        -13    1    3    3    0    0 -0.60072173283E+01 -0.79963315970E+01 -0.39843673078E+02  0.41079890894E+02  0.10570000000E+00 0. -1.
         13    1    3    3    0    0  0.60072173283E+01  0.79963315970E+01 -0.39288058815E+02  0.40541222441E+02  0.10570000000E+00 0.  1.
<mgrwt>
<rscale>  0 0.20004378E+02</rscale>
<asrwt>0</asrwt>
<pdfrwt beam="1">  1        4 0.19149094E-03 0.20004378E+02</pdfrwt>
<pdfrwt beam="2">  1       -4 0.12365599E-01 0.20004378E+02</pdfrwt>
<totfact> 0.10353953E+06</totfact>
</mgrwt>
</event>
<event>
 5    1  0.4710515E-007  0.2000226E+02  0.7818608E-02  0.1745283E+00
         -4   -1    0    0    0  501 -0.00000000000E+00  0.00000000000E+00  0.16559768256E+02  0.16620539242E+02  0.14200000000E+01 0.  1.
          4   -1    0    0  501    0  0.00000000000E+00 -0.00000000000E+00 -0.58836453714E+01  0.60525765469E+01  0.14200000000E+01 0. -1.
       1023    2    1    2    0    0  0.00000000000E+00  0.00000000000E+00  0.10676122885E+02  0.22673115789E+02  0.20002264365E+02 0.  0.
        -13    1    3    3    0    0  0.92265429594E+01  0.38576906019E+01  0.53102800507E+01  0.11323476430E+02  0.10570000000E+00 0. -1.
         13    1    3    3    0    0 -0.92265429594E+01 -0.38576906019E+01  0.53658428341E+01  0.11349639359E+02  0.10570000000E+00 0.  1.
<mgrwt>
<rscale>  0 0.20002264E+02</rscale>
<asrwt>0</asrwt>
<pdfrwt beam="2">  1        4 0.92284561E-03 0.20002264E+02</pdfrwt>
<pdfrwt beam="1">  1       -4 0.25653260E-02 0.20002264E+02</pdfrwt>
<totfact> 0.12854363E+06</totfact>
</mgrwt>
</event>
<event>
 5    1  0.4710515E-007  0.2000427E+02  0.7818608E-02  0.1745243E+00
          4   -1    0    0  501    0  0.00000000000E+00  0.00000000000E+00  0.15364678710E+02  0.15430157221E+02  0.14200000000E+01 0.  1.
         -4   -1    0    0    0  501 -0.00000000000E+00 -0.00000000000E+00 -0.63533473036E+01  0.65101015323E+01  0.14200000000E+01 0. -1.
       1023    2    1    2    0    0  0.00000000000E+00  0.00000000000E+00  0.90113314062E+01  0.21940258753E+02  0.20004271055E+02 0.  0.
        -13    1    3    3    0    0 -0.97906713696E+01 -0.20417626255E+01  0.44243106507E+01  0.10936715124E+02  0.10570000000E+00 0. -1.
         13    1    3    3    0    0  0.97906713696E+01  0.20417626255E+01  0.45870207556E+01  0.11003543629E+02  0.10570000000E+00 0.  1.
<mgrwt>
<rscale>  0 0.20004271E+02</rscale>
<asrwt>0</asrwt>
<pdfrwt beam="1">  1        4 0.23808915E-02 0.20004271E+02</pdfrwt>
<pdfrwt beam="2">  1       -4 0.99453289E-03 0.20004271E+02</pdfrwt>
<totfact> 0.12894077E+06</totfact>
</mgrwt>
</event>
<event>
 5    1  0.4710515E-007  0.2000443E+02  0.7818608E-02  0.1745240E+00
         -4   -1    0    0    0  501 -0.00000000000E+00  0.00000000000E+00  0.99938982962E+02  0.99949070609E+02  0.14200000000E+01 0. -1.
          4   -1    0    0  501    0  0.00000000000E+00 -0.00000000000E+00 -0.48215574677E+00  0.14996246744E+01  0.14200000000E+01 0.  1.
       1023    2    1    2    0    0  0.00000000000E+00  0.00000000000E+00  0.99456827215E+02  0.10144869528E+03  0.20004431881E+02 0.  0.
        -13    1    3    3    0    0  0.82883738046E+01  0.55969009470E+01  0.50253256073E+02  0.51238885223E+02  0.10570000000E+00 0. -1.
         13    1    3    3    0    0 -0.82883738046E+01 -0.55969009470E+01  0.49203571143E+02  0.50209810060E+02  0.10570000000E+00 0.  1.
<mgrwt>
<rscale>  0 0.20004432E+02</rscale>
<asrwt>0</asrwt>
<pdfrwt beam="2">  1        4 0.15322059E-03 0.20004432E+02</pdfrwt>
<pdfrwt beam="1">  1       -4 0.15454274E-01 0.20004432E+02</pdfrwt>
<totfact> 0.97558779E+05</totfact>
</mgrwt>
</event>
<event>
 5    1  0.4710515E-007  0.2000117E+02  0.7818608E-02  0.1745305E+00
         -4   -1    0    0    0  501 -0.00000000000E+00  0.00000000000E+00  0.34087777137E+01  0.36927179017E+01  0.14200000000E+01 0. -1.
          4   -1    0    0  501    0  0.00000000000E+00 -0.00000000000E+00 -0.27863645357E+02  0.27899805242E+02  0.14200000000E+01 0.  1.
       1023    2    1    2    0    0  0.00000000000E+00  0.00000000000E+00 -0.24454867643E+02  0.31592523144E+02  0.20001174145E+02 0.  0.
        -13    1    3    3    0    0 -0.22682106896E+01  0.97393778910E+01 -0.12255148516E+02  0.15817714724E+02  0.10570000000E+00 0.  1.
         13    1    3    3    0    0  0.22682106896E+01 -0.97393778910E+01 -0.12199719127E+02  0.15774808420E+02  0.10570000000E+00 0. -1.
<mgrwt>
<rscale>  0 0.20001174E+02</rscale>
<asrwt>0</asrwt>
<pdfrwt beam="2">  1        4 0.43113376E-02 0.20001174E+02</pdfrwt>
<pdfrwt beam="1">  1       -4 0.54905044E-03 0.20001174E+02</pdfrwt>
<totfact> 0.12371852E+06</totfact>
</mgrwt>
</event>
<event>
 5    1  0.4710515E-007  0.2000316E+02  0.7818608E-02  0.1745265E+00
         -4   -1    0    0    0  501 -0.00000000000E+00  0.00000000000E+00  0.13963917588E+01  0.19915596763E+01  0.14200000000E+01 0.  1.
          4   -1    0    0  501    0  0.00000000000E+00 -0.00000000000E+00 -0.58446055528E+02  0.58463303078E+02  0.14200000000E+01 0. -1.
       1023    2    1    2    0    0  0.00000000000E+00  0.00000000000E+00 -0.57049663769E+02  0.60454862754E+02  0.20003157112E+02 0.  0.
        -13    1    3    3    0    0 -0.15859000464E+01 -0.98743422850E+01 -0.28681483374E+02  0.30375259267E+02  0.10570000000E+00 0.  1.
         13    1    3    3    0    0  0.15859000464E+01  0.98743422850E+01 -0.28368180395E+02  0.30079603487E+02  0.10570000000E+00 0. -1.
<mgrwt>
<rscale>  0 0.20003157E+02</rscale>
<asrwt>0</asrwt>
<pdfrwt beam="2">  1        4 0.90388082E-02 0.20003157E+02</pdfrwt>
<pdfrwt beam="1">  1       -4 0.26193843E-03 0.20003157E+02</pdfrwt>
<totfact> 0.11097901E+06</totfact>
</mgrwt>
</event>
<event>
 5    1  0.4710515E-007  0.2000243E+02  0.7818608E-02  0.1745280E+00
          4   -1    0    0  501    0  0.00000000000E+00  0.00000000000E+00  0.28031608289E+01  0.31423097608E+01  0.14200000000E+01 0. -1.
         -4   -1    0    0    0  501 -0.00000000000E+00 -0.00000000000E+00 -0.33292067484E+02  0.33322337213E+02  0.14200000000E+01 0.  1.
       1023    2    1    2    0    0  0.00000000000E+00  0.00000000000E+00 -0.30488906655E+02  0.36464646974E+02  0.20002426101E+02 0.  0.
        -13    1    3    3    0    0 -0.48117740134E+01 -0.87666479342E+01 -0.15105559087E+02  0.18116190907E+02  0.10570000000E+00 0. -1.
         13    1    3    3    0    0  0.48117740134E+01  0.87666479342E+01 -0.15383347568E+02  0.18348456067E+02  0.10570000000E+00 0.  1.
<mgrwt>
<rscale>  0 0.20002426E+02</rscale>
<asrwt>0</asrwt>
<pdfrwt beam="1">  1        4 0.45967235E-03 0.20002426E+02</pdfrwt>
<pdfrwt beam="2">  1       -4 0.51502731E-02 0.20002426E+02</pdfrwt>
<totfact> 0.12127464E+06</totfact>
</mgrwt>
</event>
<event>
 4    1  0.4710515E-007  0.2001654E+02  0.7818608E-02  0.1744999E+00
          4   -1    0    0  501    0  0.00000000000E+00  0.00000000000E+00  0.89068165182E+00  0.16762200944E+01  0.14200000000E+01 0. -1.
         -4   -1    0    0    0  501 -0.00000000000E+00 -0.00000000000E+00 -0.77249801120E+02  0.77262851184E+02  0.14200000000E+01 0.  1.
        -13    1    1    2    0    0 -0.68828328556E+01  0.72649809296E+01 -0.38057778875E+02  0.39351734922E+02  0.10570000000E+00 0. -1.
         13    1    1    2    0    0  0.68828328556E+01 -0.72649809296E+01 -0.38301340593E+02  0.39587336356E+02  0.10570000000E+00 0.  1.
<mgrwt>
<rscale>  0 0.20016539E+02</rscale>
<asrwt>0</asrwt>
<pdfrwt beam="1">  1        4 0.19845789E-03 0.20016539E+02</pdfrwt>
<pdfrwt beam="2">  1       -4 0.11946011E-01 0.20016539E+02</pdfrwt>
<totfact> 0.10428696E+06</totfact>
</mgrwt>
</event>
<event>
 4    1  0.4710515E-007  0.2003488E+02  0.7818608E-02  0.1744635E+00
         -4   -1    0    0    0  501 -0.00000000000E+00  0.00000000000E+00  0.14077844141E+02  0.14149278981E+02  0.14200000000E+01 0.  1.
          4   -1    0    0  501    0  0.00000000000E+00 -0.00000000000E+00 -0.69668825849E+01  0.71101232726E+01  0.14200000000E+01 0. -1.
        -13    1    1    2    0    0  0.87367794847E+01  0.48989317284E+01  0.36447797814E+01  0.10659570347E+02  0.10570000000E+00 0.  1.
         13    1    1    2    0    0 -0.87367794847E+01 -0.48989317284E+01  0.34661817752E+01  0.10599831906E+02  0.10570000000E+00 0. -1.
<mgrwt>
<rscale>  0 0.20034880E+02</rscale>
<asrwt>0</asrwt>
<pdfrwt beam="2">  1        4 0.10883416E-02 0.20034880E+02</pdfrwt>
<pdfrwt beam="1">  1       -4 0.21823357E-02 0.20034880E+02</pdfrwt>
<totfact> 0.12893548E+06</totfact>
</mgrwt>
</event>
<event>
 5    1  0.4710515E-007  0.2000497E+02  0.7818608E-02  0.1745229E+00
         -4   -1    0    0    0  501 -0.00000000000E+00  0.00000000000E+00  0.10802976148E+03  0.10803909369E+03  0.14200000000E+01 0.  1.
          4   -1    0    0  501    0  0.00000000000E+00 -0.00000000000E+00 -0.36684812071E+00  0.14666211316E+01  0.14200000000E+01 0. -1.
       1023    2    1    2    0    0  0.00000000000E+00  0.00000000000E+00  0.10766291336E+03  0.10950571483E+03  0.20004966025E+02 0.  0.
        -13    1    3    3    0    0  0.99688587549E+01  0.80771008427E+00  0.54319633689E+02  0.55232819202E+02  0.10570000000E+00 0. -1.
         13    1    3    3    0    0 -0.99688587549E+01 -0.80771008427E+00  0.53343279675E+02  0.54272895624E+02  0.10570000000E+00 0.  1.
<mgrwt>
<rscale>  0 0.20004966E+02</rscale>
<asrwt>0</asrwt>
<pdfrwt beam="2">  1        4 0.14175403E-03 0.20004966E+02</pdfrwt>
<pdfrwt beam="1">  1       -4 0.16705271E-01 0.20004966E+02</pdfrwt>
<totfact> 0.95338259E+05</totfact>
</mgrwt>
</event>
<event>
 5    1  0.4710515E-007  0.2000668E+02  0.7818608E-02  0.1745195E+00
          4   -1    0    0  501    0  0.00000000000E+00  0.00000000000E+00  0.29669274287E+01  0.32892337052E+01  0.14200000000E+01 0. -1.
         -4   -1    0    0    0  501 -0.00000000000E+00 -0.00000000000E+00 -0.31650805947E+02  0.31682643783E+02  0.14200000000E+01 0.  1.
       1023    2    1    2    0    0  0.00000000000E+00  0.00000000000E+00 -0.28683878518E+02  0.34971877488E+02  0.20006682089E+02 0.  0.
        -13    1    3    3    0    0 -0.46616097678E+01  0.88500044738E+01 -0.14254981260E+02  0.17414615931E+02  0.10570000000E+00 0. -1.
         13    1    3    3    0    0  0.46616097678E+01 -0.88500044738E+01 -0.14428897258E+02  0.17557261557E+02  0.10570000000E+00 0.  1.
<mgrwt>
<rscale>  0 0.20006682E+02</rscale>
<asrwt>0</asrwt>
<pdfrwt beam="1">  1        4 0.48369225E-03 0.20006682E+02</pdfrwt>
<pdfrwt beam="2">  1       -4 0.48965964E-02 0.20006682E+02</pdfrwt>
<totfact> 0.12195110E+06</totfact>
</mgrwt>
</event>
<event>
 5    1  0.4710515E-007  0.2000502E+02  0.7818608E-02  0.1745228E+00
         -4   -1    0    0    0  501 -0.00000000000E+00  0.00000000000E+00  0.22879064664E+01  0.26927524950E+01  0.14200000000E+01 0. -1.
          4   -1    0    0  501    0  0.00000000000E+00 -0.00000000000E+00 -0.39756949938E+02  0.39782300943E+02  0.14200000000E+01 0.  1.
       1023    2    1    2    0    0  0.00000000000E+00  0.00000000000E+00 -0.37469043471E+02  0.42475053438E+02  0.20005023018E+02 0.  0.
        -13    1    3    3    0    0  0.36412469317E+01  0.93154396393E+01 -0.18850214858E+02  0.21339584522E+02  0.10570000000E+00 0.  1.
         13    1    3    3    0    0 -0.36412469317E+01 -0.93154396393E+01 -0.18618828613E+02  0.21135468916E+02  0.10570000000E+00 0. -1.
<mgrwt>
<rscale>  0 0.20005023E+02</rscale>
<asrwt>0</asrwt>
<pdfrwt beam="2">  1        4 0.61495454E-02 0.20005023E+02</pdfrwt>
<pdfrwt beam="1">  1       -4 0.38507772E-03 0.20005023E+02</pdfrwt>
<totfact> 0.11842917E+06</totfact>
</mgrwt>
</event>
<event>
 4    1  0.4710515E-007  0.2003950E+02  0.7818608E-02  0.1744544E+00
         -4   -1    0    0    0  501 -0.00000000000E+00  0.00000000000E+00  0.13504798180E+02  0.13579247913E+02  0.14200000000E+01 0. -1.
          4   -1    0    0  501    0  0.00000000000E+00 -0.00000000000E+00 -0.72702942486E+01  0.74076702451E+01  0.14200000000E+01 0.  1.
        -13    1    1    2    0    0 -0.79345946544E+01 -0.61162420985E+01  0.32579204531E+01  0.10535246931E+02  0.10570000000E+00 0. -1.
         13    1    1    2    0    0  0.79345946544E+01  0.61162420985E+01  0.29765834782E+01  0.10451671227E+02  0.10570000000E+00 0.  1.
<mgrwt>
<rscale>  0 0.20039503E+02</rscale>
<asrwt>0</asrwt>
<pdfrwt beam="2">  1        4 0.11348011E-02 0.20039503E+02</pdfrwt>
<pdfrwt beam="1">  1       -4 0.20939555E-02 0.20039503E+02</pdfrwt>
<totfact> 0.12903456E+06</totfact>
</mgrwt>
</event>
<event>
 4    1  0.4710515E-007  0.2002455E+02  0.7818608E-02  0.1744840E+00
         -4   -1    0    0    0  501 -0.00000000000E+00  0.00000000000E+00  0.40633672566E+02  0.40658476930E+02  0.14200000000E+01 0.  1.
          4   -1    0    0  501    0  0.00000000000E+00 -0.00000000000E+00 -0.22349623877E+01  0.26479155716E+01  0.14200000000E+01 0. -1.
        -13    1    1    2    0    0  0.40779173714E+01 -0.91420066167E+01  0.19566399894E+02  0.21978645827E+02  0.10570000000E+00 0. -1.
         13    1    1    2    0    0 -0.40779173714E+01  0.91420066167E+01  0.18832310284E+02  0.21327746674E+02  0.10570000000E+00 0.  1.
<mgrwt>
<rscale>  0 0.20024552E+02</rscale>
<asrwt>0</asrwt>
<pdfrwt beam="2">  1        4 0.37751407E-03 0.20024552E+02</pdfrwt>
<pdfrwt beam="1">  1       -4 0.62850071E-02 0.20024552E+02</pdfrwt>
<totfact> 0.11782091E+06</totfact>
</mgrwt>
</event>
<event>
 5    1  0.4710515E-007  0.2000284E+02  0.7818608E-02  0.1745272E+00
          4   -1    0    0  501    0  0.00000000000E+00  0.00000000000E+00  0.53388426216E+01  0.55244583932E+01  0.14200000000E+01 0.  1.
         -4   -1    0    0    0  501 -0.00000000000E+00 -0.00000000000E+00 -0.18202092686E+02  0.18257397902E+02  0.14200000000E+01 0. -1.
       1023    2    1    2    0    0  0.00000000000E+00  0.00000000000E+00 -0.12863250064E+02  0.23781856295E+02  0.20002836965E+02 0.  0.
        -13    1    3    3    0    0  0.90129657349E+01  0.43335201948E+01 -0.65091384168E+01  0.11932853977E+02  0.10570000000E+00 0.  1.
         13    1    3    3    0    0 -0.90129657349E+01 -0.43335201948E+01 -0.63541116477E+01  0.11849002318E+02  0.10570000000E+00 0. -1.
<mgrwt>
<rscale>  0 0.20002837E+02</rscale>
<asrwt>0</asrwt>
<pdfrwt beam="1">  1        4 0.83989280E-03 0.20002837E+02</pdfrwt>
<pdfrwt beam="2">  1       -4 0.28188543E-02 0.20002837E+02</pdfrwt>
<totfact> 0.12790387E+06</totfact>
</mgrwt>
</event>
<event>
 5    1  0.4710515E-007  0.2000382E+02  0.7818608E-02  0.1745252E+00
          4   -1    0    0  501    0  0.00000000000E+00  0.00000000000E+00  0.89837940433E+01  0.90953260202E+01  0.14200000000E+01 0.  1.
         -4   -1    0    0    0  501 -0.00000000000E+00 -0.00000000000E+00 -0.10908877384E+02  0.11000909316E+02  0.14200000000E+01 0. -1.
       1023    2    1    2    0    0  0.00000000000E+00  0.00000000000E+00 -0.19250833411E+01  0.20096235337E+02  0.20003817856E+02 0.  0.
        -13    1    3    3    0    0  0.90308485599E+01 -0.42972973338E+01 -0.89884819295E+00  0.10042016264E+02  0.10570000000E+00 0.  1.
         13    1    3    3    0    0 -0.90308485599E+01  0.42972973338E+01 -0.10262351481E+01  0.10054219072E+02  0.10570000000E+00 0. -1.
<mgrwt>
<rscale>  0 0.20003818E+02</rscale>
<asrwt>0</asrwt>
<pdfrwt beam="1">  1        4 0.13977809E-02 0.20003818E+02</pdfrwt>
<pdfrwt beam="2">  1       -4 0.16939476E-02 0.20003818E+02</pdfrwt>
<totfact> 0.13003266E+06</totfact>
</mgrwt>
</event>
<event>
 5    1  0.4710515E-007  0.2000116E+02  0.7818608E-02  0.1745305E+00
         -4   -1    0    0    0  501 -0.00000000000E+00  0.00000000000E+00  0.10707413911E+02  0.10801162561E+02  0.14200000000E+01 0.  1.
          4   -1    0    0  501    0  0.00000000000E+00 -0.00000000000E+00 -0.91509474739E+01  0.92604664931E+01  0.14200000000E+01 0. -1.
       1023    2    1    2    0    0  0.00000000000E+00  0.00000000000E+00  0.15564664376E+01  0.20061629054E+02  0.20001159280E+02 0.  0.
        -13    1    3    3    0    0  0.64432502612E+01  0.76475219436E+01  0.75933914909E+00  0.10029348645E+02  0.10570000000E+00 0.  1.
         13    1    3    3    0    0 -0.64432502612E+01 -0.76475219436E+01  0.79712728846E+00  0.10032280409E+02  0.10570000000E+00 0. -1.
<mgrwt>
<rscale>  0 0.20001159E+02</rscale>
<asrwt>0</asrwt>
<pdfrwt beam="2">  1        4 0.14234741E-02 0.20001159E+02</pdfrwt>
<pdfrwt beam="1">  1       -4 0.16629304E-02 0.20001159E+02</pdfrwt>
<totfact> 0.13008848E+06</totfact>
</mgrwt>
</event>
<event>
 5    1  0.4996803E-007  0.2000228E+02  0.7818608E-02  0.1745283E+00
          4   -1    0    0  501    0  0.00000000000E+00  0.00000000000E+00  0.40977873218E+01  0.43368491943E+01  0.14200000000E+01 0.  1.
         -4   -1    0    0    0  501 -0.00000000000E+00 -0.00000000000E+00 -0.23456012315E+02  0.23498955588E+02  0.14200000000E+01 0. -1.
       1023    2    1    2    0    0  0.00000000000E+00  0.00000000000E+00 -0.19358224994E+02  0.27835804783E+02  0.20002278695E+02 0.  0.
        -13    1    3    3    0    0 -0.95870550893E+01  0.28459884012E+01 -0.96534334499E+01  0.13900044069E+02  0.10570000000E+00 0.  1.
         13    1    3    3    0    0  0.95870550893E+01 -0.28459884012E+01 -0.97047915438E+01  0.13935760713E+02  0.10570000000E+00 0. -1.
<mgrwt>
<rscale>  0 0.20002279E+02</rscale>
<asrwt>0</asrwt>
<pdfrwt beam="1">  1        4 0.65212153E-03 0.20002279E+02</pdfrwt>
<pdfrwt beam="2">  1       -4 0.36303099E-02 0.20002279E+02</pdfrwt>
<totfact> 0.12567447E+06</totfact>
</mgrwt>
</event>
<event>
 5    1  0.4873794E-007  0.2000136E+02  0.7818608E-02  0.1745301E+00
          4   -1    0    0  501    0  0.00000000000E+00  0.00000000000E+00  0.63283317700E+01  0.64856906333E+01  0.14200000000E+01 0. -1.
         -4   -1    0    0    0  501 -0.00000000000E+00 -0.00000000000E+00 -0.15419638409E+02  0.15484884522E+02  0.14200000000E+01 0.  1.
       1023    2    1    2    0    0  0.00000000000E+00  0.00000000000E+00 -0.90913066387E+01  0.21970575155E+02  0.20001357860E+02 0.  0.
        -13    1    3    3    0    0  0.25426321340E+00  0.99967823524E+01 -0.44953231403E+01  0.10964461218E+02  0.10570000000E+00 0.  1.
         13    1    3    3    0    0 -0.25426321340E+00 -0.99967823524E+01 -0.45959834984E+01  0.11006113937E+02  0.10570000000E+00 0. -1.
<mgrwt>
<rscale>  0 0.20001358E+02</rscale>
<asrwt>0</asrwt>
<pdfrwt beam="1">  1        4 0.99071297E-03 0.20001358E+02</pdfrwt>
<pdfrwt beam="2">  1       -4 0.23893755E-02 0.20001358E+02</pdfrwt>
<totfact> 0.12896147E+06</totfact>
</mgrwt>
</event>
<event>
 4    1  0.4710515E-007  0.2001513E+02  0.7818608E-02  0.1745027E+00
          4   -1    0    0  501    0  0.00000000000E+00  0.00000000000E+00  0.18961572202E+02  0.19014668558E+02  0.14200000000E+01 0.  1.
         -4   -1    0    0    0  501 -0.00000000000E+00 -0.00000000000E+00 -0.51246422105E+01  0.53177399134E+01  0.14200000000E+01 0. -1.
        -13    1    1    2    0    0  0.89611599329E+01  0.44519963576E+01  0.67574766302E+01  0.12074656178E+02  0.10570000000E+00 0. -1.
         13    1    1    2    0    0 -0.89611599329E+01 -0.44519963576E+01  0.70794533613E+01  0.12257752294E+02  0.10570000000E+00 0.  1.
<mgrwt>
<rscale>  0 0.20015131E+02</rscale>
<asrwt>0</asrwt>
<pdfrwt beam="1">  1        4 0.29361029E-02 0.20015131E+02</pdfrwt>
<pdfrwt beam="2">  1       -4 0.80734451E-03 0.20015131E+02</pdfrwt>
<totfact> 0.12743383E+06</totfact>
</mgrwt>
</event>
<event>
 5    1  0.5109273E-007  0.2000274E+02  0.7818608E-02  0.1745274E+00
         -4   -1    0    0    0  501 -0.00000000000E+00  0.00000000000E+00  0.26601797166E+01  0.30154528888E+01  0.14200000000E+01 0.  1.
          4   -1    0    0  501    0  0.00000000000E+00 -0.00000000000E+00 -0.34877407498E+02  0.34906302493E+02  0.14200000000E+01 0. -1.
       1023    2    1    2    0    0  0.00000000000E+00  0.00000000000E+00 -0.32217227781E+02  0.37921755382E+02  0.20002743946E+02 0.  0.
        -13    1    3    3    0    0 -0.10000090886E+02 -0.49931782749E-01 -0.16315927072E+02  0.19137004980E+02  0.10570000000E+00 0.  1.
         13    1    3    3    0    0  0.10000090886E+02  0.49931782749E-01 -0.15901300709E+02  0.18784750402E+02  0.10570000000E+00 0. -1.
<mgrwt>
<rscale>  0 0.20002744E+02</rscale>
<asrwt>0</asrwt>
<pdfrwt beam="2">  1        4 0.53953061E-02 0.20002744E+02</pdfrwt>
<pdfrwt beam="1">  1       -4 0.43880984E-03 0.20002744E+02</pdfrwt>
<totfact> 0.12057110E+06</totfact>
</mgrwt>
</event>
<event>
 5    1  0.4710515E-007  0.2000479E+02  0.7818608E-02  0.1745233E+00
         -4   -1    0    0    0  501 -0.00000000000E+00  0.00000000000E+00  0.29677396598E+01  0.32899663659E+01  0.14200000000E+01 0.  1.
          4   -1    0    0  501    0  0.00000000000E+00 -0.00000000000E+00 -0.31636946996E+02  0.31668798765E+02  0.14200000000E+01 0. -1.
       1023    2    1    2    0    0  0.00000000000E+00  0.00000000000E+00 -0.28669207336E+02  0.34958765131E+02  0.20004794680E+02 0.  0.
        -13    1    3    3    0    0  0.29260548879E+01  0.95642406451E+01 -0.14305167739E+02  0.17455242561E+02  0.10570000000E+00 0.  1.
         13    1    3    3    0    0 -0.29260548879E+01 -0.95642406451E+01 -0.14364039597E+02  0.17503522570E+02  0.10570000000E+00 0. -1.
<mgrwt>
<rscale>  0 0.20004795E+02</rscale>
<asrwt>0</asrwt>
<pdfrwt beam="2">  1        4 0.48944592E-02 0.20004795E+02</pdfrwt>
<pdfrwt beam="1">  1       -4 0.48381216E-03 0.20004795E+02</pdfrwt>
<totfact> 0.12198090E+06</totfact>
</mgrwt>
</event>
<event>
 5    1  0.4710515E-007  0.2000705E+02  0.7818608E-02  0.1745188E+00
         -4   -1    0    0    0  501 -0.00000000000E+00  0.00000000000E+00  0.57720113283E+02  0.57737577689E+02  0.14200000000E+01 0. -1.
          4   -1    0    0  501    0  0.00000000000E+00 -0.00000000000E+00 -0.14221763443E+01  0.20097227555E+01  0.14200000000E+01 0.  1.
       1023    2    1    2    0    0  0.00000000000E+00  0.00000000000E+00  0.56297936939E+02  0.59747300445E+02  0.20007053928E+02 0.  0.
        -13    1    3    3    0    0  0.98970597705E+01 -0.14414192869E+01  0.27632607931E+02  0.29387100490E+02  0.10570000000E+00 0. -1.
         13    1    3    3    0    0 -0.98970597705E+01  0.14414192869E+01  0.28665329008E+02  0.30360199955E+02  0.10570000000E+00 0.  1.
<mgrwt>
<rscale>  0 0.20007054E+02</rscale>
<asrwt>0</asrwt>
<pdfrwt beam="2">  1        4 0.26533571E-03 0.20007054E+02</pdfrwt>
<pdfrwt beam="1">  1       -4 0.89265547E-02 0.20007054E+02</pdfrwt>
<totfact> 0.11120675E+06</totfact>
</mgrwt>
</event>
<event>
 4    1  0.4710515E-007  0.2004487E+02  0.7818608E-02  0.1744437E+00
         -4   -1    0    0    0  501 -0.00000000000E+00  0.00000000000E+00  0.19701588961E+01  0.24285646123E+01  0.14200000000E+01 0.  1.
          4   -1    0    0  501    0  0.00000000000E+00 -0.00000000000E+00 -0.45201274643E+02  0.45223573823E+02  0.14200000000E+01 0. -1.
        -13    1    1    2    0    0 -0.26830061461E+01 -0.96365791859E+01 -0.20158075534E+02  0.22503807725E+02  0.10570000000E+00 0. -1.
         13    1    1    2    0    0  0.26830061461E+01  0.96365791859E+01 -0.23073040212E+02  0.25148330710E+02  0.10570000000E+00 0.  1.
<mgrwt>
<rscale>  0 0.20044873E+02</rscale>
<asrwt>0</asrwt>
<pdfrwt beam="2">  1        4 0.69910188E-02 0.20044873E+02</pdfrwt>
<pdfrwt beam="1">  1       -4 0.34007870E-03 0.20044873E+02</pdfrwt>
<totfact> 0.11567633E+06</totfact>
</mgrwt>
</event>
<event>
 5    1  0.4710515E-007  0.2000953E+02  0.7818608E-02  0.1745139E+00
          4   -1    0    0  501    0  0.00000000000E+00  0.00000000000E+00  0.79844784374E+01  0.81097654663E+01  0.14200000000E+01 0. -1.
         -4   -1    0    0    0  501 -0.00000000000E+00 -0.00000000000E+00 -0.12272102719E+02  0.12353983372E+02  0.14200000000E+01 0.  1.
       1023    2    1    2    0    0  0.00000000000E+00  0.00000000000E+00 -0.42876242816E+01  0.20463748838E+02  0.20009530092E+02 0.  0.
        -13    1    3    3    0    0  0.74184410558E+01  0.67101833306E+01 -0.19843131734E+01  0.10198455731E+02  0.10570000000E+00 0. -1.
         13    1    3    3    0    0 -0.74184410558E+01 -0.67101833306E+01 -0.23033111082E+01  0.10265293107E+02  0.10570000000E+00 0.  1.
<mgrwt>
<rscale>  0 0.20009530E+02</rscale>
<asrwt>0</asrwt>
<pdfrwt beam="1">  1        4 0.12443173E-02 0.20009530E+02</pdfrwt>
<pdfrwt beam="2">  1       -4 0.19039518E-02 0.20009530E+02</pdfrwt>
<totfact> 0.12973847E+06</totfact>
</mgrwt>
</event>
<event>
 4    1  0.4710515E-007  0.2004969E+02  0.7818608E-02  0.1744342E+00
          4   -1    0    0  501    0  0.00000000000E+00  0.00000000000E+00  0.96664781621E+00  0.17177916057E+01  0.14200000000E+01 0.  1.
         -4   -1    0    0    0  501 -0.00000000000E+00 -0.00000000000E+00 -0.74114275111E+02  0.74127877180E+02  0.14200000000E+01 0. -1.
        -13    1    1    2    0    0  0.17168489163E+01  0.98758352969E+01 -0.36265139224E+02  0.37625140378E+02  0.10570000000E+00 0.  1.
         13    1    1    2    0    0 -0.17168489163E+01 -0.98758352969E+01 -0.36882488070E+02  0.38220528407E+02  0.10570000000E+00 0. -1.
<mgrwt>
<rscale>  0 0.20049691E+02</rscale>
<asrwt>0</asrwt>
<pdfrwt beam="1">  1        4 0.20754171E-03 0.20049691E+02</pdfrwt>
<pdfrwt beam="2">  1       -4 0.11461020E-01 0.20049691E+02</pdfrwt>
<totfact> 0.10496750E+06</totfact>
</mgrwt>
</event>
<event>
 5    1  0.4710515E-007  0.2000843E+02  0.7818608E-02  0.1745160E+00
         -4   -1    0    0    0  501 -0.00000000000E+00  0.00000000000E+00  0.91609414327E+02  0.91620419085E+02  0.14200000000E+01 0.  1.
          4   -1    0    0  501    0  0.00000000000E+00 -0.00000000000E+00 -0.61526341414E+00  0.15475622988E+01  0.14200000000E+01 0. -1.
       1023    2    1    2    0    0  0.00000000000E+00  0.00000000000E+00  0.90994150913E+02  0.93167981384E+02  0.20008429594E+02 0.  0.
        -13    1    3    3    0    0 -0.11660377078E+01  0.99320420545E+01  0.44282487007E+02  0.45397741478E+02  0.10570000000E+00 0. -1.
         13    1    3    3    0    0  0.11660377078E+01 -0.99320420545E+01  0.46711663907E+02  0.47770239906E+02  0.10570000000E+00 0.  1.
<mgrwt>
<rscale>  0 0.20008430E+02</rscale>
<asrwt>0</asrwt>
<pdfrwt beam="2">  1        4 0.16721771E-03 0.20008430E+02</pdfrwt>
<pdfrwt beam="1">  1       -4 0.14166319E-01 0.20008430E+02</pdfrwt>
<totfact> 0.99918457E+05</totfact>
</mgrwt>
</event>
<event>
 4    1  0.4710515E-007  0.2002286E+02  0.7818608E-02  0.1744874E+00
          4   -1    0    0  501    0  0.00000000000E+00  0.00000000000E+00  0.14601007175E+02  0.14669894701E+02  0.14200000000E+01 0.  1.
         -4   -1    0    0    0  501 -0.00000000000E+00 -0.00000000000E+00 -0.67049312154E+01  0.68536488533E+01  0.14200000000E+01 0. -1.
        -13    1    1    2    0    0 -0.99562244788E+01 -0.10441145214E+01  0.39144831525E+01  0.10749461933E+02  0.10570000000E+00 0.  1.
         13    1    1    2    0    0  0.99562244788E+01  0.10441145214E+01  0.39815928074E+01  0.10774081621E+02  0.10570000000E+00 0. -1.
<mgrwt>
<rscale>  0 0.20022860E+02</rscale>
<asrwt>0</asrwt>
<pdfrwt beam="1">  1        4 0.22630476E-02 0.20022860E+02</pdfrwt>
<pdfrwt beam="2">  1       -4 0.10482667E-02 0.20022860E+02</pdfrwt>
<totfact> 0.12893903E+06</totfact>
</mgrwt>
</event>
<event>
 5    1  0.4710515E-007  0.2000661E+02  0.7818608E-02  0.1745197E+00
         -4   -1    0    0    0  501 -0.00000000000E+00  0.00000000000E+00  0.21733860873E+01  0.25961523616E+01  0.14200000000E+01 0. -1.
          4   -1    0    0  501    0  0.00000000000E+00 -0.00000000000E+00 -0.41524507326E+02  0.41548779870E+02  0.14200000000E+01 0.  1.
       1023    2    1    2    0    0  0.00000000000E+00  0.00000000000E+00 -0.39351121239E+02  0.44144932231E+02  0.20006606383E+02 0.  0.
        -13    1    3    3    0    0  0.59057332142E+01  0.80716966117E+01 -0.19327159469E+02  0.21761898737E+02  0.10570000000E+00 0.  1.
         13    1    3    3    0    0 -0.59057332142E+01 -0.80716966117E+01 -0.20023961769E+02  0.22383033494E+02  0.10570000000E+00 0. -1.
<mgrwt>
<rscale>  0 0.20006606E+02</rscale>
<asrwt>0</asrwt>
<pdfrwt beam="2">  1        4 0.64227728E-02 0.20006606E+02</pdfrwt>
<pdfrwt beam="1">  1       -4 0.36875472E-03 0.20006606E+02</pdfrwt>
<totfact> 0.11765928E+06</totfact>
</mgrwt>
</event>
<event>
 5    1  0.4710515E-007  0.2001192E+02  0.7818608E-02  0.1745091E+00
         -4   -1    0    0    0  501 -0.00000000000E+00  0.00000000000E+00  0.69377848086E+02  0.69392378580E+02  0.14200000000E+01 0. -1.
          4   -1    0    0  501    0  0.00000000000E+00 -0.00000000000E+00 -0.10754650161E+01  0.17812986838E+01  0.14200000000E+01 0.  1.
       1023    2    1    2    0    0  0.00000000000E+00  0.00000000000E+00  0.68302383070E+02  0.71173677264E+02  0.20011916507E+02 0.  0.
        -13    1    3    3    0    0 -0.99748436522E+00  0.99546309706E+01  0.34633302988E+02  0.36049500706E+02  0.10570000000E+00 0.  1.
         13    1    3    3    0    0  0.99748436522E+00 -0.99546309706E+01  0.33669080082E+02  0.35124176558E+02  0.10570000000E+00 0. -1.
<mgrwt>
<rscale>  0 0.20011917E+02</rscale>
<asrwt>0</asrwt>
<pdfrwt beam="2">  1        4 0.22086884E-03 0.20011917E+02</pdfrwt>
<pdfrwt beam="1">  1       -4 0.10728925E-01 0.20011917E+02</pdfrwt>
<totfact> 0.10696769E+06</totfact>
</mgrwt>
</event>
<event>
 5    1  0.4746822E-007  0.2000230E+02  0.7818608E-02  0.1745282E+00
          4   -1    0    0  501    0  0.00000000000E+00  0.00000000000E+00  0.21581251308E+02  0.21627917329E+02  0.14200000000E+01 0.  1.
         -4   -1    0    0    0  501 -0.00000000000E+00 -0.00000000000E+00 -0.44729315785E+01  0.46929220009E+01  0.14200000000E+01 0. -1.
       1023    2    1    2    0    0  0.00000000000E+00  0.00000000000E+00  0.17108319729E+02  0.26320839330E+02  0.20002299345E+02 0.  0.
        -13    1    3    3    0    0 -0.23164982473E+01  0.97283166120E+01  0.86518735062E+01  0.13223932694E+02  0.10570000000E+00 0.  1.
         13    1    3    3    0    0  0.23164982473E+01 -0.97283166120E+01  0.84564462229E+01  0.13096906636E+02  0.10570000000E+00 0. -1.
<mgrwt>
<rscale>  0 0.20002299E+02</rscale>
<asrwt>0</asrwt>
<pdfrwt beam="1">  1        4 0.33407045E-02 0.20002299E+02</pdfrwt>
<pdfrwt beam="2">  1       -4 0.70865536E-03 0.20002299E+02</pdfrwt>
<totfact> 0.12649586E+06</totfact>
</mgrwt>
</event>
<event>
 5    1  0.5099880E-007  0.2000192E+02  0.7818608E-02  0.1745290E+00
          4   -1    0    0  501    0  0.00000000000E+00  0.00000000000E+00  0.16976768339E+02  0.17036051867E+02  0.14200000000E+01 0.  1.
         -4   -1    0    0    0  501 -0.00000000000E+00 -0.00000000000E+00 -0.57352448608E+01  0.59084205685E+01  0.14200000000E+01 0. -1.
       1023    2    1    2    0    0  0.00000000000E+00  0.00000000000E+00  0.11241523478E+02  0.22944472436E+02  0.20001924039E+02 0.  0.
        -13    1    3    3    0    0  0.24506007834E+01  0.96954916048E+01  0.56113606203E+01  0.11467630189E+02  0.10570000000E+00 0. -1.
         13    1    3    3    0    0 -0.24506007834E+01 -0.96954916048E+01  0.56301628577E+01  0.11476842247E+02  0.10570000000E+00 0.  1.
<mgrwt>
<rscale>  0 0.20001924E+02</rscale>
<asrwt>0</asrwt>
<pdfrwt beam="1">  1        4 0.26296920E-02 0.20001924E+02</pdfrwt>
<pdfrwt beam="2">  1       -4 0.90022684E-03 0.20001924E+02</pdfrwt>
<totfact> 0.12839238E+06</totfact>
</mgrwt>
</event>
<event>
 4    1  0.4710515E-007  0.2037836E+02  0.7818608E-02  0.1737907E+00
         -4   -1    0    0    0  501 -0.00000000000E+00  0.00000000000E+00  0.28930568091E+02  0.28965396080E+02  0.14200000000E+01 0.  1.
          4   -1    0    0  501    0  0.00000000000E+00 -0.00000000000E+00 -0.34095600030E+01  0.36934400515E+01  0.14200000000E+01 0. -1.
        -13    1    1    2    0    0  0.96079036499E+01 -0.33712540832E+01  0.13340759345E+02  0.16782854317E+02  0.10570000000E+00 0.  1.
         13    1    1    2    0    0 -0.96079036499E+01  0.33712540832E+01  0.12180248743E+02  0.15875981814E+02  0.10570000000E+00 0. -1.
<mgrwt>
<rscale>  0 0.20378364E+02</rscale>
<asrwt>0</asrwt>
<pdfrwt beam="2">  1        4 0.54906367E-03 0.20378364E+02</pdfrwt>
<pdfrwt beam="1">  1       -4 0.44753728E-02 0.20378364E+02</pdfrwt>
<totfact> 0.11857134E+06</totfact>
</mgrwt>
</event>
<event>
 5    1  0.4710515E-007  0.2000157E+02  0.7818608E-02  0.1745297E+00
          4   -1    0    0  501    0  0.00000000000E+00  0.00000000000E+00  0.10297001460E+01  0.17540474311E+01  0.14200000000E+01 0.  1.
         -4   -1    0    0    0  501 -0.00000000000E+00 -0.00000000000E+00 -0.71123587743E+02  0.71137761656E+02  0.14200000000E+01 0. -1.
       1023    2    1    2    0    0  0.00000000000E+00  0.00000000000E+00 -0.70093887597E+02  0.72891809087E+02  0.20001568777E+02 0.  0.
        -13    1    3    3    0    0 -0.10606257959E+01 -0.99438167563E+01 -0.35082861331E+02  0.36480443397E+02  0.10570000000E+00 0.  1.
         13    1    3    3    0    0  0.10606257959E+01  0.99438167563E+01 -0.35011026266E+02  0.36411365691E+02  0.10570000000E+00 0. -1.
<mgrwt>
<rscale>  0 0.20001569E+02</rscale>
<asrwt>0</asrwt>
<pdfrwt beam="1">  1        4 0.21522479E-03 0.20001569E+02</pdfrwt>
<pdfrwt beam="2">  1       -4 0.10998897E-01 0.20001569E+02</pdfrwt>
<totfact> 0.10648204E+06</totfact>
</mgrwt>
</event>
<event>
 5    1  0.4710515E-007  0.2000424E+02  0.7818608E-02  0.1745244E+00
          4   -1    0    0  501    0  0.00000000000E+00  0.00000000000E+00  0.10400277625E+03  0.10401246977E+03  0.14200000000E+01 0.  1.
         -4   -1    0    0    0  501 -0.00000000000E+00 -0.00000000000E+00 -0.42272858476E+00  0.14815868035E+01  0.14200000000E+01 0. -1.
       1023    2    1    2    0    0  0.00000000000E+00  0.00000000000E+00  0.10358004767E+03  0.10549405658E+03  0.20004242002E+02 0.  0.
        -13    1    3    3    0    0 -0.21798739013E+01 -0.97607266400E+01  0.51329761586E+02  0.52295116710E+02  0.10570000000E+00 0.  1.
         13    1    3    3    0    0  0.21798739013E+01  0.97607266400E+01  0.52250286084E+02  0.53198939868E+02  0.10570000000E+00 0. -1.
<mgrwt>
<rscale>  0 0.20004242E+02</rscale>
<asrwt>0</asrwt>
<pdfrwt beam="1">  1        4 0.16082617E-01 0.20004242E+02</pdfrwt>
<pdfrwt beam="2">  1       -4 0.14723151E-03 0.20004242E+02</pdfrwt>
<totfact> 0.96434509E+05</totfact>
</mgrwt>
</event>
<event>
 5    1  0.4710515E-007  0.2000340E+02  0.7818608E-02  0.1745260E+00
          4   -1    0    0  501    0  0.00000000000E+00  0.00000000000E+00  0.21528075840E+02  0.21574856879E+02  0.14200000000E+01 0.  1.
         -4   -1    0    0    0  501 -0.00000000000E+00 -0.00000000000E+00 -0.44850213639E+01  0.47044464749E+01  0.14200000000E+01 0. -1.
       1023    2    1    2    0    0  0.00000000000E+00  0.00000000000E+00  0.17043054476E+02  0.26279303354E+02  0.20003401684E+02 0.  0.
        -13    1    3    3    0    0  0.53496600836E+01  0.84492118171E+01  0.83616826114E+01  0.13035986803E+02  0.10570000000E+00 0. -1.
         13    1    3    3    0    0 -0.53496600836E+01 -0.84492118171E+01  0.86813718645E+01  0.13243316551E+02  0.10570000000E+00 0.  1.
<mgrwt>
<rscale>  0 0.20003402E+02</rscale>
<asrwt>0</asrwt>
<pdfrwt beam="1">  1        4 0.33324891E-02 0.20003402E+02</pdfrwt>
<pdfrwt beam="2">  1       -4 0.71048068E-03 0.20003402E+02</pdfrwt>
<totfact> 0.12650443E+06</totfact>
</mgrwt>
</event>
<event>
 5    1  0.4710515E-007  0.2000145E+02  0.7818608E-02  0.1745299E+00
         -4   -1    0    0    0  501 -0.00000000000E+00  0.00000000000E+00  0.44277596034E+00  0.14874308559E+01  0.14200000000E+01 0. -1.
          4   -1    0    0  501    0  0.00000000000E+00 -0.00000000000E+00 -0.10257865230E+03  0.10258848038E+03  0.14200000000E+01 0.  1.
       1023    2    1    2    0    0  0.00000000000E+00  0.00000000000E+00 -0.10213587634E+03  0.10407591124E+03  0.20001451570E+02 0.  0.
        -13    1    3    3    0    0  0.99110393905E+01  0.13315394458E+01 -0.51278958618E+02  0.52245042526E+02  0.10570000000E+00 0. -1.
         13    1    3    3    0    0 -0.99110393905E+01 -0.13315394458E+01 -0.50856917718E+02  0.51830868711E+02  0.10570000000E+00 0.  1.
<mgrwt>
<rscale>  0 0.20001452E+02</rscale>
<asrwt>0</asrwt>
<pdfrwt beam="2">  1        4 0.15862437E-01 0.20001452E+02</pdfrwt>
<pdfrwt beam="1">  1       -4 0.14923354E-03 0.20001452E+02</pdfrwt>
<totfact> 0.96853060E+05</totfact>
</mgrwt>
</event>
<event>
 5    1  0.4710515E-007  0.2000197E+02  0.7818608E-02  0.1745289E+00
          4   -1    0    0  501    0  0.00000000000E+00  0.00000000000E+00  0.47337661383E+02  0.47358954647E+02  0.14200000000E+01 0. -1.
         -4   -1    0    0    0  501 -0.00000000000E+00 -0.00000000000E+00 -0.18500049977E+01  0.23321488999E+01  0.14200000000E+01 0.  1.
       1023    2    1    2    0    0  0.00000000000E+00  0.00000000000E+00  0.45487656386E+02  0.49691103547E+02  0.20001972109E+02 0.  0.
        -13    1    3    3    0    0 -0.60528954361E+00 -0.99817185339E+01  0.22529122137E+02  0.24649008035E+02  0.10570000000E+00 0. -1.
         13    1    3    3    0    0  0.60528954361E+00  0.99817185339E+01  0.22958534248E+02  0.25042095512E+02  0.10570000000E+00 0.  1.
<mgrwt>
<rscale>  0 0.20001972E+02</rscale>
<asrwt>0</asrwt>
<pdfrwt beam="1">  1        4 0.73214425E-02 0.20001972E+02</pdfrwt>
<pdfrwt beam="2">  1       -4 0.32334212E-03 0.20001972E+02</pdfrwt>
<totfact> 0.11530933E+06</totfact>
</mgrwt>
</event>
<event>
 5    1  0.4881468E-007  0.2000141E+02  0.7818608E-02  0.1745300E+00
          4   -1    0    0  501    0  0.00000000000E+00  0.00000000000E+00  0.38228969277E+02  0.38255332857E+02  0.14200000000E+01 0. -1.
         -4   -1    0    0    0  501 -0.00000000000E+00 -0.00000000000E+00 -0.23941329422E+01  0.27835719040E+01  0.14200000000E+01 0.  1.
       1023    2    1    2    0    0  0.00000000000E+00  0.00000000000E+00  0.35834836335E+02  0.41038904761E+02  0.20001405171E+02 0.  0.
        -13    1    3    3    0    0  0.97952805369E+01 -0.20136231137E+01  0.17970957018E+02  0.20566202067E+02  0.10570000000E+00 0.  1.
         13    1    3    3    0    0 -0.97952805369E+01  0.20136231137E+01  0.17863879317E+02  0.20472702694E+02  0.10570000000E+00 0. -1.
<mgrwt>
<rscale>  0 0.20001405E+02</rscale>
<asrwt>0</asrwt>
<pdfrwt beam="1">  1        4 0.59133639E-02 0.20001405E+02</pdfrwt>
<pdfrwt beam="2">  1       -4 0.40031301E-03 0.20001405E+02</pdfrwt>
<totfact> 0.11912834E+06</totfact>
</mgrwt>
</event>
<event>
 5    1  0.4710515E-007  0.2000762E+02  0.7818608E-02  0.1745177E+00
          4   -1    0    0  501    0  0.00000000000E+00  0.00000000000E+00  0.25905698113E+02  0.25944587002E+02  0.14200000000E+01 0.  1.
         -4   -1    0    0    0  501 -0.00000000000E+00 -0.00000000000E+00 -0.36892904252E+01  0.39531334207E+01  0.14200000000E+01 0. -1.
       1023    2    1    2    0    0  0.00000000000E+00  0.00000000000E+00  0.22216407688E+02  0.29897720423E+02  0.20007621447E+02 0.  0.
        -13    1    3    3    0    0 -0.10302435770E+01  0.99481931720E+01  0.10820349901E+02  0.14734961612E+02  0.10570000000E+00 0. -1.
         13    1    3    3    0    0  0.10302435770E+01 -0.99481931720E+01  0.11396057787E+02  0.15162758812E+02  0.10570000000E+00 0.  1.
<mgrwt>
<rscale>  0 0.20007621E+02</rscale>
<asrwt>0</asrwt>
<pdfrwt beam="1">  1        4 0.40087790E-02 0.20007621E+02</pdfrwt>
<pdfrwt beam="2">  1       -4 0.59087023E-03 0.20007621E+02</pdfrwt>
<totfact> 0.12451442E+06</totfact>
</mgrwt>
</event>
<event>
 5    1  0.4710515E-007  0.2000845E+02  0.7818608E-02  0.1745160E+00
          4   -1    0    0  501    0  0.00000000000E+00  0.00000000000E+00  0.19430385043E+02  0.19482203749E+02  0.14200000000E+01 0.  1.
         -4   -1    0    0    0  501 -0.00000000000E+00 -0.00000000000E+00 -0.49931219326E+01  0.51911141996E+01  0.14200000000E+01 0. -1.
       1023    2    1    2    0    0  0.00000000000E+00  0.00000000000E+00  0.14437263110E+02  0.24673317949E+02  0.20008449527E+02 0.  0.
        -13    1    3    3    0    0  0.92548088835E+01 -0.37924788328E+01  0.74620253185E+01  0.12479077591E+02  0.10570000000E+00 0.  1.
         13    1    3    3    0    0 -0.92548088835E+01  0.37924788328E+01  0.69752377920E+01  0.12194240358E+02  0.10570000000E+00 0. -1.
<mgrwt>
<rscale>  0 0.20008450E+02</rscale>
<asrwt>0</asrwt>
<pdfrwt beam="1">  1        4 0.30085062E-02 0.20008450E+02</pdfrwt>
<pdfrwt beam="2">  1       -4 0.78738883E-03 0.20008450E+02</pdfrwt>
<totfact> 0.12732912E+06</totfact>
</mgrwt>
</event>
<event>
 4    1  0.4710515E-007  0.2001249E+02  0.7818608E-02  0.1745080E+00
          4   -1    0    0  501    0  0.00000000000E+00  0.00000000000E+00  0.91851992449E+01  0.92943146691E+01  0.14200000000E+01 0.  1.
         -4   -1    0    0    0  501 -0.00000000000E+00 -0.00000000000E+00 -0.10679925576E+02  0.10773913417E+02  0.14200000000E+01 0. -1.
        -13    1    1    2    0    0 -0.97387100636E+01  0.22879559746E+01 -0.93895604659E+00  0.10048384308E+02  0.10570000000E+00 0.  1.
         13    1    1    2    0    0  0.97387100636E+01 -0.22879559746E+01 -0.55577028461E+00  0.10019843778E+02  0.10570000000E+00 0. -1.
<mgrwt>
<rscale>  0 0.20012485E+02</rscale>
<asrwt>0</asrwt>
<pdfrwt beam="1">  1        4 0.14287309E-02 0.20012485E+02</pdfrwt>
<pdfrwt beam="2">  1       -4 0.16586888E-02 0.20012485E+02</pdfrwt>
<totfact> 0.12993426E+06</totfact>
</mgrwt>
</event>
<event>
 5    1  0.4710515E-007  0.2000367E+02  0.7818608E-02  0.1745255E+00
         -4   -1    0    0    0  501 -0.00000000000E+00  0.00000000000E+00  0.42103706333E+02  0.42127645163E+02  0.14200000000E+01 0. -1.
          4   -1    0    0  501    0  0.00000000000E+00 -0.00000000000E+00 -0.21368905687E+01  0.25656775524E+01  0.14200000000E+01 0.  1.
       1023    2    1    2    0    0  0.00000000000E+00  0.00000000000E+00  0.39966815764E+02  0.44693322715E+02  0.20003667989E+02 0.  0.
        -13    1    3    3    0    0 -0.13578686129E+00 -0.99999709462E+01  0.19787942218E+02  0.22171867010E+02  0.10570000000E+00 0.  1.
         13    1    3    3    0    0  0.13578686129E+00  0.99999709462E+01  0.20178873546E+02  0.22521455705E+02  0.10570000000E+00 0. -1.
<mgrwt>
<rscale>  0 0.20003668E+02</rscale>
<asrwt>0</asrwt>
<pdfrwt beam="2">  1        4 0.36357745E-03 0.20003668E+02</pdfrwt>
<pdfrwt beam="1">  1       -4 0.65123184E-02 0.20003668E+02</pdfrwt>
<totfact> 0.11745036E+06</totfact>
</mgrwt>
</event>
<event>
 5    1  0.4710515E-007  0.2000127E+02  0.7818608E-02  0.1745303E+00
         -4   -1    0    0    0  501 -0.00000000000E+00  0.00000000000E+00  0.36068845822E+00  0.14650925445E+01  0.14200000000E+01 0. -1.
          4   -1    0    0  501    0  0.00000000000E+00 -0.00000000000E+00 -0.10844426372E+03  0.10845356026E+03  0.14200000000E+01 0.  1.
       1023    2    1    2    0    0  0.00000000000E+00  0.00000000000E+00 -0.10808357526E+03  0.10991865281E+03  0.20001274802E+02 0.  0.
        -13    1    3    3    0    0  0.75414924241E+00 -0.99715945595E+01 -0.54106063002E+02  0.55022528706E+02  0.10570000000E+00 0.  1.
         13    1    3    3    0    0 -0.75414924241E+00  0.99715945595E+01 -0.53977512257E+02  0.54896124099E+02  0.10570000000E+00 0. -1.
<mgrwt>
<rscale>  0 0.20001275E+02</rscale>
<asrwt>0</asrwt>
<pdfrwt beam="2">  1        4 0.16769392E-01 0.20001275E+02</pdfrwt>
<pdfrwt beam="1">  1       -4 0.14115990E-03 0.20001275E+02</pdfrwt>
<totfact> 0.95262682E+05</totfact>
</mgrwt>
</event>
<event>
 5    1  0.4710515E-007  0.2000122E+02  0.7818608E-02  0.1745304E+00
         -4   -1    0    0    0  501 -0.00000000000E+00  0.00000000000E+00  0.45916878436E+01  0.48062456506E+01  0.14200000000E+01 0. -1.
          4   -1    0    0  501    0  0.00000000000E+00 -0.00000000000E+00 -0.21044830252E+02  0.21092683100E+02  0.14200000000E+01 0.  1.
       1023    2    1    2    0    0  0.00000000000E+00  0.00000000000E+00 -0.16453142409E+02  0.25898928750E+02  0.20001215345E+02 0.  0.
        -13    1    3    3    0    0  0.37620764381E+01  0.92653551570E+01 -0.81865344221E+01  0.12924029698E+02  0.10570000000E+00 0.  1.
         13    1    3    3    0    0 -0.37620764381E+01 -0.92653551570E+01 -0.82666079864E+01  0.12974899052E+02  0.10570000000E+00 0. -1.
<mgrwt>
<rscale>  0 0.20001215E+02</rscale>
<asrwt>0</asrwt>
<pdfrwt beam="2">  1        4 0.32578516E-02 0.20001215E+02</pdfrwt>
<pdfrwt beam="1">  1       -4 0.72659896E-03 0.20001215E+02</pdfrwt>
<totfact> 0.12674168E+06</totfact>
</mgrwt>
</event>
<event>
 5    1  0.4710515E-007  0.2000660E+02  0.7818608E-02  0.1745197E+00
          4   -1    0    0  501    0  0.00000000000E+00  0.00000000000E+00  0.89696114122E+01  0.90813175743E+01  0.14200000000E+01 0.  1.
         -4   -1    0    0    0  501 -0.00000000000E+00 -0.00000000000E+00 -0.10929154104E+02  0.11021016715E+02  0.14200000000E+01 0. -1.
       1023    2    1    2    0    0  0.00000000000E+00  0.00000000000E+00 -0.19595426923E+01  0.20102334290E+02  0.20006599819E+02 0.  0.
        -13    1    3    3    0    0  0.53271511087E+01 -0.84642098854E+01 -0.11635362847E+01  0.10069080251E+02  0.10570000000E+00 0.  1.
         13    1    3    3    0    0 -0.53271511087E+01  0.84642098854E+01 -0.79600640756E+00  0.10033254039E+02  0.10570000000E+00 0. -1.
<mgrwt>
<rscale>  0 0.20006600E+02</rscale>
<asrwt>0</asrwt>
<pdfrwt beam="1">  1        4 0.13955994E-02 0.20006600E+02</pdfrwt>
<pdfrwt beam="2">  1       -4 0.16970675E-02 0.20006600E+02</pdfrwt>
<totfact> 0.12999213E+06</totfact>
</mgrwt>
</event>
<event>
 5    1  0.4710515E-007  0.2000176E+02  0.7818608E-02  0.1745293E+00
          4   -1    0    0  501    0  0.00000000000E+00  0.00000000000E+00  0.10594797852E+01  0.17716933750E+01  0.14200000000E+01 0. -1.
         -4   -1    0    0    0  501 -0.00000000000E+00 -0.00000000000E+00 -0.69933288096E+02  0.69947703207E+02  0.14200000000E+01 0.  1.
       1023    2    1    2    0    0  0.00000000000E+00  0.00000000000E+00 -0.68873808311E+02  0.71719396582E+02  0.20001759294E+02 0.  0.
        -13    1    3    3    0    0 -0.85127299589E+01  0.52477475298E+01 -0.34323758187E+02  0.35751041580E+02  0.10570000000E+00 0. -1.
         13    1    3    3    0    0  0.85127299589E+01 -0.52477475298E+01 -0.34550050124E+02  0.35968355002E+02  0.10570000000E+00 0.  1.
<mgrwt>
<rscale>  0 0.20001759E+02</rscale>
<asrwt>0</asrwt>
<pdfrwt beam="1">  1        4 0.21889146E-03 0.20001759E+02</pdfrwt>
<pdfrwt beam="2">  1       -4 0.10814859E-01 0.20001759E+02</pdfrwt>
<totfact> 0.10688631E+06</totfact>
</mgrwt>
</event>
<event>
 4    1  0.4710515E-007  0.2002826E+02  0.7818608E-02  0.1744767E+00
         -4   -1    0    0    0  501 -0.00000000000E+00  0.00000000000E+00  0.31523097335E+01  0.34573771354E+01  0.14200000000E+01 0. -1.
          4   -1    0    0  501    0  0.00000000000E+00 -0.00000000000E+00 -0.30021581423E+02  0.30055145169E+02  0.14200000000E+01 0.  1.
        -13    1    1    2    0    0  0.94802598048E+01 -0.32209264813E+01 -0.13186554501E+02  0.16557357442E+02  0.10570000000E+00 0. -1.
         13    1    1    2    0    0 -0.94802598048E+01  0.32209264813E+01 -0.13682717188E+02  0.16955164862E+02  0.10570000000E+00 0.  1.
<mgrwt>
<rscale>  0 0.20028265E+02</rscale>
<asrwt>0</asrwt>
<pdfrwt beam="2">  1        4 0.46447532E-02 0.20028265E+02</pdfrwt>
<pdfrwt beam="1">  1       -4 0.51101930E-03 0.20028265E+02</pdfrwt>
<totfact> 0.12240789E+06</totfact>
</mgrwt>
</event>
<event>
 5    1  0.4710515E-007  0.2000822E+02  0.7818608E-02  0.1745165E+00
         -4   -1    0    0    0  501 -0.00000000000E+00  0.00000000000E+00  0.53922915817E+00  0.15189364980E+01  0.14200000000E+01 0. -1.
          4   -1    0    0  501    0  0.00000000000E+00 -0.00000000000E+00 -0.96266351368E+02  0.96276823825E+02  0.14200000000E+01 0.  1.
       1023    2    1    2    0    0  0.00000000000E+00  0.00000000000E+00 -0.95727122210E+02  0.97795760323E+02  0.20008218573E+02 0.  0.
        -13    1    3    3    0    0 -0.91216847995E+01 -0.41028108145E+01 -0.48749314716E+02  0.49764897749E+02  0.10570000000E+00 0. -1.
         13    1    3    3    0    0  0.91216847995E+01  0.41028108145E+01 -0.46977807494E+02  0.48030862574E+02  0.10570000000E+00 0.  1.
<mgrwt>
<rscale>  0 0.20008219E+02</rscale>
<asrwt>0</asrwt>
<pdfrwt beam="2">  1        4 0.14886368E-01 0.20008219E+02</pdfrwt>
<pdfrwt beam="1">  1       -4 0.15912609E-03 0.20008219E+02</pdfrwt>
<totfact> 0.98563866E+05</totfact>
</mgrwt>
</event>
<event>
 5    1  0.4710515E-007  0.2000310E+02  0.7818608E-02  0.1745266E+00
         -4   -1    0    0    0  501 -0.00000000000E+00  0.00000000000E+00  0.15274423756E+01  0.20855407478E+01  0.14200000000E+01 0.  1.
          4   -1    0    0  501    0  0.00000000000E+00 -0.00000000000E+00 -0.54804351475E+02  0.54822744738E+02  0.14200000000E+01 0. -1.
       1023    2    1    2    0    0  0.00000000000E+00  0.00000000000E+00 -0.53276909100E+02  0.56908285486E+02  0.20003097603E+02 0.  0.
        -13    1    3    3    0    0  0.86956389159E+01 -0.49401157274E+01 -0.26551863215E+02  0.28373076890E+02  0.10570000000E+00 0.  1.
         13    1    3    3    0    0 -0.86956389159E+01  0.49401157274E+01 -0.26725045885E+02  0.28535208596E+02  0.10570000000E+00 0. -1.
<mgrwt>
<rscale>  0 0.20003098E+02</rscale>
<asrwt>0</asrwt>
<pdfrwt beam="2">  1        4 0.84757829E-02 0.20003098E+02</pdfrwt>
<pdfrwt beam="1">  1       -4 0.27933669E-03 0.20003098E+02</pdfrwt>
<totfact> 0.11235545E+06</totfact>
</mgrwt>
</event>
<event>
 5    1  0.4710515E-007  0.2000440E+02  0.7818608E-02  0.1745241E+00
         -4   -1    0    0    0  501 -0.00000000000E+00  0.00000000000E+00  0.76322525521E+00  0.16121143850E+01  0.14200000000E+01 0.  1.
          4   -1    0    0  501    0  0.00000000000E+00 -0.00000000000E+00 -0.83378481118E+02  0.83390572090E+02  0.14200000000E+01 0. -1.
       1023    2    1    2    0    0  0.00000000000E+00  0.00000000000E+00 -0.82615255863E+02  0.85002686475E+02  0.20004404683E+02 0.  0.
        -13    1    3    3    0    0  0.88380648686E+01 -0.46809432184E+01 -0.41738018644E+02  0.42919645768E+02  0.10570000000E+00 0.  1.
         13    1    3    3    0    0 -0.88380648686E+01  0.46809432184E+01 -0.40877237218E+02  0.42083040707E+02  0.10570000000E+00 0. -1.
<mgrwt>
<rscale>  0 0.20004405E+02</rscale>
<asrwt>0</asrwt>
<pdfrwt beam="2">  1        4 0.12893683E-01 0.20004405E+02</pdfrwt>
<pdfrwt beam="1">  1       -4 0.18364858E-03 0.20004405E+02</pdfrwt>
<totfact> 0.10246102E+06</totfact>
</mgrwt>
</event>
<event>
 4    1  0.4710515E-007  0.2005314E+02  0.7818608E-02  0.1744273E+00
         -4   -1    0    0    0  501 -0.00000000000E+00  0.00000000000E+00  0.22031684278E+01  0.26211354641E+01  0.14200000000E+01 0.  1.
          4   -1    0    0  501    0  0.00000000000E+00 -0.00000000000E+00 -0.41246121107E+02  0.41270557379E+02  0.14200000000E+01 0. -1.
        -13    1    1    2    0    0  0.93740279518E+01  0.35400109392E+01 -0.18773164828E+02  0.21280201306E+02  0.10570000000E+00 0.  1.
         13    1    1    2    0    0 -0.93740279518E+01 -0.35400109392E+01 -0.20269787852E+02  0.22611491537E+02  0.10570000000E+00 0. -1.
<mgrwt>
<rscale>  0 0.20053143E+02</rscale>
<asrwt>0</asrwt>
<pdfrwt beam="2">  1        4 0.63795876E-02 0.20053143E+02</pdfrwt>
<pdfrwt beam="1">  1       -4 0.37298004E-03 0.20053143E+02</pdfrwt>
<totfact> 0.11722028E+06</totfact>
</mgrwt>
</event>
<event>
 5    1  0.4710515E-007  0.2000366E+02  0.7818608E-02  0.1745255E+00
          4   -1    0    0  501    0  0.00000000000E+00  0.00000000000E+00  0.49741418969E+00  0.15045999057E+01  0.14200000000E+01 0. -1.
         -4   -1    0    0    0  501 -0.00000000000E+00 -0.00000000000E+00 -0.98921149772E+02  0.98931341203E+02  0.14200000000E+01 0.  1.
       1023    2    1    2    0    0  0.00000000000E+00  0.00000000000E+00 -0.98423735583E+02  0.10043594111E+03  0.20003663174E+02 0.  0.
        -13    1    3    3    0    0  0.97356129971E+01  0.22894310178E+01 -0.49425346259E+02  0.50427172041E+02  0.10570000000E+00 0. -1.
         13    1    3    3    0    0 -0.97356129971E+01 -0.22894310178E+01 -0.48998389324E+02  0.50008769067E+02  0.10570000000E+00 0.  1.
<mgrwt>
<rscale>  0 0.20003663E+02</rscale>
<asrwt>0</asrwt>
<pdfrwt beam="1">  1        4 0.15478512E-03 0.20003663E+02</pdfrwt>
<pdfrwt beam="2">  1       -4 0.15296890E-01 0.20003663E+02</pdfrwt>
<totfact> 0.97852785E+05</totfact>
</mgrwt>
</event>
<event>
 5    1  0.4710515E-007  0.2000679E+02  0.7818608E-02  0.1745193E+00
          4   -1    0    0  501    0  0.00000000000E+00  0.00000000000E+00  0.72395234835E+02  0.72409159827E+02  0.14200000000E+01 0.  1.
         -4   -1    0    0    0  501 -0.00000000000E+00 -0.00000000000E+00 -0.99969710740E+00  0.17366042458E+01  0.14200000000E+01 0. -1.
       1023    2    1    2    0    0  0.00000000000E+00  0.00000000000E+00  0.71395537728E+02  0.74145764073E+02  0.20006786911E+02 0.  0.
        -13    1    3    3    0    0  0.82707635506E+01 -0.56250841425E+01  0.36061013052E+02  0.37422652714E+02  0.10570000000E+00 0. -1.
         13    1    3    3    0    0 -0.82707635506E+01  0.56250841425E+01  0.35334524675E+02  0.36723111359E+02  0.10570000000E+00 0.  1.
<mgrwt>
<rscale>  0 0.20006787E+02</rscale>
<asrwt>0</asrwt>
<pdfrwt beam="1">  1        4 0.11195486E-01 0.20006787E+02</pdfrwt>
<pdfrwt beam="2">  1       -4 0.21155585E-03 0.20006787E+02</pdfrwt>
<totfact> 0.10599599E+06</totfact>
</mgrwt>
</event>
<event>
 5    1  0.4710515E-007  0.2000510E+02  0.7818608E-02  0.1745227E+00
          4   -1    0    0  501    0  0.00000000000E+00  0.00000000000E+00  0.13087786384E+02  0.13164594655E+02  0.14200000000E+01 0. -1.
         -4   -1    0    0    0  501 -0.00000000000E+00 -0.00000000000E+00 -0.74784268340E+01  0.76120475505E+01  0.14200000000E+01 0.  1.
       1023    2    1    2    0    0  0.00000000000E+00  0.00000000000E+00  0.56093595499E+01  0.20776642205E+02  0.20005098020E+02 0.  0.
        -13    1    3    3    0    0 -0.30697722724E+01 -0.95177823455E+01  0.26304862260E+01  0.10341291643E+02  0.10570000000E+00 0. -1.
         13    1    3    3    0    0  0.30697722724E+01  0.95177823455E+01  0.29788733239E+01  0.10435350562E+02  0.10570000000E+00 0.  1.
<mgrwt>
<rscale>  0 0.20005098E+02</rscale>
<asrwt>0</asrwt>
<pdfrwt beam="1">  1        4 0.20296924E-02 0.20005098E+02</pdfrwt>
<pdfrwt beam="2">  1       -4 0.11667141E-02 0.20005098E+02</pdfrwt>
<totfact> 0.12961219E+06</totfact>
</mgrwt>
</event>
<event>
 4    1  0.4710515E-007  0.2014551E+02  0.7818608E-02  0.1742450E+00
          4   -1    0    0  501    0  0.00000000000E+00  0.00000000000E+00  0.16165305722E+01  0.21516438113E+01  0.14200000000E+01 0. -1.
         -4   -1    0    0    0  501 -0.00000000000E+00 -0.00000000000E+00 -0.53305301882E+02  0.53324212219E+02  0.14200000000E+01 0.  1.
        -13    1    1    2    0    0  0.16061758971E+01 -0.98743829945E+01 -0.22625941474E+02  0.24739192400E+02  0.10570000000E+00 0. -1.
         13    1    1    2    0    0 -0.16061758971E+01  0.98743829945E+01 -0.29062829837E+02  0.30736663630E+02  0.10570000000E+00 0.  1.
<mgrwt>
<rscale>  0 0.20145509E+02</rscale>
<asrwt>0</asrwt>
<pdfrwt beam="1">  1        4 0.29131425E-03 0.20145509E+02</pdfrwt>
<pdfrwt beam="2">  1       -4 0.82434317E-02 0.20145509E+02</pdfrwt>
<totfact> 0.11131964E+06</totfact>
</mgrwt>
</event>
<event>
 5    1  0.4710515E-007  0.2000396E+02  0.7818608E-02  0.1745249E+00
          4   -1    0    0  501    0  0.00000000000E+00  0.00000000000E+00  0.16653391788E+02  0.16713822365E+02  0.14200000000E+01 0.  1.
         -4   -1    0    0    0  501 -0.00000000000E+00 -0.00000000000E+00 -0.58507695465E+01  0.60206232473E+01  0.14200000000E+01 0. -1.
       1023    2    1    2    0    0  0.00000000000E+00  0.00000000000E+00  0.10802622242E+02  0.22734445612E+02  0.20003958858E+02 0.  0.
        -13    1    3    3    0    0  0.98040702521E+01  0.19733610402E+01  0.55380346662E+01  0.11432189106E+02  0.10570000000E+00 0.  1.
         13    1    3    3    0    0 -0.98040702521E+01 -0.19733610402E+01  0.52645875755E+01  0.11302256506E+02  0.10570000000E+00 0. -1.
<mgrwt>
<rscale>  0 0.20003959E+02</rscale>
<asrwt>0</asrwt>
<pdfrwt beam="1">  1        4 0.25797744E-02 0.20003959E+02</pdfrwt>
<pdfrwt beam="2">  1       -4 0.91783257E-03 0.20003959E+02</pdfrwt>
<totfact> 0.12848619E+06</totfact>
</mgrwt>
</event>
<event>
 5    1  0.4710515E-007  0.2000241E+02  0.7818608E-02  0.1745280E+00
          4   -1    0    0  501    0  0.00000000000E+00  0.00000000000E+00  0.66862973029E+01  0.68354203692E+01  0.14200000000E+01 0. -1.
         -4   -1    0    0    0  501 -0.00000000000E+00 -0.00000000000E+00 -0.14610666753E+02  0.14679508948E+02  0.14200000000E+01 0.  1.
       1023    2    1    2    0    0  0.00000000000E+00  0.00000000000E+00 -0.79243694496E+01  0.21514929317E+02  0.20002413663E+02 0.  0.
        -13    1    3    3    0    0  0.92520300653E+01 -0.37964328438E+01 -0.39640260606E+01  0.10758142859E+02  0.10570000000E+00 0. -1.
         13    1    3    3    0    0 -0.92520300653E+01  0.37964328438E+01 -0.39603433890E+01  0.10756786459E+02  0.10570000000E+00 0.  1.
<mgrwt>
<rscale>  0 0.20002414E+02</rscale>
<asrwt>0</asrwt>
<pdfrwt beam="1">  1        4 0.10454277E-02 0.20002414E+02</pdfrwt>
<pdfrwt beam="2">  1       -4 0.22645614E-02 0.20002414E+02</pdfrwt>
<totfact> 0.12921310E+06</totfact>
</mgrwt>
</event>
<event>
 4    1  0.4710515E-007  0.2004862E+02  0.7818608E-02  0.1744363E+00
         -4   -1    0    0    0  501 -0.00000000000E+00  0.00000000000E+00  0.19789762844E+01  0.24357231235E+01  0.14200000000E+01 0. -1.
          4   -1    0    0  501    0  0.00000000000E+00 -0.00000000000E+00 -0.45054649749E+02  0.45077021463E+02  0.14200000000E+01 0.  1.
        -13    1    1    2    0    0  0.82632541329E+01  0.56728744968E+01 -0.21270061483E+02  0.23513603763E+02  0.10570000000E+00 0.  1.
         13    1    1    2    0    0 -0.82632541329E+01 -0.56728744968E+01 -0.21805611981E+02  0.23999140824E+02  0.10570000000E+00 0. -1.
<mgrwt>
<rscale>  0 0.20048622E+02</rscale>
<asrwt>0</asrwt>
<pdfrwt beam="2">  1        4 0.69683392E-02 0.20048622E+02</pdfrwt>
<pdfrwt beam="1">  1       -4 0.34131320E-03 0.20048622E+02</pdfrwt>
<totfact> 0.11569235E+06</totfact>
</mgrwt>
</event>
<event>
 5    1  0.4710515E-007  0.2000260E+02  0.7818608E-02  0.1745276E+00
         -4   -1    0    0    0  501 -0.00000000000E+00  0.00000000000E+00  0.61671102909E+02  0.61687448756E+02  0.14200000000E+01 0.  1.
          4   -1    0    0  501    0  0.00000000000E+00 -0.00000000000E+00 -0.12913074689E+01  0.19193423299E+01  0.14200000000E+01 0. -1.
       1023    2    1    2    0    0  0.00000000000E+00  0.00000000000E+00  0.60379795440E+02  0.63606791086E+02  0.20002604201E+02 0.  0.
        -13    1    3    3    0    0 -0.60530459432E+00 -0.99821829995E+01  0.29976578730E+02  0.31600898974E+02  0.10570000000E+00 0. -1.
         13    1    3    3    0    0  0.60530459432E+00  0.99821829995E+01  0.30403216709E+02  0.32005892112E+02  0.10570000000E+00 0.  1.
<mgrwt>
<rscale>  0 0.20002604E+02</rscale>
<asrwt>0</asrwt>
<pdfrwt beam="2">  1        4 0.24823041E-03 0.20002604E+02</pdfrwt>
<pdfrwt beam="1">  1       -4 0.95374306E-02 0.20002604E+02</pdfrwt>
<totfact> 0.10979642E+06</totfact>
</mgrwt>
</event>
<event>
 5    1  0.4710515E-007  0.2000542E+02  0.7818608E-02  0.1745220E+00
         -4   -1    0    0    0  501 -0.00000000000E+00  0.00000000000E+00  0.62683398577E+02  0.62699480518E+02  0.14200000000E+01 0.  1.
          4   -1    0    0  501    0  0.00000000000E+00 -0.00000000000E+00 -0.12607768563E+01  0.18989360920E+01  0.14200000000E+01 0. -1.
       1023    2    1    2    0    0  0.00000000000E+00  0.00000000000E+00  0.61422621721E+02  0.64598416609E+02  0.20005423500E+02 0.  0.
        -13    1    3    3    0    0  0.99619650345E+01  0.88075731827E+00  0.31237843863E+02  0.32799855831E+02  0.10570000000E+00 0.  1.
         13    1    3    3    0    0 -0.99619650345E+01 -0.88075731827E+00  0.30184777858E+02  0.31798560779E+02  0.10570000000E+00 0. -1.
<mgrwt>
<rscale>  0 0.20005423E+02</rscale>
<asrwt>0</asrwt>
<pdfrwt beam="2">  1        4 0.24429190E-03 0.20005423E+02</pdfrwt>
<pdfrwt beam="1">  1       -4 0.96939266E-02 0.20005423E+02</pdfrwt>
<totfact> 0.10939801E+06</totfact>
</mgrwt>
</event>
<event>
 5    1  0.4710515E-007  0.2000277E+02  0.7818608E-02  0.1745273E+00
          4   -1    0    0  501    0  0.00000000000E+00  0.00000000000E+00  0.57175194012E+02  0.57192824815E+02  0.14200000000E+01 0.  1.
         -4   -1    0    0    0  501 -0.00000000000E+00 -0.00000000000E+00 -0.14404237071E+01  0.20226765574E+01  0.14200000000E+01 0. -1.
       1023    2    1    2    0    0  0.00000000000E+00  0.00000000000E+00  0.55734770305E+02  0.59215501373E+02  0.20002774354E+02 0.  0.
        -13    1    3    3    0    0  0.85642458767E+01  0.51634819540E+01  0.27590949170E+02  0.29347563816E+02  0.10570000000E+00 0.  1.
         13    1    3    3    0    0 -0.85642458767E+01 -0.51634819540E+01  0.28143821135E+02  0.29867937557E+02  0.10570000000E+00 0. -1.
<mgrwt>
<rscale>  0 0.20002774E+02</rscale>
<asrwt>0</asrwt>
<pdfrwt beam="1">  1        4 0.88423279E-02 0.20002774E+02</pdfrwt>
<pdfrwt beam="2">  1       -4 0.26774857E-03 0.20002774E+02</pdfrwt>
<totfact> 0.11145947E+06</totfact>
</mgrwt>
</event>
<event>
 4    1  0.4710515E-007  0.2004421E+02  0.7818608E-02  0.1744450E+00
         -4   -1    0    0    0  501 -0.00000000000E+00  0.00000000000E+00  0.31667165952E+02  0.31698987356E+02  0.14200000000E+01 0.  1.
          4   -1    0    0  501    0  0.00000000000E+00 -0.00000000000E+00 -0.29776996027E+01  0.32989536105E+01  0.14200000000E+01 0. -1.
        -13    1    1    2    0    0 -0.98207744436E+01 -0.19428758682E+01  0.13546413414E+02  0.16844550044E+02  0.10570000000E+00 0. -1.
         13    1    1    2    0    0  0.98207744436E+01  0.19428758682E+01  0.15143052935E+02  0.18153390922E+02  0.10570000000E+00 0.  1.
<mgrwt>
<rscale>  0 0.20044211E+02</rscale>
<asrwt>0</asrwt>
<pdfrwt beam="2">  1        4 0.48526727E-03 0.20044211E+02</pdfrwt>
<pdfrwt beam="1">  1       -4 0.48990314E-02 0.20044211E+02</pdfrwt>
<totfact> 0.12147559E+06</totfact>
</mgrwt>
</event>
<event>
 5    1  0.4710515E-007  0.2000116E+02  0.7818608E-02  0.1745305E+00
          4   -1    0    0  501    0  0.00000000000E+00  0.00000000000E+00  0.51490227254E+02  0.51509803947E+02  0.14200000000E+01 0.  1.
         -4   -1    0    0    0  501 -0.00000000000E+00 -0.00000000000E+00 -0.16601150387E+01  0.21845782068E+01  0.14200000000E+01 0. -1.
       1023    2    1    2    0    0  0.00000000000E+00  0.00000000000E+00  0.49830112216E+02  0.53694382154E+02  0.20001164754E+02 0.  0.
        -13    1    3    3    0    0  0.71057631178E+01 -0.70362339128E+01  0.24926516343E+02  0.26857826544E+02  0.10570000000E+00 0.  1.
         13    1    3    3    0    0 -0.71057631178E+01  0.70362339128E+01  0.24903595872E+02  0.26836555610E+02  0.10570000000E+00 0. -1.
<mgrwt>
<rscale>  0 0.20001165E+02</rscale>
<asrwt>0</asrwt>
<pdfrwt beam="1">  1        4 0.79634208E-02 0.20001165E+02</pdfrwt>
<pdfrwt beam="2">  1       -4 0.29725160E-03 0.20001165E+02</pdfrwt>
<totfact> 0.11366253E+06</totfact>
</mgrwt>
</event>
<event>
 5    1  0.4710515E-007  0.2000220E+02  0.7818608E-02  0.1745284E+00
         -4   -1    0    0    0  501 -0.00000000000E+00  0.00000000000E+00  0.12455051265E+01  0.18888311254E+01  0.14200000000E+01 0. -1.
          4   -1    0    0  501    0  0.00000000000E+00 -0.00000000000E+00 -0.63170458722E+02  0.63186416698E+02  0.14200000000E+01 0.  1.
       1023    2    1    2    0    0  0.00000000000E+00  0.00000000000E+00 -0.61924953595E+02  0.65075247823E+02  0.20002199916E+02 0.  0.
        -13    1    3    3    0    0 -0.18170801561E+01  0.98337762961E+01 -0.30712761389E+02  0.32299997232E+02  0.10570000000E+00 0.  1.
         13    1    3    3    0    0  0.18170801561E+01 -0.98337762961E+01 -0.31212192206E+02  0.32775250591E+02  0.10570000000E+00 0. -1.
<mgrwt>
<rscale>  0 0.20002200E+02</rscale>
<asrwt>0</asrwt>
<pdfrwt beam="2">  1        4 0.97692443E-02 0.20002200E+02</pdfrwt>
<pdfrwt beam="1">  1       -4 0.24233037E-03 0.20002200E+02</pdfrwt>
<totfact> 0.10925785E+06</totfact>
</mgrwt>
</event>
<event>
 5    1  0.4710515E-007  0.2000164E+02  0.7818608E-02  0.1745296E+00
         -4   -1    0    0    0  501 -0.00000000000E+00  0.00000000000E+00  0.11317579707E+02  0.11406314498E+02  0.14200000000E+01 0.  1.
          4   -1    0    0  501    0  0.00000000000E+00 -0.00000000000E+00 -0.86559371423E+01  0.87716388327E+01  0.14200000000E+01 0. -1.
       1023    2    1    2    0    0  0.00000000000E+00  0.00000000000E+00  0.26616425646E+01  0.20177953330E+02  0.20001636420E+02 0.  0.
        -13    1    3    3    0    0  0.76497598592E+01 -0.64409151057E+01  0.13623872757E+01  0.10093140487E+02  0.10570000000E+00 0. -1.
         13    1    3    3    0    0 -0.76497598592E+01  0.64409151057E+01  0.12992552889E+01  0.10084812844E+02  0.10570000000E+00 0.  1.
<mgrwt>
<rscale>  0 0.20001636E+02</rscale>
<asrwt>0</asrwt>
<pdfrwt beam="2">  1        4 0.13474085E-02 0.20001636E+02</pdfrwt>
<pdfrwt beam="1">  1       -4 0.17568920E-02 0.20001636E+02</pdfrwt>
<totfact> 0.13001287E+06</totfact>
</mgrwt>
</event>
<event>
 5    1  0.4710515E-007  0.2000380E+02  0.7818608E-02  0.1745252E+00
         -4   -1    0    0    0  501 -0.00000000000E+00  0.00000000000E+00  0.28089466408E+02  0.28125335964E+02  0.14200000000E+01 0.  1.
          4   -1    0    0  501    0  0.00000000000E+00 -0.00000000000E+00 -0.33800927116E+01  0.36662551383E+01  0.14200000000E+01 0. -1.
       1023    2    1    2    0    0  0.00000000000E+00  0.00000000000E+00  0.24709373696E+02  0.31791591102E+02  0.20003802547E+02 0.  0.
        -13    1    3    3    0    0  0.67670414808E+01 -0.73643020027E+01  0.12302889892E+02  0.15855537411E+02  0.10570000000E+00 0. -1.
         13    1    3    3    0    0 -0.67670414808E+01  0.73643020027E+01  0.12406483804E+02  0.15936053692E+02  0.10570000000E+00 0.  1.
<mgrwt>
<rscale>  0 0.20003803E+02</rscale>
<asrwt>0</asrwt>
<pdfrwt beam="2">  1        4 0.54478594E-03 0.20003803E+02</pdfrwt>
<pdfrwt beam="1">  1       -4 0.43462282E-02 0.20003803E+02</pdfrwt>
<totfact> 0.12358350E+06</totfact>
</mgrwt>
</event>
<event>
 4    1  0.4710515E-007  0.2002818E+02  0.7818608E-02  0.1744768E+00
         -4   -1    0    0    0  501 -0.00000000000E+00  0.00000000000E+00  0.16459758959E+02  0.16520897826E+02  0.14200000000E+01 0. -1.
          4   -1    0    0  501    0  0.00000000000E+00 -0.00000000000E+00 -0.59362288330E+01  0.61037048386E+01  0.14200000000E+01 0.  1.
        -13    1    1    2    0    0 -0.60887960788E+01  0.79484834167E+01  0.51060918000E+01  0.11239892005E+02  0.10570000000E+00 0. -1.
         13    1    1    2    0    0  0.60887960788E+01 -0.79484834167E+01  0.54174383261E+01  0.11384710660E+02  0.10570000000E+00 0.  1.
<mgrwt>
<rscale>  0 0.20028179E+02</rscale>
<asrwt>0</asrwt>
<pdfrwt beam="2">  1        4 0.93085174E-03 0.20028179E+02</pdfrwt>
<pdfrwt beam="1">  1       -4 0.25498564E-02 0.20028179E+02</pdfrwt>
<totfact> 0.12823253E+06</totfact>
</mgrwt>
</event>
<event>
 4    1  0.4710515E-007  0.2001973E+02  0.7818608E-02  0.1744936E+00
          4   -1    0    0  501    0  0.00000000000E+00  0.00000000000E+00  0.99306771597E+01  0.10031687238E+02  0.14200000000E+01 0. -1.
         -4   -1    0    0    0  501 -0.00000000000E+00 -0.00000000000E+00 -0.98866368805E+01  0.99880923507E+01  0.14200000000E+01 0.  1.
        -13    1    1    2    0    0 -0.58254969255E+01  0.81382315649E+01  0.15989320408E+00  0.10010193093E+02  0.10570000000E+00 0. -1.
         13    1    1    2    0    0  0.58254969255E+01 -0.81382315649E+01 -0.11585292491E+00  0.10009586496E+02  0.10570000000E+00 0.  1.
<mgrwt>
<rscale>  0 0.20019731E+02</rscale>
<asrwt>0</asrwt>
<pdfrwt beam="1">  1        4 0.15433708E-02 0.20019731E+02</pdfrwt>
<pdfrwt beam="2">  1       -4 0.15365953E-02 0.20019731E+02</pdfrwt>
<totfact> 0.12986691E+06</totfact>
</mgrwt>
</event>
<event>
 5    1  0.4710515E-007  0.2000810E+02  0.7818608E-02  0.1745167E+00
          4   -1    0    0  501    0  0.00000000000E+00  0.00000000000E+00  0.39075728297E+01  0.41575864897E+01  0.14200000000E+01 0.  1.
         -4   -1    0    0    0  501 -0.00000000000E+00 -0.00000000000E+00 -0.24546940888E+02  0.24587978912E+02  0.14200000000E+01 0. -1.
       1023    2    1    2    0    0  0.00000000000E+00  0.00000000000E+00 -0.20639368059E+02  0.28745565402E+02  0.20008098770E+02 0.  0.
        -13    1    3    3    0    0 -0.97769538919E+01 -0.21146277596E+01 -0.10458633028E+02  0.14472548333E+02  0.10570000000E+00 0. -1.
         13    1    3    3    0    0  0.97769538919E+01  0.21146277596E+01 -0.10180735031E+02  0.14273017068E+02  0.10570000000E+00 0.  1.
<mgrwt>
<rscale>  0 0.20008099E+02</rscale>
<asrwt>0</asrwt>
<pdfrwt beam="1">  1        4 0.62355366E-03 0.20008099E+02</pdfrwt>
<pdfrwt beam="2">  1       -4 0.37988409E-02 0.20008099E+02</pdfrwt>
<totfact> 0.12511483E+06</totfact>
</mgrwt>
</event>
<event>
 5    1  0.4710515E-007  0.2000362E+02  0.7818608E-02  0.1745256E+00
         -4   -1    0    0    0  501 -0.00000000000E+00  0.00000000000E+00  0.18866038702E+01  0.23612865483E+01  0.14200000000E+01 0. -1.
          4   -1    0    0  501    0  0.00000000000E+00 -0.00000000000E+00 -0.46612540670E+02  0.46634165026E+02  0.14200000000E+01 0.  1.
       1023    2    1    2    0    0  0.00000000000E+00  0.00000000000E+00 -0.44725936799E+02  0.48995451574E+02  0.20003620982E+02 0.  0.
        -13    1    3    3    0    0  0.92850742876E+00  0.99579304721E+01 -0.22239640959E+02  0.24385145228E+02  0.10570000000E+00 0.  1.
         13    1    3    3    0    0 -0.92850742876E+00 -0.99579304721E+01 -0.22486295841E+02  0.24610306346E+02  0.10570000000E+00 0. -1.
<mgrwt>
<rscale>  0 0.20003621E+02</rscale>
<asrwt>0</asrwt>
<pdfrwt beam="2">  1        4 0.72093368E-02 0.20003621E+02</pdfrwt>
<pdfrwt beam="1">  1       -4 0.32842425E-03 0.20003621E+02</pdfrwt>
<totfact> 0.11558449E+06</totfact>
</mgrwt>
</event>
<event>
 5    1  0.4710515E-007  0.2000229E+02  0.7818608E-02  0.1745283E+00
         -4   -1    0    0    0  501 -0.00000000000E+00  0.00000000000E+00  0.31836660618E+02  0.31868312778E+02  0.14200000000E+01 0.  1.
          4   -1    0    0  501    0  0.00000000000E+00 -0.00000000000E+00 -0.29462883249E+01  0.32706291281E+01  0.14200000000E+01 0. -1.
       1023    2    1    2    0    0  0.00000000000E+00  0.00000000000E+00  0.28890372293E+02  0.35138941906E+02  0.20002290545E+02 0.  0.
        -13    1    3    3    0    0 -0.47372567952E+01  0.88070082686E+01  0.14300986499E+02  0.17450913556E+02  0.10570000000E+00 0.  1.
         13    1    3    3    0    0  0.47372567952E+01 -0.88070082686E+01  0.14589385794E+02  0.17688028350E+02  0.10570000000E+00 0. -1.
<mgrwt>
<rscale>  0 0.20002291E+02</rscale>
<asrwt>0</asrwt>
<pdfrwt beam="2">  1        4 0.48065922E-03 0.20002291E+02</pdfrwt>
<pdfrwt beam="1">  1       -4 0.49253317E-02 0.20002291E+02</pdfrwt>
<totfact> 0.12192317E+06</totfact>
</mgrwt>
</event>
<event>
 5    1  0.5459710E-007  0.2000123E+02  0.7818608E-02  0.1745304E+00
         -4   -1    0    0    0  501 -0.00000000000E+00  0.00000000000E+00  0.21773641586E+01  0.25994835409E+01  0.14200000000E+01 0. -1.
          4   -1    0    0  501    0  0.00000000000E+00 -0.00000000000E+00 -0.41438392024E+02  0.41462714981E+02  0.14200000000E+01 0.  1.
       1023    2    1    2    0    0  0.00000000000E+00  0.00000000000E+00 -0.39261027866E+02  0.44062198522E+02  0.20001225699E+02 0.  0.
        -13    1    3    3    0    0  0.26974242913E+01 -0.96293535414E+01 -0.19681585163E+02  0.22076605592E+02  0.10570000000E+00 0.  1.
         13    1    3    3    0    0 -0.26974242913E+01  0.96293535414E+01 -0.19579442703E+02  0.21985592930E+02  0.10570000000E+00 0. -1.
<mgrwt>
<rscale>  0 0.20001226E+02</rscale>
<asrwt>0</asrwt>
<pdfrwt beam="2">  1        4 0.64094784E-02 0.20001226E+02</pdfrwt>
<pdfrwt beam="1">  1       -4 0.36932085E-03 0.20001226E+02</pdfrwt>
<totfact> 0.11776018E+06</totfact>
</mgrwt>
</event>
<event>
 5    1  0.4710515E-007  0.2000292E+02  0.7818608E-02  0.1745270E+00
         -4   -1    0    0    0  501 -0.00000000000E+00  0.00000000000E+00  0.65402318837E+01  0.66926103347E+01  0.14200000000E+01 0. -1.
          4   -1    0    0  501    0  0.00000000000E+00 -0.00000000000E+00 -0.14931876785E+02  0.14999244792E+02  0.14200000000E+01 0.  1.
       1023    2    1    2    0    0  0.00000000000E+00  0.00000000000E+00 -0.83916449011E+01  0.21691855126E+02  0.20002921653E+02 0.  0.
        -13    1    3    3    0    0  0.86515479313E+01  0.50160175142E+01 -0.40968303616E+01  0.10807631786E+02  0.10570000000E+00 0.  1.
         13    1    3    3    0    0 -0.86515479313E+01 -0.50160175142E+01 -0.42948145396E+01  0.10884223341E+02  0.10570000000E+00 0. -1.
<mgrwt>
<rscale>  0 0.20002922E+02</rscale>
<asrwt>0</asrwt>
<pdfrwt beam="2">  1        4 0.23141154E-02 0.20002922E+02</pdfrwt>
<pdfrwt beam="1">  1       -4 0.10230931E-02 0.20002922E+02</pdfrwt>
<totfact> 0.12910308E+06</totfact>
</mgrwt>
</event>
<event>
 5    1  0.4710515E-007  0.2000410E+02  0.7818608E-02  0.1745247E+00
         -4   -1    0    0    0  501 -0.00000000000E+00  0.00000000000E+00  0.42155845882E+02  0.42179755121E+02  0.14200000000E+01 0.  1.
          4   -1    0    0  501    0  0.00000000000E+00 -0.00000000000E+00 -0.21338300557E+01  0.25631290851E+01  0.14200000000E+01 0. -1.
       1023    2    1    2    0    0  0.00000000000E+00  0.00000000000E+00  0.40022015827E+02  0.44742884206E+02  0.20004097986E+02 0.  0.
        -13    1    3    3    0    0 -0.75897329454E+01 -0.65134859536E+01  0.19974520508E+02  0.22338804522E+02  0.10570000000E+00 0.  1.
         13    1    3    3    0    0  0.75897329454E+01  0.65134859536E+01  0.20047495318E+02  0.22404079684E+02  0.10570000000E+00 0. -1.
<mgrwt>
<rscale>  0 0.20004098E+02</rscale>
<asrwt>0</asrwt>
<pdfrwt beam="2">  1        4 0.36314375E-03 0.20004098E+02</pdfrwt>
<pdfrwt beam="1">  1       -4 0.65203765E-02 0.20004098E+02</pdfrwt>
<totfact> 0.11742329E+06</totfact>
</mgrwt>
</event>
<event>
 4    1  0.4710515E-007  0.2005138E+02  0.7818608E-02  0.1744308E+00
         -4   -1    0    0    0  501 -0.00000000000E+00  0.00000000000E+00  0.55957823636E+00  0.15262790710E+01  0.14200000000E+01 0. -1.
          4   -1    0    0  501    0  0.00000000000E+00 -0.00000000000E+00 -0.95402680144E+02  0.95413247396E+02  0.14200000000E+01 0.  1.
        -13    1    1    2    0    0 -0.75139798682E+01  0.66319224139E+01 -0.46227579985E+02  0.47301613209E+02  0.10570000000E+00 0.  1.
         13    1    1    2    0    0  0.75139798682E+01 -0.66319224139E+01 -0.48615521922E+02  0.49637913258E+02  0.10570000000E+00 0. -1.
<mgrwt>
<rscale>  0 0.20051379E+02</rscale>
<asrwt>0</asrwt>
<pdfrwt beam="2">  1        4 0.14752503E-01 0.20051379E+02</pdfrwt>
<pdfrwt beam="1">  1       -4 0.16126350E-03 0.20051379E+02</pdfrwt>
<totfact> 0.98387472E+05</totfact>
</mgrwt>
</event>
<event>
 5    1  0.4710515E-007  0.2000122E+02  0.7818608E-02  0.1745304E+00
         -4   -1    0    0    0  501 -0.00000000000E+00  0.00000000000E+00  0.64054436537E+02  0.64070174341E+02  0.14200000000E+01 0.  1.
          4   -1    0    0  501    0  0.00000000000E+00 -0.00000000000E+00 -0.12191982179E+01  0.18715887087E+01  0.14200000000E+01 0. -1.
       1023    2    1    2    0    0  0.00000000000E+00  0.00000000000E+00  0.62835238319E+02  0.65941763050E+02  0.20001223449E+02 0.  0.
        -13    1    3    3    0    0  0.96146529321E+01 -0.27494326122E+01  0.31455452184E+02  0.33006932230E+02  0.10570000000E+00 0.  1.
         13    1    3    3    0    0 -0.96146529321E+01  0.27494326122E+01  0.31379786136E+02  0.32934830820E+02  0.10570000000E+00 0. -1.
<mgrwt>
<rscale>  0 0.20001223E+02</rscale>
<asrwt>0</asrwt>
<pdfrwt beam="2">  1        4 0.23896345E-03 0.20001223E+02</pdfrwt>
<pdfrwt beam="1">  1       -4 0.99059230E-02 0.20001223E+02</pdfrwt>
<totfact> 0.10895122E+06</totfact>
</mgrwt>
</event>
<event>
 5    1  0.4710515E-007  0.2000243E+02  0.7818608E-02  0.1745280E+00
         -4   -1    0    0    0  501 -0.00000000000E+00  0.00000000000E+00  0.30039407408E+02  0.30072951259E+02  0.14200000000E+01 0.  1.
          4   -1    0    0  501    0  0.00000000000E+00 -0.00000000000E+00 -0.31412577609E+01  0.34473033403E+01  0.14200000000E+01 0. -1.
       1023    2    1    2    0    0  0.00000000000E+00  0.00000000000E+00  0.26898149647E+02  0.33520254599E+02  0.20002425202E+02 0.  0.
        -13    1    3    3    0    0  0.85661476737E+01  0.51605774816E+01  0.13535099365E+02  0.16829157234E+02  0.10570000000E+00 0.  1.
         13    1    3    3    0    0 -0.85661476737E+01 -0.51605774816E+01  0.13363050282E+02  0.16691097365E+02  0.10570000000E+00 0. -1.
<mgrwt>
<rscale>  0 0.20002425E+02</rscale>
<asrwt>0</asrwt>
<pdfrwt beam="2">  1        4 0.50939271E-03 0.20002425E+02</pdfrwt>
<pdfrwt beam="1">  1       -4 0.46475693E-02 0.20002425E+02</pdfrwt>
<totfact> 0.12272513E+06</totfact>
</mgrwt>
</event>
<event>
 5    1  0.4710515E-007  0.2000727E+02  0.7818608E-02  0.1745184E+00
         -4   -1    0    0    0  501 -0.00000000000E+00  0.00000000000E+00  0.13607799145E+02  0.13681688404E+02  0.14200000000E+01 0.  1.
          4   -1    0    0  501    0  0.00000000000E+00 -0.00000000000E+00 -0.71906453727E+01  0.73295143683E+01  0.14200000000E+01 0. -1.
       1023    2    1    2    0    0  0.00000000000E+00  0.00000000000E+00  0.64171537727E+01  0.21011202772E+02  0.20007268164E+02 0.  0.
        -13    1    3    3    0    0 -0.41951414880E+01 -0.90780780367E+01  0.34452970282E+01  0.10577899463E+02  0.10570000000E+00 0.  1.
         13    1    3    3    0    0  0.41951414880E+01  0.90780780367E+01  0.29718567445E+01  0.10433303309E+02  0.10570000000E+00 0. -1.
<mgrwt>
<rscale>  0 0.20007268E+02</rscale>
<asrwt>0</asrwt>
<pdfrwt beam="2">  1        4 0.11226192E-02 0.20007268E+02</pdfrwt>
<pdfrwt beam="1">  1       -4 0.21098735E-02 0.20007268E+02</pdfrwt>
<totfact> 0.12944489E+06</totfact>
</mgrwt>
</event>
<event>
 5    1  0.4710515E-007  0.2000162E+02  0.7818608E-02  0.1745296E+00
         -4   -1    0    0    0  501 -0.00000000000E+00  0.00000000000E+00  0.56601514015E+00  0.15286507577E+01  0.14200000000E+01 0.  1.
          4   -1    0    0  501    0  0.00000000000E+00 -0.00000000000E+00 -0.94525625225E+02  0.94536290514E+02  0.14200000000E+01 0. -1.
       1023    2    1    2    0    0  0.00000000000E+00  0.00000000000E+00 -0.93959610085E+02  0.96064941272E+02  0.20001615291E+02 0.  0.
        -13    1    3    3    0    0  0.75045746716E+01 -0.66091899666E+01 -0.47317649836E+02  0.48362911322E+02  0.10570000000E+00 0.  1.
         13    1    3    3    0    0 -0.75045746716E+01  0.66091899666E+01 -0.46641960248E+02  0.47702029949E+02  0.10570000000E+00 0. -1.
<mgrwt>
<rscale>  0 0.20001615E+02</rscale>
<asrwt>0</asrwt>
<pdfrwt beam="2">  1        4 0.14617266E-01 0.20001615E+02</pdfrwt>
<pdfrwt beam="1">  1       -4 0.16194863E-03 0.20001615E+02</pdfrwt>
<totfact> 0.99131666E+05</totfact>
</mgrwt>
</event>
<event>
 5    1  0.4710515E-007  0.2000274E+02  0.7818608E-02  0.1745274E+00
          4   -1    0    0  501    0  0.00000000000E+00  0.00000000000E+00  0.71186122657E+02  0.71200284121E+02  0.14200000000E+01 0. -1.
         -4   -1    0    0    0  501 -0.00000000000E+00 -0.00000000000E+00 -0.10283672487E+01  0.17532652960E+01  0.14200000000E+01 0.  1.
       1023    2    1    2    0    0  0.00000000000E+00  0.00000000000E+00  0.70157755408E+02  0.72953549417E+02  0.20002743028E+02 0.  0.
        -13    1    3    3    0    0 -0.90128054308E+01  0.43340908344E+01  0.35208060770E+02  0.36601007101E+02  0.10570000000E+00 0. -1.
         13    1    3    3    0    0  0.90128054308E+01 -0.43340908344E+01  0.34949694637E+02  0.36352542316E+02  0.10570000000E+00 0.  1.
<mgrwt>
<rscale>  0 0.20002743E+02</rscale>
<asrwt>0</asrwt>
<pdfrwt beam="1">  1        4 0.11008565E-01 0.20002743E+02</pdfrwt>
<pdfrwt beam="2">  1       -4 0.21506101E-03 0.20002743E+02</pdfrwt>
<totfact> 0.10644820E+06</totfact>
</mgrwt>
</event>
<event>
 5    1  0.4961189E-007  0.2000363E+02  0.7818608E-02  0.1745256E+00
         -4   -1    0    0    0  501 -0.00000000000E+00  0.00000000000E+00  0.43188193268E+01  0.45462732405E+01  0.14200000000E+01 0.  1.
          4   -1    0    0  501    0  0.00000000000E+00 -0.00000000000E+00 -0.22317983516E+02  0.22363112221E+02  0.14200000000E+01 0. -1.
       1023    2    1    2    0    0  0.00000000000E+00  0.00000000000E+00 -0.17999164189E+02  0.26909385461E+02  0.20003627531E+02 0.  0.
        -13    1    3    3    0    0 -0.95621633995E+01 -0.29266517125E+01 -0.87875352084E+01  0.13312858696E+02  0.10570000000E+00 0.  1.
         13    1    3    3    0    0  0.95621633995E+01  0.29266517125E+01 -0.92116289806E+01  0.13596526766E+02  0.10570000000E+00 0. -1.
<mgrwt>
<rscale>  0 0.20003628E+02</rscale>
<asrwt>0</asrwt>
<pdfrwt beam="2">  1        4 0.34545037E-02 0.20003628E+02</pdfrwt>
<pdfrwt beam="1">  1       -4 0.68540165E-03 0.20003628E+02</pdfrwt>
<totfact> 0.12615763E+06</totfact>
</mgrwt>
</event>
<event>
 5    1  0.4710515E-007  0.2000825E+02  0.7818608E-02  0.1745164E+00
          4   -1    0    0  501    0  0.00000000000E+00  0.00000000000E+00  0.49234112003E+02  0.49254585418E+02  0.14200000000E+01 0. -1.
         -4   -1    0    0    0  501 -0.00000000000E+00 -0.00000000000E+00 -0.17612741833E+01  0.22624072907E+01  0.14200000000E+01 0.  1.
       1023    2    1    2    0    0  0.00000000000E+00  0.00000000000E+00  0.47472837820E+02  0.51516992709E+02  0.20008253475E+02 0.  0.
        -13    1    3    3    0    0  0.99985539095E+01 -0.28579774689E+00  0.23385088706E+02  0.25434746056E+02  0.10570000000E+00 0. -1.
         13    1    3    3    0    0 -0.99985539095E+01  0.28579774689E+00  0.24087749114E+02  0.26082246653E+02  0.10570000000E+00 0.  1.
<mgrwt>
<rscale>  0 0.20008253E+02</rscale>
<asrwt>0</asrwt>
<pdfrwt beam="1">  1        4 0.76146021E-02 0.20008253E+02</pdfrwt>
<pdfrwt beam="2">  1       -4 0.31108885E-03 0.20008253E+02</pdfrwt>
<totfact> 0.11447358E+06</totfact>
</mgrwt>
</event>
<event>
 5    1  0.4710515E-007  0.2000137E+02  0.7818608E-02  0.1745301E+00
          4   -1    0    0  501    0  0.00000000000E+00  0.00000000000E+00  0.40789549319E+01  0.43190593115E+01  0.14200000000E+01 0.  1.
         -4   -1    0    0    0  501 -0.00000000000E+00 -0.00000000000E+00 -0.23556317214E+02  0.23599077962E+02  0.14200000000E+01 0. -1.
       1023    2    1    2    0    0  0.00000000000E+00  0.00000000000E+00 -0.19477362282E+02  0.27918137274E+02  0.20001368638E+02 0.  0.
        -13    1    3    3    0    0 -0.82872474861E+01  0.55966704018E+01 -0.96878944329E+01  0.13923636792E+02  0.10570000000E+00 0.  1.
         13    1    3    3    0    0  0.82872474861E+01 -0.55966704018E+01 -0.97894678488E+01  0.13994500482E+02  0.10570000000E+00 0. -1.
<mgrwt>
<rscale>  0 0.20001369E+02</rscale>
<asrwt>0</asrwt>
<pdfrwt beam="1">  1        4 0.64929040E-03 0.20001369E+02</pdfrwt>
<pdfrwt beam="2">  1       -4 0.36458076E-02 0.20001369E+02</pdfrwt>
<totfact> 0.12564191E+06</totfact>
</mgrwt>
</event>
<event>
 5    1  0.4710515E-007  0.2000154E+02  0.7818608E-02  0.1745297E+00
          4   -1    0    0  501    0  0.00000000000E+00  0.00000000000E+00  0.14697435006E+01  0.20436599418E+01  0.14200000000E+01 0.  1.
         -4   -1    0    0    0  501 -0.00000000000E+00 -0.00000000000E+00 -0.56349307793E+02  0.56367196921E+02  0.14200000000E+01 0. -1.
       1023    2    1    2    0    0  0.00000000000E+00  0.00000000000E+00 -0.54879564292E+02  0.58410856863E+02  0.20001540504E+02 0.  0.
        -13    1    3    3    0    0  0.41328109472E+01 -0.91060903878E+01 -0.27273948460E+02  0.29049620404E+02  0.10570000000E+00 0. -1.
         13    1    3    3    0    0 -0.41328109472E+01  0.91060903878E+01 -0.27605615832E+02  0.29361236459E+02  0.10570000000E+00 0.  1.
<mgrwt>
<rscale>  0 0.20001541E+02</rscale>
<asrwt>0</asrwt>
<pdfrwt beam="1">  1        4 0.27163793E-03 0.20001541E+02</pdfrwt>
<pdfrwt beam="2">  1       -4 0.87146464E-02 0.20001541E+02</pdfrwt>
<totfact> 0.11178500E+06</totfact>
</mgrwt>
</event>
<event>
 5    1  0.4710515E-007  0.2001109E+02  0.7818608E-02  0.1745108E+00
         -4   -1    0    0    0  501 -0.00000000000E+00  0.00000000000E+00  0.93156227703E+01  0.94232280880E+01  0.14200000000E+01 0. -1.
          4   -1    0    0  501    0  0.00000000000E+00 -0.00000000000E+00 -0.10529318762E+02  0.10624638987E+02  0.14200000000E+01 0.  1.
       1023    2    1    2    0    0  0.00000000000E+00  0.00000000000E+00 -0.12136959918E+01  0.20047867074E+02  0.20011094830E+02 0.  0.
        -13    1    3    3    0    0  0.51056254680E+01 -0.86035889316E+01 -0.50344662870E+00  0.10017673628E+02  0.10570000000E+00 0. -1.
         13    1    3    3    0    0 -0.51056254680E+01  0.86035889316E+01 -0.71024936309E+00  0.10030193446E+02  0.10570000000E+00 0.  1.
<mgrwt>
<rscale>  0 0.20011095E+02</rscale>
<asrwt>0</asrwt>
<pdfrwt beam="2">  1        4 0.16355049E-02 0.20011095E+02</pdfrwt>
<pdfrwt beam="1">  1       -4 0.14487824E-02 0.20011095E+02</pdfrwt>
<totfact> 0.12996477E+06</totfact>
</mgrwt>
</event>
<event>
 5    1  0.4787532E-007  0.2000197E+02  0.7818608E-02  0.1745289E+00
         -4   -1    0    0    0  501 -0.00000000000E+00  0.00000000000E+00  0.17324240645E+02  0.17382339138E+02  0.14200000000E+01 0.  1.
          4   -1    0    0  501    0  0.00000000000E+00 -0.00000000000E+00 -0.56171321575E+01  0.57938392863E+01  0.14200000000E+01 0. -1.
       1023    2    1    2    0    0  0.00000000000E+00  0.00000000000E+00  0.11707108487E+02  0.23176178425E+02  0.20001971334E+02 0.  0.
        -13    1    3    3    0    0 -0.46732895634E+01 -0.88411562224E+01  0.57915545738E+01  0.11556770983E+02  0.10570000000E+00 0.  1.
         13    1    3    3    0    0  0.46732895634E+01  0.88411562224E+01  0.59155539136E+01  0.11619407441E+02  0.10570000000E+00 0. -1.
<mgrwt>
<rscale>  0 0.20001971E+02</rscale>
<asrwt>0</asrwt>
<pdfrwt beam="2">  1        4 0.88223614E-03 0.20001971E+02</pdfrwt>
<pdfrwt beam="1">  1       -4 0.26833298E-02 0.20001971E+02</pdfrwt>
<totfact> 0.12825930E+06</totfact>
</mgrwt>
</event>
<event>
 5    1  0.4710515E-007  0.2000472E+02  0.7818608E-02  0.1745234E+00
         -4   -1    0    0    0  501 -0.00000000000E+00  0.00000000000E+00  0.74214451983E+02  0.74228035695E+02  0.14200000000E+01 0.  1.
          4   -1    0    0  501    0  0.00000000000E+00 -0.00000000000E+00 -0.95655173517E+00  0.17121306089E+01  0.14200000000E+01 0. -1.
       1023    2    1    2    0    0  0.00000000000E+00  0.00000000000E+00  0.73257900248E+02  0.75940166304E+02  0.20004722181E+02 0.  0.
        -13    1    3    3    0    0  0.10001320396E+02  0.95048436942E-01  0.36535114394E+02  0.37879561774E+02  0.10570000000E+00 0. -1.
         13    1    3    3    0    0 -0.10001320396E+02 -0.95048436942E-01  0.36722785853E+02  0.38060604530E+02  0.10570000000E+00 0.  1.
<mgrwt>
<rscale>  0 0.20004722E+02</rscale>
<asrwt>0</asrwt>
<pdfrwt beam="2">  1        4 0.20632814E-03 0.20004722E+02</pdfrwt>
<pdfrwt beam="1">  1       -4 0.11476776E-01 0.20004722E+02</pdfrwt>
<totfact> 0.10540920E+06</totfact>
</mgrwt>
</event>
<event>
 4    1  0.4710515E-007  0.2017856E+02  0.7818608E-02  0.1741800E+00
         -4   -1    0    0    0  501 -0.00000000000E+00  0.00000000000E+00  0.72241826547E+01  0.73624191016E+01  0.14200000000E+01 0. -1.
          4   -1    0    0  501    0  0.00000000000E+00 -0.00000000000E+00 -0.13782077878E+02  0.13855037734E+02  0.14200000000E+01 0.  1.
        -13    1    1    2    0    0 -0.96827101912E+01  0.27427229031E+01 -0.40261999659E+01  0.10839689305E+02  0.10570000000E+00 0.  1.
         13    1    1    2    0    0  0.96827101912E+01 -0.27427229031E+01 -0.25316952569E+01  0.10377767531E+02  0.10570000000E+00 0. -1.
<mgrwt>
<rscale>  0 0.20178565E+02</rscale>
<asrwt>0</asrwt>
<pdfrwt beam="2">  1        4 0.21365655E-02 0.20178565E+02</pdfrwt>
<pdfrwt beam="1">  1       -4 0.11276586E-02 0.20178565E+02</pdfrwt>
<totfact> 0.12709101E+06</totfact>
</mgrwt>
</event>
<event>
 5    1  0.4710515E-007  0.2000129E+02  0.7818608E-02  0.1745302E+00
         -4   -1    0    0    0  501 -0.00000000000E+00  0.00000000000E+00  0.10926015051E+03  0.10926937763E+03  0.14200000000E+01 0.  1.
          4   -1    0    0  501    0  0.00000000000E+00 -0.00000000000E+00 -0.34972001001E+00  0.14624308823E+01  0.14200000000E+01 0. -1.
       1023    2    1    2    0    0  0.00000000000E+00  0.00000000000E+00  0.10891043050E+03  0.11073180852E+03  0.20001288622E+02 0.  0.
        -13    1    3    3    0    0 -0.70798481446E+01 -0.70623735428E+01  0.54557947151E+02  0.55466946370E+02  0.10570000000E+00 0.  1.
         13    1    3    3    0    0  0.70798481446E+01  0.70623735428E+01  0.54352483345E+02  0.55264862146E+02  0.10570000000E+00 0. -1.
<mgrwt>
<rscale>  0 0.20001289E+02</rscale>
<asrwt>0</asrwt>
<pdfrwt beam="2">  1        4 0.14010608E-03 0.20001289E+02</pdfrwt>
<pdfrwt beam="1">  1       -4 0.16895547E-01 0.20001289E+02</pdfrwt>
<totfact> 0.95045528E+05</totfact>
</mgrwt>
</event>
<event>
 5    1  0.4710515E-007  0.2000212E+02  0.7818608E-02  0.1745286E+00
          4   -1    0    0  501    0  0.00000000000E+00  0.00000000000E+00  0.81963681394E+00  0.16395744895E+01  0.14200000000E+01 0. -1.
         -4   -1    0    0    0  501 -0.00000000000E+00 -0.00000000000E+00 -0.80515840333E+02  0.80528361119E+02  0.14200000000E+01 0.  1.
       1023    2    1    2    0    0  0.00000000000E+00  0.00000000000E+00 -0.79696203519E+02  0.82167935608E+02  0.20002119559E+02 0.  0.
        -13    1    3    3    0    0 -0.63087903125E+01 -0.77594288352E+01 -0.39760652980E+02  0.40999149613E+02  0.10570000000E+00 0.  1.
         13    1    3    3    0    0  0.63087903125E+01  0.77594288352E+01 -0.39935550538E+02  0.41168785995E+02  0.10570000000E+00 0. -1.
<mgrwt>
<rscale>  0 0.20002120E+02</rscale>
<asrwt>0</asrwt>
<pdfrwt beam="1">  1        4 0.19013330E-03 0.20002120E+02</pdfrwt>
<pdfrwt beam="2">  1       -4 0.12451083E-01 0.20002120E+02</pdfrwt>
<totfact> 0.10338673E+06</totfact>
</mgrwt>
</event>
<event>
 5    1  0.4710515E-007  0.2000772E+02  0.7818608E-02  0.1745175E+00
         -4   -1    0    0    0  501 -0.00000000000E+00  0.00000000000E+00  0.56567426508E+01  0.58322497733E+01  0.14200000000E+01 0.  1.
          4   -1    0    0  501    0  0.00000000000E+00 -0.00000000000E+00 -0.17216220153E+02  0.17274681947E+02  0.14200000000E+01 0. -1.
       1023    2    1    2    0    0  0.00000000000E+00  0.00000000000E+00 -0.11559477503E+02  0.23106931720E+02  0.20007717846E+02 0.  0.
        -13    1    3    3    0    0  0.84532804704E+01 -0.53447425466E+01 -0.60158510564E+01  0.11671583441E+02  0.10570000000E+00 0.  1.
         13    1    3    3    0    0 -0.84532804704E+01  0.53447425466E+01 -0.55436264462E+01  0.11435348279E+02  0.10570000000E+00 0. -1.
<mgrwt>
<rscale>  0 0.20007718E+02</rscale>
<asrwt>0</asrwt>
<pdfrwt beam="2">  1        4 0.26666468E-02 0.20007718E+02</pdfrwt>
<pdfrwt beam="1">  1       -4 0.88826572E-03 0.20007718E+02</pdfrwt>
<totfact> 0.12822374E+06</totfact>
</mgrwt>
</event>
<event>
 5    1  0.4710515E-007  0.2000207E+02  0.7818608E-02  0.1745287E+00
          4   -1    0    0  501    0  0.00000000000E+00  0.00000000000E+00  0.11437590025E+03  0.11438471470E+03  0.14200000000E+01 0.  1.
         -4   -1    0    0    0  501 -0.00000000000E+00 -0.00000000000E+00 -0.28326344340E+00  0.14479772714E+01  0.14200000000E+01 0. -1.
       1023    2    1    2    0    0  0.00000000000E+00  0.00000000000E+00  0.11409263681E+03  0.11583269198E+03  0.20002068814E+02 0.  0.
        -13    1    3    3    0    0 -0.98838490573E+01 -0.15224297108E+01  0.57251251671E+02  0.58118200719E+02  0.10570000000E+00 0.  1.
         13    1    3    3    0    0  0.98838490573E+01  0.15224297108E+01  0.56841385135E+02  0.57714491256E+02  0.10570000000E+00 0. -1.
<mgrwt>
<rscale>  0 0.20002069E+02</rscale>
<asrwt>0</asrwt>
<pdfrwt beam="1">  1        4 0.17686566E-01 0.20002069E+02</pdfrwt>
<pdfrwt beam="2">  1       -4 0.13385038E-03 0.20002069E+02</pdfrwt>
<totfact> 0.93701230E+05</totfact>
</mgrwt>
</event>
<event>
 4    1  0.4710515E-007  0.2008131E+02  0.7818608E-02  0.1743716E+00
         -4   -1    0    0    0  501 -0.00000000000E+00  0.00000000000E+00  0.11634227809E+02  0.11720565546E+02  0.14200000000E+01 0.  1.
          4   -1    0    0  501    0  0.00000000000E+00 -0.00000000000E+00 -0.84877845725E+01  0.86057473208E+01  0.14200000000E+01 0.  1.
        -13    1    1    2    0    0  0.95465493942E+01 -0.30343456608E+01  0.22594989248E+01  0.10269389797E+02  0.10570000000E+00 0. -1.
         13    1    1    2    0    0 -0.95465493942E+01  0.30343456608E+01  0.88694431195E+00  0.10056923070E+02  0.10570000000E+00 0.  1.
<mgrwt>
<rscale>  0 0.20081307E+02</rscale>
<asrwt>0</asrwt>
<pdfrwt beam="2">  1        4 0.13215284E-02 0.20081307E+02</pdfrwt>
<pdfrwt beam="1">  1       -4 0.18055966E-02 0.20081307E+02</pdfrwt>
<totfact> 0.12887406E+06</totfact>
</mgrwt>
</event>
<event>
 5    1  0.4710515E-007  0.2000208E+02  0.7818608E-02  0.1745287E+00
         -4   -1    0    0    0  501 -0.00000000000E+00  0.00000000000E+00  0.31253543740E+00  0.14539870700E+01  0.14200000000E+01 0. -1.
          4   -1    0    0  501    0  0.00000000000E+00 -0.00000000000E+00 -0.11209145453E+03  0.11210044861E+03  0.14200000000E+01 0.  1.
       1023    2    1    2    0    0  0.00000000000E+00  0.00000000000E+00 -0.11177891909E+03  0.11355443568E+03  0.20002077621E+02 0.  0.
        -13    1    3    3    0    0  0.24082380761E+01 -0.97060367333E+01 -0.55586644262E+02  0.56479137321E+02  0.10570000000E+00 0. -1.
         13    1    3    3    0    0 -0.24082380761E+01  0.97060367333E+01 -0.56192274827E+02  0.57075298356E+02  0.10570000000E+00 0.  1.
<mgrwt>
<rscale>  0 0.20002078E+02</rscale>
<asrwt>0</asrwt>
<pdfrwt beam="2">  1        4 0.17333324E-01 0.20002078E+02</pdfrwt>
<pdfrwt beam="1">  1       -4 0.13657829E-03 0.20002078E+02</pdfrwt>
<totfact> 0.94293159E+05</totfact>
</mgrwt>
</event>
<event>
 4    1  0.4710515E-007  0.2002538E+02  0.7818608E-02  0.1744824E+00
          4   -1    0    0  501    0  0.00000000000E+00  0.00000000000E+00  0.35238766447E+02  0.35267365378E+02  0.14200000000E+01 0.  1.
         -4   -1    0    0    0  501 -0.00000000000E+00 -0.00000000000E+00 -0.26361004523E+01  0.29942320542E+01  0.14200000000E+01 0. -1.
        -13    1    1    2    0    0 -0.84076425284E+01  0.54306540823E+01  0.15824155259E+02  0.18724196079E+02  0.10570000000E+00 0. -1.
         13    1    1    2    0    0  0.84076425284E+01 -0.54306540823E+01  0.16778510736E+02  0.19537401353E+02  0.10570000000E+00 0.  1.
<mgrwt>
<rscale>  0 0.20025384E+02</rscale>
<asrwt>0</asrwt>
<pdfrwt beam="1">  1        4 0.54510969E-02 0.20025384E+02</pdfrwt>
<pdfrwt beam="2">  1       -4 0.43530244E-03 0.20025384E+02</pdfrwt>
<totfact> 0.12013397E+06</totfact>
</mgrwt>
</event>
<event>
 5    1  0.4710515E-007  0.2000932E+02  0.7818608E-02  0.1745143E+00
         -4   -1    0    0    0  501 -0.00000000000E+00  0.00000000000E+00  0.81301479750E+01  0.82532239819E+01  0.14200000000E+01 0. -1.
          4   -1    0    0  501    0  0.00000000000E+00 -0.00000000000E+00 -0.12053815119E+02  0.12137168489E+02  0.14200000000E+01 0.  1.
       1023    2    1    2    0    0  0.00000000000E+00  0.00000000000E+00 -0.39236671441E+01  0.20390392471E+02  0.20009321359E+02 0.  0.
        -13    1    3    3    0    0 -0.82926421454E+01  0.55936591407E+01 -0.21233657809E+01  0.10226279434E+02  0.10570000000E+00 0. -1.
         13    1    3    3    0    0  0.82926421454E+01 -0.55936591407E+01 -0.18003013633E+01  0.10164113037E+02  0.10570000000E+00 0.  1.
<mgrwt>
<rscale>  0 0.20009321E+02</rscale>
<asrwt>0</asrwt>
<pdfrwt beam="2">  1        4 0.18703123E-02 0.20009321E+02</pdfrwt>
<pdfrwt beam="1">  1       -4 0.12666712E-02 0.20009321E+02</pdfrwt>
<totfact> 0.12978469E+06</totfact>
</mgrwt>
</event>
<event>
 5    1  0.4710515E-007  0.2000602E+02  0.7818608E-02  0.1745208E+00
         -4   -1    0    0    0  501 -0.00000000000E+00  0.00000000000E+00  0.14230179492E+02  0.14300853414E+02  0.14200000000E+01 0.  1.
          4   -1    0    0  501    0  0.00000000000E+00 -0.00000000000E+00 -0.68706763855E+01  0.70158815550E+01  0.14200000000E+01 0. -1.
       1023    2    1    2    0    0  0.00000000000E+00  0.00000000000E+00  0.73595031064E+01  0.21316734969E+02  0.20006021688E+02 0.  0.
        -13    1    3    3    0    0  0.96810118333E+01  0.25141132374E+01  0.35951924940E+01  0.10629173865E+02  0.10570000000E+00 0. -1.
         13    1    3    3    0    0 -0.96810118333E+01 -0.25141132374E+01  0.37643106124E+01  0.10687561105E+02  0.10570000000E+00 0.  1.
<mgrwt>
<rscale>  0 0.20006022E+02</rscale>
<asrwt>0</asrwt>
<pdfrwt beam="2">  1        4 0.10736332E-02 0.20006022E+02</pdfrwt>
<pdfrwt beam="1">  1       -4 0.22058644E-02 0.20006022E+02</pdfrwt>
<totfact> 0.12928164E+06</totfact>
</mgrwt>
</event>
<event>
 5    1  0.4710515E-007  0.2000161E+02  0.7818608E-02  0.1745296E+00
         -4   -1    0    0    0  501 -0.00000000000E+00  0.00000000000E+00  0.10055375050E+01  0.17399728946E+01  0.14200000000E+01 0. -1.
          4   -1    0    0  501    0  0.00000000000E+00 -0.00000000000E+00 -0.72114621440E+02  0.72128600607E+02  0.14200000000E+01 0.  1.
       1023    2    1    2    0    0  0.00000000000E+00  0.00000000000E+00 -0.71109083936E+02  0.73868573501E+02  0.20001608260E+02 0.  0.
        -13    1    3    3    0    0 -0.23377423320E+01  0.97229988587E+01 -0.35762302866E+02  0.37134286378E+02  0.10570000000E+00 0.  1.
         13    1    3    3    0    0  0.23377423320E+01 -0.97229988587E+01 -0.35346781070E+02  0.36734287124E+02  0.10570000000E+00 0. -1.
<mgrwt>
<rscale>  0 0.20001608E+02</rscale>
<asrwt>0</asrwt>
<pdfrwt beam="2">  1        4 0.11152125E-01 0.20001608E+02</pdfrwt>
<pdfrwt beam="1">  1       -4 0.21226848E-03 0.20001608E+02</pdfrwt>
<totfact> 0.10614585E+06</totfact>
</mgrwt>
</event>
<event>
 4    1  0.4710515E-007  0.2002980E+02  0.7818608E-02  0.1744736E+00
         -4   -1    0    0    0  501 -0.00000000000E+00  0.00000000000E+00  0.20430464027E+02  0.20479752449E+02  0.14200000000E+01 0.  1.
          4   -1    0    0  501    0  0.00000000000E+00 -0.00000000000E+00 -0.47500676615E+01  0.49577759922E+01  0.14200000000E+01 0. -1.
        -13    1    1    2    0    0  0.96104006341E+01 -0.28103881214E+01  0.80564743280E+01  0.12852082821E+02  0.10570000000E+00 0. -1.
         13    1    1    2    0    0 -0.96104006341E+01  0.28103881214E+01  0.76239220377E+01  0.12585445621E+02  0.10570000000E+00 0.  1.
<mgrwt>
<rscale>  0 0.20029803E+02</rscale>
<asrwt>0</asrwt>
<pdfrwt beam="2">  1        4 0.75054863E-03 0.20029803E+02</pdfrwt>
<pdfrwt beam="1">  1       -4 0.31629172E-02 0.20029803E+02</pdfrwt>
<totfact> 0.12662795E+06</totfact>
</mgrwt>
</event>
<event>
 4    1  0.4710515E-007  0.2001274E+02  0.7818608E-02  0.1745075E+00
          4   -1    0    0  501    0  0.00000000000E+00  0.00000000000E+00  0.26584798833E+02  0.26622695750E+02  0.14200000000E+01 0. -1.
         -4   -1    0    0    0  501 -0.00000000000E+00 -0.00000000000E+00 -0.35903621580E+01  0.38609714355E+01  0.14200000000E+01 0.  1.
        -13    1    1    2    0    0  0.76075609868E+01  0.64970946143E+01  0.11237526476E+02  0.15045942854E+02  0.10570000000E+00 0.  1.
         13    1    1    2    0    0 -0.76075609868E+01 -0.64970946143E+01  0.11756910199E+02  0.15437724331E+02  0.10570000000E+00 0. -1.
<mgrwt>
<rscale>  0 0.20012742E+02</rscale>
<asrwt>0</asrwt>
<pdfrwt beam="1">  1        4 0.41137004E-02 0.20012742E+02</pdfrwt>
<pdfrwt beam="2">  1       -4 0.57609464E-03 0.20012742E+02</pdfrwt>
<totfact> 0.12414480E+06</totfact>
</mgrwt>
</event>
<event>
 5    1  0.4710515E-007  0.2000415E+02  0.7818608E-02  0.1745246E+00
          4   -1    0    0  501    0  0.00000000000E+00  0.00000000000E+00  0.62706704302E+02  0.62722780267E+02  0.14200000000E+01 0.  1.
         -4   -1    0    0    0  501 -0.00000000000E+00 -0.00000000000E+00 -0.12598269578E+01  0.18983055506E+01  0.14200000000E+01 0. -1.
       1023    2    1    2    0    0  0.00000000000E+00  0.00000000000E+00  0.61446877344E+02  0.64621085817E+02  0.20004149492E+02 0.  0.
        -13    1    3    3    0    0 -0.85863323389E+01  0.51265070492E+01  0.31225440492E+02  0.32787886238E+02  0.10570000000E+00 0.  1.
         13    1    3    3    0    0  0.85863323389E+01 -0.51265070492E+01  0.30221436852E+02  0.31833199579E+02  0.10570000000E+00 0. -1.
<mgrwt>
<rscale>  0 0.20004149E+02</rscale>
<asrwt>0</asrwt>
<pdfrwt beam="1">  1        4 0.96975359E-02 0.20004149E+02</pdfrwt>
<pdfrwt beam="2">  1       -4 0.24416988E-03 0.20004149E+02</pdfrwt>
<totfact> 0.10940365E+06</totfact>
</mgrwt>
</event>
<event>
 5    1  0.4710515E-007  0.2000530E+02  0.7818608E-02  0.1745223E+00
          4   -1    0    0  501    0  0.00000000000E+00  0.00000000000E+00  0.44496039261E+02  0.44518691692E+02  0.14200000000E+01 0. -1.
         -4   -1    0    0    0  501 -0.00000000000E+00 -0.00000000000E+00 -0.19987689258E+01  0.24518314010E+01  0.14200000000E+01 0.  1.
       1023    2    1    2    0    0  0.00000000000E+00  0.00000000000E+00  0.42497270335E+02  0.46970523093E+02  0.20005300638E+02 0.  0.
        -13    1    3    3    0    0 -0.19566365534E+01 -0.98075020646E+01  0.20867741985E+02  0.23140642848E+02  0.10570000000E+00 0. -1.
         13    1    3    3    0    0  0.19566365534E+01  0.98075020646E+01  0.21629528350E+02  0.23829880245E+02  0.10570000000E+00 0.  1.
<mgrwt>
<rscale>  0 0.20005301E+02</rscale>
<asrwt>0</asrwt>
<pdfrwt beam="1">  1        4 0.68821371E-02 0.20005301E+02</pdfrwt>
<pdfrwt beam="2">  1       -4 0.34409641E-03 0.20005301E+02</pdfrwt>
<totfact> 0.11643314E+06</totfact>
</mgrwt>
</event>
<event>
 5    1  0.4710515E-007  0.2000125E+02  0.7818608E-02  0.1745303E+00
         -4   -1    0    0    0  501 -0.00000000000E+00  0.00000000000E+00  0.20659321222E+01  0.25068856243E+01  0.14200000000E+01 0.  1.
          4   -1    0    0  501    0  0.00000000000E+00 -0.00000000000E+00 -0.43288452290E+02  0.43311736304E+02  0.14200000000E+01 0. -1.
       1023    2    1    2    0    0  0.00000000000E+00  0.00000000000E+00 -0.41222520168E+02  0.45818621929E+02  0.20001248622E+02 0.  0.
        -13    1    3    3    0    0 -0.87027165592E+01 -0.49257462405E+01 -0.20536586691E+02  0.22842128117E+02  0.10570000000E+00 0.  1.
         13    1    3    3    0    0  0.87027165592E+01  0.49257462405E+01 -0.20685933477E+02  0.22976493811E+02  0.10570000000E+00 0. -1.
<mgrwt>
<rscale>  0 0.20001249E+02</rscale>
<asrwt>0</asrwt>
<pdfrwt beam="2">  1        4 0.66954718E-02 0.20001249E+02</pdfrwt>
<pdfrwt beam="1">  1       -4 0.35354632E-03 0.20001249E+02</pdfrwt>
<totfact> 0.11698286E+06</totfact>
</mgrwt>
</event>
<event>
 5    1  0.4710515E-007  0.2000269E+02  0.7818608E-02  0.1745274E+00
          4   -1    0    0  501    0  0.00000000000E+00  0.00000000000E+00  0.28461759866E+01  0.31807416976E+01  0.14200000000E+01 0.  1.
         -4   -1    0    0    0  501 -0.00000000000E+00 -0.00000000000E+00 -0.32842642126E+02  0.32873325688E+02  0.14200000000E+01 0. -1.
       1023    2    1    2    0    0  0.00000000000E+00  0.00000000000E+00 -0.29996466139E+02  0.36054067386E+02  0.20002694674E+02 0.  0.
        -13    1    3    3    0    0  0.78084133790E+01 -0.62483559794E+01 -0.15088430357E+02  0.18102076541E+02  0.10570000000E+00 0. -1.
         13    1    3    3    0    0 -0.78084133790E+01  0.62483559794E+01 -0.14908035782E+02  0.17951990845E+02  0.10570000000E+00 0.  1.
<mgrwt>
<rscale>  0 0.20002695E+02</rscale>
<asrwt>0</asrwt>
<pdfrwt beam="1">  1        4 0.46596935E-03 0.20002695E+02</pdfrwt>
<pdfrwt beam="2">  1       -4 0.50808100E-02 0.20002695E+02</pdfrwt>
<totfact> 0.12147060E+06</totfact>
</mgrwt>
</event>
<event>
 5    1  0.4710515E-007  0.2000496E+02  0.7818608E-02  0.1745229E+00
          4   -1    0    0  501    0  0.00000000000E+00  0.00000000000E+00  0.15207225328E+01  0.20806241904E+01  0.14200000000E+01 0.  1.
         -4   -1    0    0    0  501 -0.00000000000E+00 -0.00000000000E+00 -0.54991833413E+02  0.55010163989E+02  0.14200000000E+01 0. -1.
       1023    2    1    2    0    0  0.00000000000E+00  0.00000000000E+00 -0.53471110880E+02  0.57090788179E+02  0.20004959290E+02 0.  0.
        -13    1    3    3    0    0  0.61195551674E+01 -0.79092137150E+01 -0.27260299942E+02  0.29036868675E+02  0.10570000000E+00 0.  1.
         13    1    3    3    0    0 -0.61195551674E+01  0.79092137150E+01 -0.26210810938E+02  0.28053919505E+02  0.10570000000E+00 0. -1.
<mgrwt>
<rscale>  0 0.20004959E+02</rscale>
<asrwt>0</asrwt>
<pdfrwt beam="1">  1        4 0.27843676E-03 0.20004959E+02</pdfrwt>
<pdfrwt beam="2">  1       -4 0.85047602E-02 0.20004959E+02</pdfrwt>
<totfact> 0.11226257E+06</totfact>
</mgrwt>
</event>
<event>
 5    1  0.4710515E-007  0.2000175E+02  0.7818608E-02  0.1745293E+00
          4   -1    0    0  501    0  0.00000000000E+00  0.00000000000E+00  0.16684786700E+02  0.16745103977E+02  0.14200000000E+01 0.  1.
         -4   -1    0    0    0  501 -0.00000000000E+00 -0.00000000000E+00 -0.58381420929E+01  0.60083527774E+01  0.14200000000E+01 0. -1.
       1023    2    1    2    0    0  0.00000000000E+00  0.00000000000E+00  0.10846644607E+02  0.22753456755E+02  0.20001752300E+02 0.  0.
        -13    1    3    3    0    0 -0.82092489761E+01  0.57109104302E+01  0.54128602233E+01  0.11371741071E+02  0.10570000000E+00 0. -1.
         13    1    3    3    0    0  0.82092489761E+01 -0.57109104302E+01  0.54337843833E+01  0.11381715684E+02  0.10570000000E+00 0.  1.
<mgrwt>
<rscale>  0 0.20001752E+02</rscale>
<asrwt>0</asrwt>
<pdfrwt beam="1">  1        4 0.25846232E-02 0.20001752E+02</pdfrwt>
<pdfrwt beam="2">  1       -4 0.91590862E-03 0.20001752E+02</pdfrwt>
<totfact> 0.12850417E+06</totfact>
</mgrwt>
</event>
<event>
 4    1  0.4710515E-007  0.2002404E+02  0.7818608E-02  0.1744850E+00
         -4   -1    0    0    0  501 -0.00000000000E+00  0.00000000000E+00  0.82166865660E+02  0.82179134897E+02  0.14200000000E+01 0. -1.
          4   -1    0    0  501    0  0.00000000000E+00 -0.00000000000E+00 -0.79012252968E+00  0.16250211112E+01  0.14200000000E+01 0.  1.
        -13    1    1    2    0    0  0.87180036227E+01  0.49207145035E+01  0.40222902580E+02  0.41450091469E+02  0.10570000000E+00 0. -1.
         13    1    1    2    0    0 -0.87180036227E+01 -0.49207145035E+01  0.41153840551E+02  0.42354064539E+02  0.10570000000E+00 0.  1.
<mgrwt>
<rscale>  0 0.20024042E+02</rscale>
<asrwt>0</asrwt>
<pdfrwt beam="2">  1        4 0.18672401E-03 0.20024042E+02</pdfrwt>
<pdfrwt beam="1">  1       -4 0.12706227E-01 0.20024042E+02</pdfrwt>
<totfact> 0.10263842E+06</totfact>
</mgrwt>
</event>
<event>
 5    1  0.4710515E-007  0.2000145E+02  0.7818608E-02  0.1745299E+00
          4   -1    0    0  501    0  0.00000000000E+00  0.00000000000E+00  0.66325392046E+00  0.15672605919E+01  0.14200000000E+01 0. -1.
         -4   -1    0    0    0  501 -0.00000000000E+00 -0.00000000000E+00 -0.88766457126E+02  0.88777814293E+02  0.14200000000E+01 0.  1.
       1023    2    1    2    0    0  0.00000000000E+00  0.00000000000E+00 -0.88103203205E+02  0.90345074885E+02  0.20001453471E+02 0.  0.
        -13    1    3    3    0    0  0.67097196313E+01  0.74149282719E+01 -0.44246612431E+02  0.45362709167E+02  0.10570000000E+00 0. -1.
         13    1    3    3    0    0 -0.67097196313E+01 -0.74149282719E+01 -0.43856590774E+02  0.44982365718E+02  0.10570000000E+00 0.  1.
<mgrwt>
<rscale>  0 0.20001453E+02</rscale>
<asrwt>0</asrwt>
<pdfrwt beam="1">  1        4 0.17245174E-03 0.20001453E+02</pdfrwt>
<pdfrwt beam="2">  1       -4 0.13726785E-01 0.20001453E+02</pdfrwt>
<totfact> 0.10083745E+06</totfact>
</mgrwt>
</event>
<event>
 5    1  0.4719195E-007  0.2000208E+02  0.7818608E-02  0.1745287E+00
          4   -1    0    0  501    0  0.00000000000E+00  0.00000000000E+00  0.31800282774E+02  0.31831971106E+02  0.14200000000E+01 0.  1.
         -4   -1    0    0    0  501 -0.00000000000E+00 -0.00000000000E+00 -0.29499576756E+01  0.32739349853E+01  0.14200000000E+01 0. -1.
       1023    2    1    2    0    0  0.00000000000E+00  0.00000000000E+00  0.28850325098E+02  0.35105906092E+02  0.20002084497E+02 0.  0.
        -13    1    3    3    0    0  0.53854398069E+01 -0.84263680127E+01  0.14328491578E+02  0.17473508039E+02  0.10570000000E+00 0. -1.
         13    1    3    3    0    0 -0.53854398069E+01  0.84263680127E+01  0.14521833520E+02  0.17632398052E+02  0.10570000000E+00 0.  1.
<mgrwt>
<rscale>  0 0.20002084E+02</rscale>
<asrwt>0</asrwt>
<pdfrwt beam="1">  1        4 0.49197100E-02 0.20002084E+02</pdfrwt>
<pdfrwt beam="2">  1       -4 0.48119855E-03 0.20002084E+02</pdfrwt>
<totfact> 0.12194197E+06</totfact>
</mgrwt>
</event>
<event>
 5    1  0.4710515E-007  0.2000447E+02  0.7818608E-02  0.1745239E+00
          4   -1    0    0  501    0  0.00000000000E+00  0.00000000000E+00  0.18735464114E+02  0.18789199440E+02  0.14200000000E+01 0. -1.
         -4   -1    0    0    0  501 -0.00000000000E+00 -0.00000000000E+00 -0.51828339574E+01  0.53738410686E+01  0.14200000000E+01 0.  1.
       1023    2    1    2    0    0  0.00000000000E+00  0.00000000000E+00  0.13552630157E+02  0.24163040508E+02  0.20004468062E+02 0.  0.
        -13    1    3    3    0    0  0.87166743815E+01 -0.49020075695E+01  0.65914552984E+01  0.11977835611E+02  0.10570000000E+00 0. -1.
         13    1    3    3    0    0 -0.87166743815E+01  0.49020075695E+01  0.69611748587E+01  0.12185204897E+02  0.10570000000E+00 0.  1.
<mgrwt>
<rscale>  0 0.20004468E+02</rscale>
<asrwt>0</asrwt>
<pdfrwt beam="1">  1        4 0.29012054E-02 0.20004468E+02</pdfrwt>
<pdfrwt beam="2">  1       -4 0.81618543E-03 0.20004468E+02</pdfrwt>
<totfact> 0.12766761E+06</totfact>
</mgrwt>
</event>
<event>
 4    1  0.4710515E-007  0.2019130E+02  0.7818608E-02  0.1741550E+00
         -4   -1    0    0    0  501 -0.00000000000E+00  0.00000000000E+00  0.32693614859E+01  0.35644248520E+01  0.14200000000E+01 0. -1.
          4   -1    0    0  501    0  0.00000000000E+00 -0.00000000000E+00 -0.29516024980E+02  0.29550162954E+02  0.14200000000E+01 0.  1.
        -13    1    1    2    0    0 -0.10088039590E+02 -0.31473487916E+00 -0.13464885838E+02  0.16828010100E+02  0.10570000000E+00 0. -1.
         13    1    1    2    0    0  0.10088039590E+02  0.31473487916E+00 -0.12781777656E+02  0.16286577706E+02  0.10570000000E+00 0.  1.
<mgrwt>
<rscale>  0 0.20191300E+02</rscale>
<asrwt>0</asrwt>
<pdfrwt beam="2">  1        4 0.45662499E-02 0.20191300E+02</pdfrwt>
<pdfrwt beam="1">  1       -4 0.52830189E-03 0.20191300E+02</pdfrwt>
<totfact> 0.12060369E+06</totfact>
</mgrwt>
</event>
<event>
 5    1  0.4710515E-007  0.2000334E+02  0.7818608E-02  0.1745262E+00
          4   -1    0    0  501    0  0.00000000000E+00  0.00000000000E+00  0.13147015969E+01  0.19351589829E+01  0.14200000000E+01 0. -1.
         -4   -1    0    0    0  501 -0.00000000000E+00 -0.00000000000E+00 -0.60931350438E+02  0.60947894683E+02  0.14200000000E+01 0.  1.
       1023    2    1    2    0    0  0.00000000000E+00  0.00000000000E+00 -0.59616648841E+02  0.62883053665E+02  0.20003340201E+02 0.  0.
        -13    1    3    3    0    0 -0.79850709943E+01  0.60216984803E+01 -0.29822710106E+02  0.31455165266E+02  0.10570000000E+00 0.  1.
         13    1    3    3    0    0  0.79850709943E+01 -0.60216984803E+01 -0.29793938736E+02  0.31427888400E+02  0.10570000000E+00 0. -1.
<mgrwt>
<rscale>  0 0.20003340E+02</rscale>
<asrwt>0</asrwt>
<pdfrwt beam="1">  1        4 0.25126196E-03 0.20003340E+02</pdfrwt>
<pdfrwt beam="2">  1       -4 0.94230523E-02 0.20003340E+02</pdfrwt>
<totfact> 0.11005840E+06</totfact>
</mgrwt>
</event>
<event>
 5    1  0.4710515E-007  0.2000543E+02  0.7818608E-02  0.1745220E+00
          4   -1    0    0  501    0  0.00000000000E+00  0.00000000000E+00  0.10565870479E+03  0.10566824640E+03  0.14200000000E+01 0. -1.
         -4   -1    0    0    0  501 -0.00000000000E+00 -0.00000000000E+00 -0.39955589481E+00  0.14751423365E+01  0.14200000000E+01 0.  1.
       1023    2    1    2    0    0  0.00000000000E+00  0.00000000000E+00  0.10525914889E+03  0.10714338874E+03  0.20005432374E+02 0.  0.
        -13    1    3    3    0    0 -0.20035541764E+01 -0.97980420666E+01  0.53514499150E+02  0.54441056653E+02  0.10570000000E+00 0. -1.
         13    1    3    3    0    0  0.20035541764E+01  0.97980420666E+01  0.51744649745E+02  0.52702332086E+02  0.10570000000E+00 0.  1.
<mgrwt>
<rscale>  0 0.20005432E+02</rscale>
<asrwt>0</asrwt>
<pdfrwt beam="1">  1        4 0.16338669E-01 0.20005432E+02</pdfrwt>
<pdfrwt beam="2">  1       -4 0.14494142E-03 0.20005432E+02</pdfrwt>
<totfact> 0.95971892E+05</totfact>
</mgrwt>
</event>
<event>
 5    1  0.4710515E-007  0.2000515E+02  0.7818608E-02  0.1745226E+00
         -4   -1    0    0    0  501 -0.00000000000E+00  0.00000000000E+00  0.39539472410E+02  0.39564962763E+02  0.14200000000E+01 0. -1.
          4   -1    0    0  501    0  0.00000000000E+00 -0.00000000000E+00 -0.23027376221E+01  0.27053651429E+01  0.14200000000E+01 0.  1.
       1023    2    1    2    0    0  0.00000000000E+00  0.00000000000E+00  0.37236734788E+02  0.42270327906E+02  0.20005154426E+02 0.  0.
        -13    1    3    3    0    0 -0.80415667773E+01  0.59462253597E+01  0.18885523879E+02  0.21370507176E+02  0.10570000000E+00 0.  1.
         13    1    3    3    0    0  0.80415667773E+01 -0.59462253597E+01  0.18351210908E+02  0.20899820730E+02  0.10570000000E+00 0. -1.
<mgrwt>
<rscale>  0 0.20005154E+02</rscale>
<asrwt>0</asrwt>
<pdfrwt beam="2">  1        4 0.38719947E-03 0.20005154E+02</pdfrwt>
<pdfrwt beam="1">  1       -4 0.61159279E-02 0.20005154E+02</pdfrwt>
<totfact> 0.11852049E+06</totfact>
</mgrwt>
</event>
<event>
 5    1  0.4891952E-007  0.2000239E+02  0.7818608E-02  0.1745280E+00
         -4   -1    0    0    0  501 -0.00000000000E+00  0.00000000000E+00  0.82128683715E+01  0.83347229641E+01  0.14200000000E+01 0. -1.
          4   -1    0    0  501    0  0.00000000000E+00 -0.00000000000E+00 -0.11924956758E+02  0.12009204540E+02  0.14200000000E+01 0.  1.
       1023    2    1    2    0    0  0.00000000000E+00  0.00000000000E+00 -0.37120883865E+01  0.20343927504E+02  0.20002394509E+02 0.  0.
        -13    1    3    3    0    0 -0.98053815239E+01  0.19640866172E+01 -0.19558573350E+01  0.10190176322E+02  0.10570000000E+00 0.  1.
         13    1    3    3    0    0  0.98053815239E+01 -0.19640866172E+01 -0.17562310516E+01  0.10153751182E+02  0.10570000000E+00 0. -1.
<mgrwt>
<rscale>  0 0.20002395E+02</rscale>
<asrwt>0</asrwt>
<pdfrwt beam="2">  1        4 0.18504628E-02 0.20002395E+02</pdfrwt>
<pdfrwt beam="1">  1       -4 0.12793722E-02 0.20002395E+02</pdfrwt>
<totfact> 0.12990403E+06</totfact>
</mgrwt>
</event>
<event>
 4    1  0.4710515E-007  0.2001403E+02  0.7818608E-02  0.1745049E+00
          4   -1    0    0  501    0  0.00000000000E+00  0.00000000000E+00  0.75841702224E+01  0.77159599508E+01  0.14200000000E+01 0. -1.
         -4   -1    0    0    0  501 -0.00000000000E+00 -0.00000000000E+00 -0.12919107090E+02  0.12996912249E+02  0.14200000000E+01 0.  1.
        -13    1    1    2    0    0  0.79454999661E+01 -0.60745285730E+01 -0.23429244287E+01  0.10272844517E+02  0.10570000000E+00 0.  1.
         13    1    1    2    0    0 -0.79454999661E+01  0.60745285730E+01 -0.29920124389E+01  0.10440027683E+02  0.10570000000E+00 0. -1.
<mgrwt>
<rscale>  0 0.20014033E+02</rscale>
<asrwt>0</asrwt>
<pdfrwt beam="1">  1        4 0.11829181E-02 0.20014033E+02</pdfrwt>
<pdfrwt beam="2">  1       -4 0.20036776E-02 0.20014033E+02</pdfrwt>
<totfact> 0.12953184E+06</totfact>
</mgrwt>
</event>
<event>
 4    1  0.4773061E-007  0.2022736E+02  0.7818608E-02  0.1740844E+00
         -4   -1    0    0    0  501 -0.00000000000E+00  0.00000000000E+00  0.67203411927E+02  0.67218412468E+02  0.14200000000E+01 0. -1.
          4   -1    0    0  501    0  0.00000000000E+00 -0.00000000000E+00 -0.11722938306E+01  0.18413779691E+01  0.14200000000E+01 0.  1.
        -13    1    1    2    0    0 -0.82690258275E+01  0.57117583551E+01  0.29161347144E+02  0.30844712860E+02  0.10570000000E+00 0.  1.
         13    1    1    2    0    0  0.82690258275E+01 -0.57117583551E+01  0.36869770953E+02  0.38215077577E+02  0.10570000000E+00 0. -1.
<mgrwt>
<rscale>  0 0.20227360E+02</rscale>
<asrwt>0</asrwt>
<pdfrwt beam="2">  1        4 0.23297480E-03 0.20227360E+02</pdfrwt>
<pdfrwt beam="1">  1       -4 0.10391608E-01 0.20227360E+02</pdfrwt>
<totfact> 0.10541808E+06</totfact>
</mgrwt>
</event>
<event>
 4    1  0.4710515E-007  0.2013147E+02  0.7818608E-02  0.1742726E+00
         -4   -1    0    0    0  501 -0.00000000000E+00  0.00000000000E+00  0.20594250004E+01  0.25015258008E+01  0.14200000000E+01 0. -1.
          4   -1    0    0  501    0  0.00000000000E+00 -0.00000000000E+00 -0.43974223750E+02  0.43997144844E+02  0.14200000000E+01 0.  1.
        -13    1    1    2    0    0  0.10004394051E+02  0.93054788249E+00 -0.19583122629E+02  0.22010535752E+02  0.10570000000E+00 0. -1.
         13    1    1    2    0    0 -0.10004394051E+02 -0.93054788249E+00 -0.22331676121E+02  0.24488134893E+02  0.10570000000E+00 0.  1.
<mgrwt>
<rscale>  0 0.20131468E+02</rscale>
<asrwt>0</asrwt>
<pdfrwt beam="2">  1        4 0.68010355E-02 0.20131468E+02</pdfrwt>
<pdfrwt beam="1">  1       -4 0.35260556E-03 0.20131468E+02</pdfrwt>
<totfact> 0.11516500E+06</totfact>
</mgrwt>
</event>
<event>
 5    1  0.4710515E-007  0.2000460E+02  0.7818608E-02  0.1745237E+00
         -4   -1    0    0    0  501 -0.00000000000E+00  0.00000000000E+00  0.79958213201E+01  0.81209333566E+01  0.14200000000E+01 0.  1.
          4   -1    0    0  501    0  0.00000000000E+00 -0.00000000000E+00 -0.12248711315E+02  0.12330747297E+02  0.14200000000E+01 0. -1.
       1023    2    1    2    0    0  0.00000000000E+00  0.00000000000E+00 -0.42528899954E+01  0.20451680653E+02  0.20004603676E+02 0.  0.
        -13    1    3    3    0    0 -0.77545538357E+01  0.63162918521E+01 -0.20458049789E+01  0.10209071381E+02  0.10570000000E+00 0. -1.
         13    1    3    3    0    0  0.77545538357E+01 -0.63162918521E+01 -0.22070850166E+01  0.10242609273E+02  0.10570000000E+00 0.  1.
<mgrwt>
<rscale>  0 0.20004604E+02</rscale>
<asrwt>0</asrwt>
<pdfrwt beam="2">  1        4 0.19003516E-02 0.20004604E+02</pdfrwt>
<pdfrwt beam="1">  1       -4 0.12460608E-02 0.20004604E+02</pdfrwt>
<totfact> 0.12981085E+06</totfact>
</mgrwt>
</event>
<event>
 5    1  0.4710515E-007  0.2000369E+02  0.7818608E-02  0.1745255E+00
          4   -1    0    0  501    0  0.00000000000E+00  0.00000000000E+00  0.31253775763E+01  0.34328392031E+01  0.14200000000E+01 0. -1.
         -4   -1    0    0    0  501 -0.00000000000E+00 -0.00000000000E+00 -0.30182403626E+02  0.30215788731E+02  0.14200000000E+01 0.  1.
       1023    2    1    2    0    0  0.00000000000E+00  0.00000000000E+00 -0.27057026050E+02  0.33648627934E+02  0.20003687240E+02 0.  0.
        -13    1    3    3    0    0  0.93757901381E+01  0.34808991992E+01 -0.13427538644E+02  0.16743119974E+02  0.10570000000E+00 0.  1.
         13    1    3    3    0    0 -0.93757901381E+01 -0.34808991992E+01 -0.13629487406E+02  0.16905507960E+02  0.10570000000E+00 0. -1.
<mgrwt>
<rscale>  0 0.20003687E+02</rscale>
<asrwt>0</asrwt>
<pdfrwt beam="1">  1        4 0.50704632E-03 0.20003687E+02</pdfrwt>
<pdfrwt beam="2">  1       -4 0.46696655E-02 0.20003687E+02</pdfrwt>
<totfact> 0.12264513E+06</totfact>
</mgrwt>
</event>
<event>
 4    1  0.5985513E-007  0.2036491E+02  0.7818608E-02  0.1738167E+00
          4   -1    0    0  501    0  0.00000000000E+00  0.00000000000E+00  0.34009843571E+02  0.34039475021E+02  0.14200000000E+01 0. -1.
         -4   -1    0    0    0  501 -0.00000000000E+00 -0.00000000000E+00 -0.28505129096E+01  0.31846230307E+01  0.14200000000E+01 0.  1.
        -13    1    1    2    0    0 -0.39196207946E+01  0.92443595738E+01  0.18665230017E+02  0.21194895498E+02  0.10570000000E+00 0. -1.
         13    1    1    2    0    0  0.39196207946E+01 -0.92443595738E+01  0.12494100644E+02  0.16029202553E+02  0.10570000000E+00 0.  1.
<mgrwt>
<rscale>  0 0.20364911E+02</rscale>
<asrwt>0</asrwt>
<pdfrwt beam="1">  1        4 0.52602634E-02 0.20364911E+02</pdfrwt>
<pdfrwt beam="2">  1       -4 0.46652060E-03 0.20364911E+02</pdfrwt>
<totfact> 0.11656978E+06</totfact>
</mgrwt>
</event>
<event>
 4    1  0.4710515E-007  0.2001633E+02  0.7818608E-02  0.1745003E+00
         -4   -1    0    0    0  501 -0.00000000000E+00  0.00000000000E+00  0.35235128108E+02  0.35263729990E+02  0.14200000000E+01 0. -1.
          4   -1    0    0  501    0  0.00000000000E+00 -0.00000000000E+00 -0.26336749669E+01  0.29920968953E+01  0.14200000000E+01 0.  1.
        -13    1    1    2    0    0 -0.85237261218E+00 -0.99662198315E+01  0.16905523560E+02  0.19643318867E+02  0.10570000000E+00 0.  1.
         13    1    1    2    0    0  0.85237261218E+00  0.99662198315E+01  0.15695929581E+02  0.18612508018E+02  0.10570000000E+00 0. -1.
<mgrwt>
<rscale>  0 0.20016332E+02</rscale>
<asrwt>0</asrwt>
<pdfrwt beam="2">  1        4 0.43495183E-03 0.20016332E+02</pdfrwt>
<pdfrwt beam="1">  1       -4 0.54505599E-02 0.20016332E+02</pdfrwt>
<totfact> 0.12024680E+06</totfact>
</mgrwt>
</event>
<event>
 4    1  0.4710515E-007  0.2002642E+02  0.7818608E-02  0.1744803E+00
         -4   -1    0    0    0  501 -0.00000000000E+00  0.00000000000E+00  0.22780795138E+01  0.26844079927E+01  0.14200000000E+01 0.  1.
          4   -1    0    0  501    0  0.00000000000E+00 -0.00000000000E+00 -0.39988972568E+02  0.40014176576E+02  0.14200000000E+01 0. -1.
        -13    1    1    2    0    0  0.96046528355E+01  0.28241888860E+01 -0.19211233788E+02  0.21663519453E+02  0.10570000000E+00 0. -1.
         13    1    1    2    0    0 -0.96046528355E+01 -0.28241888860E+01 -0.18499659267E+02  0.21035065116E+02  0.10570000000E+00 0.  1.
<mgrwt>
<rscale>  0 0.20026424E+02</rscale>
<asrwt>0</asrwt>
<pdfrwt beam="2">  1        4 0.61853440E-02 0.20026424E+02</pdfrwt>
<pdfrwt beam="1">  1       -4 0.38366861E-03 0.20026424E+02</pdfrwt>
<totfact> 0.11807225E+06</totfact>
</mgrwt>
</event>
<event>
 5    1  0.4710515E-007  0.2000670E+02  0.7818608E-02  0.1745195E+00
         -4   -1    0    0    0  501 -0.00000000000E+00  0.00000000000E+00  0.13326930834E+02  0.13402368651E+02  0.14200000000E+01 0.  1.
          4   -1    0    0  501    0  0.00000000000E+00 -0.00000000000E+00 -0.73437954612E+01  0.74798216406E+01  0.14200000000E+01 0. -1.
       1023    2    1    2    0    0  0.00000000000E+00  0.00000000000E+00  0.59831353726E+01  0.20882190291E+02  0.20006697940E+02 0.  0.
        -13    1    3    3    0    0  0.90326753234E+01  0.42936346983E+01  0.31762150128E+01  0.10494000034E+02  0.10570000000E+00 0.  1.
         13    1    3    3    0    0 -0.90326753234E+01 -0.42936346983E+01  0.28069203598E+01  0.10388190257E+02  0.10570000000E+00 0. -1.
<mgrwt>
<rscale>  0 0.20006698E+02</rscale>
<asrwt>0</asrwt>
<pdfrwt beam="2">  1        4 0.11460812E-02 0.20006698E+02</pdfrwt>
<pdfrwt beam="1">  1       -4 0.20665635E-02 0.20006698E+02</pdfrwt>
<totfact> 0.12952859E+06</totfact>
</mgrwt>
</event>
<event>
 5    1  0.4710515E-007  0.2000916E+02  0.7818608E-02  0.1745146E+00
          4   -1    0    0  501    0  0.00000000000E+00  0.00000000000E+00  0.10157188544E+01  0.17458765108E+01  0.14200000000E+01 0.  1.
         -4   -1    0    0    0  501 -0.00000000000E+00 -0.00000000000E+00 -0.71749224358E+02  0.71763274702E+02  0.14200000000E+01 0. -1.
       1023    2    1    2    0    0  0.00000000000E+00  0.00000000000E+00 -0.70733505504E+02  0.73509151213E+02  0.20009160683E+02 0.  0.
        -13    1    3    3    0    0 -0.95243146356E+01 -0.30594953424E+01 -0.35682233297E+02  0.37058143863E+02  0.10570000000E+00 0. -1.
         13    1    3    3    0    0  0.95243146356E+01  0.30594953424E+01 -0.35051272207E+02  0.36451007350E+02  0.10570000000E+00 0.  1.
<mgrwt>
<rscale>  0 0.20009161E+02</rscale>
<asrwt>0</asrwt>
<pdfrwt beam="1">  1        4 0.21351126E-03 0.20009161E+02</pdfrwt>
<pdfrwt beam="2">  1       -4 0.11095586E-01 0.20009161E+02</pdfrwt>
<totfact> 0.10618869E+06</totfact>
</mgrwt>
</event>
<event>
 5    1  0.4710515E-007  0.2000662E+02  0.7818608E-02  0.1745196E+00
         -4   -1    0    0    0  501 -0.00000000000E+00  0.00000000000E+00  0.91227313275E+02  0.91238364121E+02  0.14200000000E+01 0. -1.
          4   -1    0    0  501    0  0.00000000000E+00 -0.00000000000E+00 -0.62145385658E+00  0.15500338370E+01  0.14200000000E+01 0.  1.
       1023    2    1    2    0    0  0.00000000000E+00  0.00000000000E+00  0.90605859419E+02  0.92788397958E+02  0.20006624767E+02 0.  0.
        -13    1    3    3    0    0  0.16965087087E+01 -0.98552706451E+01  0.44259819643E+02  0.45375624609E+02  0.10570000000E+00 0.  1.
         13    1    3    3    0    0 -0.16965087087E+01  0.98552706451E+01  0.46346039775E+02  0.47412773349E+02  0.10570000000E+00 0. -1.
<mgrwt>
<rscale>  0 0.20006625E+02</rscale>
<asrwt>0</asrwt>
<pdfrwt beam="2">  1        4 0.16788753E-03 0.20006625E+02</pdfrwt>
<pdfrwt beam="1">  1       -4 0.14107255E-01 0.20006625E+02</pdfrwt>
<totfact> 0.10004965E+06</totfact>
</mgrwt>
</event>
<event>
 5    1  0.4710515E-007  0.2000392E+02  0.7818608E-02  0.1745250E+00
          4   -1    0    0  501    0  0.00000000000E+00  0.00000000000E+00  0.37083716405E+00  0.14676239989E+01  0.14200000000E+01 0. -1.
         -4   -1    0    0    0  501 -0.00000000000E+00 -0.00000000000E+00 -0.10772504633E+03  0.10773440493E+03  0.14200000000E+01 0.  1.
       1023    2    1    2    0    0  0.00000000000E+00  0.00000000000E+00 -0.10735420916E+03  0.10920202893E+03  0.20003922059E+02 0.  0.
        -13    1    3    3    0    0  0.68290034381E+01  0.73069281432E+01 -0.53461138232E+02  0.54388702507E+02  0.10570000000E+00 0. -1.
         13    1    3    3    0    0 -0.68290034381E+01 -0.73069281432E+01 -0.53893070931E+02  0.54813326425E+02  0.10570000000E+00 0.  1.
<mgrwt>
<rscale>  0 0.20003922E+02</rscale>
<asrwt>0</asrwt>
<pdfrwt beam="1">  1        4 0.14214007E-03 0.20003922E+02</pdfrwt>
<pdfrwt beam="2">  1       -4 0.16658162E-01 0.20003922E+02</pdfrwt>
<totfact> 0.95429689E+05</totfact>
</mgrwt>
</event>
<event>
 5    1  0.4710515E-007  0.2000881E+02  0.7818608E-02  0.1745153E+00
          4   -1    0    0  501    0  0.00000000000E+00  0.00000000000E+00  0.71217220816E+01  0.72619092122E+01  0.14200000000E+01 0.  1.
         -4   -1    0    0    0  501 -0.00000000000E+00 -0.00000000000E+00 -0.13739818643E+02  0.13813001713E+02  0.14200000000E+01 0. -1.
       1023    2    1    2    0    0  0.00000000000E+00  0.00000000000E+00 -0.66180965612E+01  0.21074910926E+02  0.20008814768E+02 0.  0.
        -13    1    3    3    0    0 -0.51690185635E+01  0.85645448582E+01 -0.32221089815E+01  0.10510154153E+02  0.10570000000E+00 0.  1.
         13    1    3    3    0    0  0.51690185635E+01 -0.85645448582E+01 -0.33959875797E+01  0.10564756773E+02  0.10570000000E+00 0. -1.
<mgrwt>
<rscale>  0 0.20008815E+02</rscale>
<asrwt>0</asrwt>
<pdfrwt beam="1">  1        4 0.11120626E-02 0.20008815E+02</pdfrwt>
<pdfrwt beam="2">  1       -4 0.21302313E-02 0.20008815E+02</pdfrwt>
<totfact> 0.12938693E+06</totfact>
</mgrwt>
</event>
<event>
 5    1  0.4710515E-007  0.2000449E+02  0.7818608E-02  0.1745239E+00
          4   -1    0    0  501    0  0.00000000000E+00  0.00000000000E+00  0.42994779517E+02  0.43018222485E+02  0.14200000000E+01 0.  1.
         -4   -1    0    0    0  501 -0.00000000000E+00 -0.00000000000E+00 -0.20838611049E+01  0.25216814043E+01  0.14200000000E+01 0. -1.
       1023    2    1    2    0    0  0.00000000000E+00  0.00000000000E+00  0.40910918412E+02  0.45539903889E+02  0.20004489518E+02 0.  0.
        -13    1    3    3    0    0 -0.99532609594E+01 -0.98066350670E+00  0.20610244895E+02  0.22909004163E+02  0.10570000000E+00 0. -1.
         13    1    3    3    0    0  0.99532609594E+01  0.98066350670E+00  0.20300673518E+02  0.22630899726E+02  0.10570000000E+00 0.  1.
<mgrwt>
<rscale>  0 0.20004490E+02</rscale>
<asrwt>0</asrwt>
<pdfrwt beam="1">  1        4 0.66500632E-02 0.20004490E+02</pdfrwt>
<pdfrwt beam="2">  1       -4 0.35607581E-03 0.20004490E+02</pdfrwt>
<totfact> 0.11706690E+06</totfact>
</mgrwt>
</event>
<event>
 4    1  0.4710515E-007  0.2012530E+02  0.7818608E-02  0.1742848E+00
          4   -1    0    0  501    0  0.00000000000E+00  0.00000000000E+00  0.25091782517E+01  0.28831190573E+01  0.14200000000E+01 0. -1.
         -4   -1    0    0    0  501 -0.00000000000E+00 -0.00000000000E+00 -0.37167706222E+02  0.37194822029E+02  0.14200000000E+01 0.  1.
        -13    1    1    2    0    0 -0.22197055704E+01  0.97528673003E+01 -0.15147531857E+02  0.18152256258E+02  0.10570000000E+00 0. -1.
         13    1    1    2    0    0  0.22197055704E+01 -0.97528673003E+01 -0.19510996113E+02  0.21925684828E+02  0.10570000000E+00 0.  1.
<mgrwt>
<rscale>  0 0.20125302E+02</rscale>
<asrwt>0</asrwt>
<pdfrwt beam="1">  1        4 0.41687796E-03 0.20125302E+02</pdfrwt>
<pdfrwt beam="2">  1       -4 0.57489588E-02 0.20125302E+02</pdfrwt>
<totfact> 0.11808630E+06</totfact>
</mgrwt>
</event>
<event>
 5    1  0.4710515E-007  0.2000674E+02  0.7818608E-02  0.1745194E+00
         -4   -1    0    0    0  501 -0.00000000000E+00  0.00000000000E+00  0.10196618100E+01  0.17481733915E+01  0.14200000000E+01 0.  1.
          4   -1    0    0  501    0  0.00000000000E+00 -0.00000000000E+00 -0.71569974058E+02  0.71584059585E+02  0.14200000000E+01 0. -1.
       1023    2    1    2    0    0  0.00000000000E+00  0.00000000000E+00 -0.70550312248E+02  0.73332232977E+02  0.20006744739E+02 0.  0.
        -13    1    3    3    0    0  0.35988744313E+01 -0.93329433644E+01 -0.35188630546E+02  0.36582873332E+02  0.10570000000E+00 0. -1.
         13    1    3    3    0    0 -0.35988744313E+01  0.93329433644E+01 -0.35361681703E+02  0.36749359645E+02  0.10570000000E+00 0.  1.
<mgrwt>
<rscale>  0 0.20006745E+02</rscale>
<asrwt>0</asrwt>
<pdfrwt beam="2">  1        4 0.11067885E-01 0.20006745E+02</pdfrwt>
<pdfrwt beam="1">  1       -4 0.21399396E-03 0.20006745E+02</pdfrwt>
<totfact> 0.10627517E+06</totfact>
</mgrwt>
</event>
<event>
 5    1  0.4710515E-007  0.2000302E+02  0.7818608E-02  0.1745268E+00
         -4   -1    0    0    0  501 -0.00000000000E+00  0.00000000000E+00  0.70168217216E+02  0.70182584074E+02  0.14200000000E+01 0.  1.
          4   -1    0    0  501    0  0.00000000000E+00 -0.00000000000E+00 -0.10537701346E+01  0.17682849025E+01  0.14200000000E+01 0. -1.
       1023    2    1    2    0    0  0.00000000000E+00  0.00000000000E+00  0.69114447082E+02  0.71950868976E+02  0.20003018549E+02 0.  0.
        -13    1    3    3    0    0 -0.87386943357E+01  0.48627899093E+01  0.34868958836E+02  0.36274880664E+02  0.10570000000E+00 0. -1.
         13    1    3    3    0    0  0.87386943357E+01 -0.48627899093E+01  0.34245488246E+02  0.35675988313E+02  0.10570000000E+00 0.  1.
<mgrwt>
<rscale>  0 0.20003019E+02</rscale>
<asrwt>0</asrwt>
<pdfrwt beam="2">  1        4 0.21818625E-03 0.20003019E+02</pdfrwt>
<pdfrwt beam="1">  1       -4 0.10851181E-01 0.20003019E+02</pdfrwt>
<totfact> 0.10679229E+06</totfact>
</mgrwt>
</event>
<event>
 4    1  0.4710515E-007  0.2081101E+02  0.7818608E-02  0.1729665E+00
          4   -1    0    0  501    0  0.00000000000E+00  0.00000000000E+00  0.47619275109E+02  0.47640442503E+02  0.14200000000E+01 0. -1.
         -4   -1    0    0    0  501 -0.00000000000E+00 -0.00000000000E+00 -0.20281908046E+01  0.24758751867E+01  0.14200000000E+01 0.  1.
        -13    1    1    2    0    0 -0.33094986827E+01  0.98120501581E+01  0.20346426821E+02  0.22830185428E+02  0.10570000000E+00 0.  1.
         13    1    1    2    0    0  0.33094986827E+01 -0.98120501581E+01  0.25244657484E+02  0.27286132261E+02  0.10570000000E+00 0. -1.
<mgrwt>
<rscale>  0 0.20811015E+02</rscale>
<asrwt>0</asrwt>
<pdfrwt beam="1">  1        4 0.73621079E-02 0.20811015E+02</pdfrwt>
<pdfrwt beam="2">  1       -4 0.34809487E-03 0.20811015E+02</pdfrwt>
<totfact> 0.10620363E+06</totfact>
</mgrwt>
</event>
<event>
 5    1  0.5177822E-007  0.2000183E+02  0.7818608E-02  0.1745292E+00
         -4   -1    0    0    0  501 -0.00000000000E+00  0.00000000000E+00  0.10137759163E+02  0.10236726080E+02  0.14200000000E+01 0.  1.
          4   -1    0    0  501    0  0.00000000000E+00 -0.00000000000E+00 -0.96669066597E+01  0.97706440099E+01  0.14200000000E+01 0. -1.
       1023    2    1    2    0    0  0.00000000000E+00  0.00000000000E+00  0.47085250294E+00  0.20007370090E+02  0.20001828812E+02 0.  0.
        -13    1    3    3    0    0  0.99836377086E+01  0.57218319405E+00  0.15354413767E+00  0.10001758035E+02  0.10570000000E+00 0.  1.
         13    1    3    3    0    0 -0.99836377086E+01 -0.57218319405E+00  0.31730836527E+00  0.10005612055E+02  0.10570000000E+00 0. -1.
<mgrwt>
<rscale>  0 0.20001829E+02</rscale>
<asrwt>0</asrwt>
<pdfrwt beam="2">  1        4 0.15028090E-02 0.20001829E+02</pdfrwt>
<pdfrwt beam="1">  1       -4 0.15752479E-02 0.20001829E+02</pdfrwt>
<totfact> 0.13011178E+06</totfact>
</mgrwt>
</event>
<event>
 5    1  0.4710515E-007  0.2000207E+02  0.7818608E-02  0.1745287E+00
         -4   -1    0    0    0  501 -0.00000000000E+00  0.00000000000E+00  0.50835298921E+02  0.50855127729E+02  0.14200000000E+01 0. -1.
          4   -1    0    0  501    0  0.00000000000E+00 -0.00000000000E+00 -0.16884085077E+01  0.22061557716E+01  0.14200000000E+01 0.  1.
       1023    2    1    2    0    0  0.00000000000E+00  0.00000000000E+00  0.49146890413E+02  0.53061283501E+02  0.20002074130E+02 0.  0.
        -13    1    3    3    0    0  0.63138663299E+01 -0.77551338490E+01  0.24707688802E+02  0.26654982039E+02  0.10570000000E+00 0. -1.
         13    1    3    3    0    0 -0.63138663299E+01  0.77551338490E+01  0.24439201611E+02  0.26406301462E+02  0.10570000000E+00 0.  1.
<mgrwt>
<rscale>  0 0.20002074E+02</rscale>
<asrwt>0</asrwt>
<pdfrwt beam="2">  1        4 0.30110715E-03 0.20002074E+02</pdfrwt>
<pdfrwt beam="1">  1       -4 0.78621675E-02 0.20002074E+02</pdfrwt>
<totfact> 0.11390981E+06</totfact>
</mgrwt>
</event>
<event>
 5    1  0.4710515E-007  0.2000366E+02  0.7818608E-02  0.1745255E+00
          4   -1    0    0  501    0  0.00000000000E+00  0.00000000000E+00  0.39297904567E+02  0.39323551510E+02  0.14200000000E+01 0. -1.
         -4   -1    0    0    0  501 -0.00000000000E+00 -0.00000000000E+00 -0.23189386201E+01  0.27191683147E+01  0.14200000000E+01 0.  1.
       1023    2    1    2    0    0  0.00000000000E+00  0.00000000000E+00  0.36978965947E+02  0.42042719825E+02  0.20003658859E+02 0.  0.
        -13    1    3    3    0    0  0.91329272091E+01  0.40759347772E+01  0.18579041592E+02  0.21100131816E+02  0.10570000000E+00 0. -1.
         13    1    3    3    0    0 -0.91329272091E+01 -0.40759347772E+01  0.18399924355E+02  0.20942588008E+02  0.10570000000E+00 0.  1.
<mgrwt>
<rscale>  0 0.20003659E+02</rscale>
<asrwt>0</asrwt>
<pdfrwt beam="1">  1        4 0.60785908E-02 0.20003659E+02</pdfrwt>
<pdfrwt beam="2">  1       -4 0.38951955E-03 0.20003659E+02</pdfrwt>
<totfact> 0.11864188E+06</totfact>
</mgrwt>
</event>
<event>
 4    1  0.4710515E-007  0.2002856E+02  0.7818608E-02  0.1744761E+00
         -4   -1    0    0    0  501 -0.00000000000E+00  0.00000000000E+00  0.68735104421E+01  0.70186569796E+01  0.14200000000E+01 0. -1.
          4   -1    0    0  501    0  0.00000000000E+00 -0.00000000000E+00 -0.14256957939E+02  0.14327499770E+02  0.14200000000E+01 0.  1.
        -13    1    1    2    0    0 -0.71699980758E+01 -0.69855330063E+01 -0.39697723580E+01  0.10769252939E+02  0.10570000000E+00 0.  1.
         13    1    1    2    0    0  0.71699980758E+01  0.69855330063E+01 -0.34136751385E+01  0.10576903811E+02  0.10570000000E+00 0. -1.
<mgrwt>
<rscale>  0 0.20028557E+02</rscale>
<asrwt>0</asrwt>
<pdfrwt beam="2">  1        4 0.22099696E-02 0.20028557E+02</pdfrwt>
<pdfrwt beam="1">  1       -4 0.10740546E-02 0.20028557E+02</pdfrwt>
<totfact> 0.12896779E+06</totfact>
</mgrwt>
</event>
<event>
 4    1  0.4710515E-007  0.2004494E+02  0.7818608E-02  0.1744436E+00
         -4   -1    0    0    0  501 -0.00000000000E+00  0.00000000000E+00  0.38953201740E+02  0.38979075487E+02  0.14200000000E+01 0.  1.
          4   -1    0    0  501    0  0.00000000000E+00 -0.00000000000E+00 -0.23544011244E+01  0.27494735232E+01  0.14200000000E+01 0. -1.
        -13    1    1    2    0    0 -0.66482792402E+01  0.74921511243E+01  0.18979661809E+02  0.21460910516E+02  0.10570000000E+00 0.  1.
         13    1    1    2    0    0  0.66482792402E+01 -0.74921511243E+01  0.17619138807E+02  0.20267638494E+02  0.10570000000E+00 0. -1.
<mgrwt>
<rscale>  0 0.20044939E+02</rscale>
<asrwt>0</asrwt>
<pdfrwt beam="2">  1        4 0.39459603E-03 0.20044939E+02</pdfrwt>
<pdfrwt beam="1">  1       -4 0.60251807E-02 0.20044939E+02</pdfrwt>
<totfact> 0.11829061E+06</totfact>
</mgrwt>
</event>
<event>
 5    1  0.4929381E-007  0.2000278E+02  0.7818608E-02  0.1745273E+00
         -4   -1    0    0    0  501 -0.00000000000E+00  0.00000000000E+00  0.36552066969E+01  0.39213436469E+01  0.14200000000E+01 0.  1.
          4   -1    0    0  501    0  0.00000000000E+00 -0.00000000000E+00 -0.26118471444E+02  0.26157043995E+02  0.14200000000E+01 0. -1.
       1023    2    1    2    0    0  0.00000000000E+00  0.00000000000E+00 -0.22463264747E+02  0.30078387642E+02  0.20002778308E+02 0.  0.
        -13    1    3    3    0    0 -0.91807513317E+01  0.39648365341E+01 -0.11077630346E+02  0.14924181395E+02  0.10570000000E+00 0.  1.
         13    1    3    3    0    0  0.91807513317E+01 -0.39648365341E+01 -0.11385634401E+02  0.15154206246E+02  0.10570000000E+00 0. -1.
<mgrwt>
<rscale>  0 0.20002778E+02</rscale>
<asrwt>0</asrwt>
<pdfrwt beam="2">  1        4 0.40416655E-02 0.20002778E+02</pdfrwt>
<pdfrwt beam="1">  1       -4 0.58577870E-03 0.20002778E+02</pdfrwt>
<totfact> 0.12448134E+06</totfact>
</mgrwt>
</event>
<event>
 5    1  0.5162727E-007  0.2000160E+02  0.7818608E-02  0.1745296E+00
          4   -1    0    0  501    0  0.00000000000E+00  0.00000000000E+00  0.15651957596E+02  0.15716239264E+02  0.14200000000E+01 0.  1.
         -4   -1    0    0    0  501 -0.00000000000E+00 -0.00000000000E+00 -0.62325985013E+01  0.63923144540E+01  0.14200000000E+01 0. -1.
       1023    2    1    2    0    0  0.00000000000E+00  0.00000000000E+00  0.94193590949E+01  0.22108553718E+02  0.20001595479E+02 0.  0.
        -13    1    3    3    0    0  0.24915248276E+01  0.96847594001E+01  0.47651928842E+01  0.11077928340E+02  0.10570000000E+00 0.  1.
         13    1    3    3    0    0 -0.24915248276E+01 -0.96847594001E+01  0.46541662106E+01  0.11030625377E+02  0.10570000000E+00 0. -1.
<mgrwt>
<rscale>  0 0.20001595E+02</rscale>
<asrwt>0</asrwt>
<pdfrwt beam="1">  1        4 0.24252240E-02 0.20001595E+02</pdfrwt>
<pdfrwt beam="2">  1       -4 0.97609191E-03 0.20001595E+02</pdfrwt>
<totfact> 0.12887831E+06</totfact>
</mgrwt>
</event>
<event>
 4    1  0.4710515E-007  0.2001530E+02  0.7818608E-02  0.1745024E+00
         -4   -1    0    0    0  501 -0.00000000000E+00  0.00000000000E+00  0.36579731161E+01  0.39239224404E+01  0.14200000000E+01 0. -1.
          4   -1    0    0  501    0  0.00000000000E+00 -0.00000000000E+00 -0.26133089769E+02  0.26171640775E+02  0.14200000000E+01 0.  1.
        -13    1    1    2    0    0  0.10505728885E+01  0.99510701074E+01 -0.11057486615E+02  0.14913305549E+02  0.10570000000E+00 0.  1.
         13    1    1    2    0    0 -0.10505728885E+01 -0.99510701074E+01 -0.11417630037E+02  0.15182257666E+02  0.10570000000E+00 0. -1.
<mgrwt>
<rscale>  0 0.20015296E+02</rscale>
<asrwt>0</asrwt>
<pdfrwt beam="2">  1        4 0.40438983E-02 0.20015296E+02</pdfrwt>
<pdfrwt beam="1">  1       -4 0.58618821E-03 0.20015296E+02</pdfrwt>
<totfact> 0.12431425E+06</totfact>
</mgrwt>
</event>
<event>
 4    1  0.4710515E-007  0.2002989E+02  0.7818608E-02  0.1744734E+00
          4   -1    0    0  501    0  0.00000000000E+00  0.00000000000E+00  0.15985909022E+02  0.16048853144E+02  0.14200000000E+01 0. -1.
         -4   -1    0    0    0  501 -0.00000000000E+00 -0.00000000000E+00 -0.61174633922E+01  0.62801081484E+01  0.14200000000E+01 0.  1.
        -13    1    1    2    0    0 -0.60211634169E+01 -0.79984122728E+01  0.52047569582E+01  0.11284045164E+02  0.10570000000E+00 0. -1.
         13    1    1    2    0    0  0.60211634169E+01  0.79984122728E+01  0.46636886713E+01  0.11044916129E+02  0.10570000000E+00 0.  1.
<mgrwt>
<rscale>  0 0.20029885E+02</rscale>
<asrwt>0</asrwt>
<pdfrwt beam="1">  1        4 0.24767236E-02 0.20029885E+02</pdfrwt>
<pdfrwt beam="2">  1       -4 0.95850121E-03 0.20029885E+02</pdfrwt>
<totfact> 0.12838021E+06</totfact>
</mgrwt>
</event>
<event>
 5    1  0.4710515E-007  0.2000130E+02  0.7818608E-02  0.1745302E+00
         -4   -1    0    0    0  501 -0.00000000000E+00  0.00000000000E+00  0.16201092864E+01  0.21543337949E+01  0.14200000000E+01 0. -1.
          4   -1    0    0  501    0  0.00000000000E+00 -0.00000000000E+00 -0.52449651383E+02  0.52468870106E+02  0.14200000000E+01 0.  1.
       1023    2    1    2    0    0  0.00000000000E+00  0.00000000000E+00 -0.50829542097E+02  0.54623203901E+02  0.20001301324E+02 0.  0.
        -13    1    3    3    0    0 -0.21740518204E+01  0.97609031268E+01 -0.25386128058E+02  0.27284948258E+02  0.10570000000E+00 0. -1.
         13    1    3    3    0    0  0.21740518204E+01 -0.97609031268E+01 -0.25443414039E+02  0.27338255643E+02  0.10570000000E+00 0.  1.
<mgrwt>
<rscale>  0 0.20001301E+02</rscale>
<asrwt>0</asrwt>
<pdfrwt beam="2">  1        4 0.81117486E-02 0.20001301E+02</pdfrwt>
<pdfrwt beam="1">  1       -4 0.29182018E-03 0.20001301E+02</pdfrwt>
<totfact> 0.11328562E+06</totfact>
</mgrwt>
</event>
<event>
 5    1  0.4710515E-007  0.2000139E+02  0.7818608E-02  0.1745300E+00
         -4   -1    0    0    0  501 -0.00000000000E+00  0.00000000000E+00  0.16851860121E+01  0.22036905172E+01  0.14200000000E+01 0.  1.
          4   -1    0    0  501    0  0.00000000000E+00 -0.00000000000E+00 -0.50906161247E+02  0.50925962464E+02  0.14200000000E+01 0. -1.
       1023    2    1    2    0    0  0.00000000000E+00  0.00000000000E+00 -0.49220975235E+02  0.53129652981E+02  0.20001390523E+02 0.  0.
        -13    1    3    3    0    0 -0.17229134865E+01  0.98504733865E+01 -0.24742674208E+02  0.26687288290E+02  0.10570000000E+00 0. -1.
         13    1    3    3    0    0  0.17229134865E+01 -0.98504733865E+01 -0.24478301027E+02  0.26442364692E+02  0.10570000000E+00 0.  1.
<mgrwt>
<rscale>  0 0.20001391E+02</rscale>
<asrwt>0</asrwt>
<pdfrwt beam="2">  1        4 0.78731242E-02 0.20001391E+02</pdfrwt>
<pdfrwt beam="1">  1       -4 0.30066756E-03 0.20001391E+02</pdfrwt>
<totfact> 0.11388975E+06</totfact>
</mgrwt>
</event>
<event>
 5    1  0.4910095E-007  0.2000289E+02  0.7818608E-02  0.1745271E+00
         -4   -1    0    0    0  501 -0.00000000000E+00  0.00000000000E+00  0.13279130973E+02  0.13354838801E+02  0.14200000000E+01 0.  1.
          4   -1    0    0  501    0  0.00000000000E+00 -0.00000000000E+00 -0.73676779518E+01  0.75032711801E+01  0.14200000000E+01 0. -1.
       1023    2    1    2    0    0  0.00000000000E+00  0.00000000000E+00  0.59114530213E+01  0.20858109981E+02  0.20002886671E+02 0.  0.
        -13    1    3    3    0    0 -0.97043486932E+01 -0.24172777542E+01  0.29651113038E+01  0.10431714760E+02  0.10570000000E+00 0. -1.
         13    1    3    3    0    0  0.97043486932E+01  0.24172777542E+01  0.29463417175E+01  0.10426395221E+02  0.10570000000E+00 0.  1.
<mgrwt>
<rscale>  0 0.20002887E+02</rscale>
<asrwt>0</asrwt>
<pdfrwt beam="2">  1        4 0.11497428E-02 0.20002887E+02</pdfrwt>
<pdfrwt beam="1">  1       -4 0.20591971E-02 0.20002887E+02</pdfrwt>
<totfact> 0.12959319E+06</totfact>
</mgrwt>
</event>
<event>
 4    1  0.4710515E-007  0.2006188E+02  0.7818608E-02  0.1744100E+00
         -4   -1    0    0    0  501 -0.00000000000E+00  0.00000000000E+00  0.21443957065E+02  0.21490921214E+02  0.14200000000E+01 0.  1.
          4   -1    0    0  501    0  0.00000000000E+00 -0.00000000000E+00 -0.45313611445E+01  0.47486454723E+01  0.14200000000E+01 0. -1.
        -13    1    1    2    0    0 -0.75045847919E+01 -0.66310256608E+01  0.91953350152E+01  0.13596126387E+02  0.10570000000E+00 0.  1.
         13    1    1    2    0    0  0.75045847919E+01  0.66310256608E+01  0.77172609058E+01  0.12643440299E+02  0.10570000000E+00 0. -1.
<mgrwt>
<rscale>  0 0.20061878E+02</rscale>
<asrwt>0</asrwt>
<pdfrwt beam="2">  1        4 0.71745928E-03 0.20061878E+02</pdfrwt>
<pdfrwt beam="1">  1       -4 0.33193972E-02 0.20061878E+02</pdfrwt>
<totfact> 0.12577643E+06</totfact>
</mgrwt>
</event>
<event>
 5    1  0.4864414E-007  0.2000130E+02  0.7818608E-02  0.1745302E+00
          4   -1    0    0  501    0  0.00000000000E+00  0.00000000000E+00  0.11407380893E+02  0.11495422516E+02  0.14200000000E+01 0.  1.
         -4   -1    0    0    0  501 -0.00000000000E+00 -0.00000000000E+00 -0.85871199202E+01  0.87037364691E+01  0.14200000000E+01 0. -1.
       1023    2    1    2    0    0  0.00000000000E+00  0.00000000000E+00  0.28202609724E+01  0.20199158985E+02  0.20001303752E+02 0.  0.
        -13    1    3    3    0    0 -0.93612281782E+01 -0.35168192945E+01  0.13743612224E+01  0.10094585292E+02  0.10570000000E+00 0. -1.
         13    1    3    3    0    0  0.93612281782E+01  0.35168192945E+01  0.14458997500E+01  0.10104573694E+02  0.10570000000E+00 0.  1.
<mgrwt>
<rscale>  0 0.20001304E+02</rscale>
<asrwt>0</asrwt>
<pdfrwt beam="1">  1        4 0.17707246E-02 0.20001304E+02</pdfrwt>
<pdfrwt beam="2">  1       -4 0.13368383E-02 0.20001304E+02</pdfrwt>
<totfact> 0.13000463E+06</totfact>
</mgrwt>
</event>
<event>
 4    1  0.4710515E-007  0.2001695E+02  0.7818608E-02  0.1744991E+00
         -4   -1    0    0    0  501 -0.00000000000E+00  0.00000000000E+00  0.85253640637E+01  0.86428139179E+01  0.14200000000E+01 0.  1.
          4   -1    0    0  501    0  0.00000000000E+00 -0.00000000000E+00 -0.11507825683E+02  0.11595104654E+02  0.14200000000E+01 0. -1.
        -13    1    1    2    0    0 -0.28765488269E+00  0.10000077924E+02 -0.12160286559E+01  0.10078402751E+02  0.10570000000E+00 0. -1.
         13    1    1    2    0    0  0.28765488269E+00 -0.10000077924E+02 -0.17664329632E+01  0.10159515821E+02  0.10570000000E+00 0.  1.
<mgrwt>
<rscale>  0 0.20016950E+02</rscale>
<asrwt>0</asrwt>
<pdfrwt beam="2">  1        4 0.17861831E-02 0.20016950E+02</pdfrwt>
<pdfrwt beam="1">  1       -4 0.13273428E-02 0.20016950E+02</pdfrwt>
<totfact> 0.12977423E+06</totfact>
</mgrwt>
</event>
<event>
 5    1  0.4710515E-007  0.2000311E+02  0.7818608E-02  0.1745266E+00
         -4   -1    0    0    0  501 -0.00000000000E+00  0.00000000000E+00  0.11188172811E+01  0.18078031166E+01  0.14200000000E+01 0. -1.
          4   -1    0    0  501    0  0.00000000000E+00 -0.00000000000E+00 -0.67661268324E+02  0.67676167380E+02  0.14200000000E+01 0.  1.
       1023    2    1    2    0    0  0.00000000000E+00  0.00000000000E+00 -0.66542451043E+02  0.69483970497E+02  0.20003108887E+02 0.  0.
        -13    1    3    3    0    0  0.41183865810E+01 -0.91134764519E+01 -0.33472509728E+02  0.34934748333E+02  0.10570000000E+00 0.  1.
         13    1    3    3    0    0 -0.41183865810E+01  0.91134764519E+01 -0.33069941315E+02  0.34549222164E+02  0.10570000000E+00 0. -1.
<mgrwt>
<rscale>  0 0.20003109E+02</rscale>
<asrwt>0</asrwt>
<pdfrwt beam="2">  1        4 0.10463568E-01 0.20003109E+02</pdfrwt>
<pdfrwt beam="1">  1       -4 0.22627078E-03 0.20003109E+02</pdfrwt>
<totfact> 0.10765697E+06</totfact>
</mgrwt>
</event>
<event>
 5    1  0.4710515E-007  0.2000341E+02  0.7818608E-02  0.1745260E+00
          4   -1    0    0  501    0  0.00000000000E+00  0.00000000000E+00  0.21817350908E+02  0.21863512999E+02  0.14200000000E+01 0.  1.
         -4   -1    0    0    0  501 -0.00000000000E+00 -0.00000000000E+00 -0.44227619275E+01  0.46451289614E+01  0.14200000000E+01 0. -1.
       1023    2    1    2    0    0  0.00000000000E+00  0.00000000000E+00  0.17394588981E+02  0.26508641960E+02  0.20003409029E+02 0.  0.
        -13    1    3    3    0    0  0.60375438290E+01  0.79724314349E+01  0.88383043566E+01  0.13346849623E+02  0.10570000000E+00 0. -1.
         13    1    3    3    0    0 -0.60375438290E+01 -0.79724314349E+01  0.85562846244E+01  0.13161792337E+02  0.10570000000E+00 0.  1.
<mgrwt>
<rscale>  0 0.20003409E+02</rscale>
<asrwt>0</asrwt>
<pdfrwt beam="1">  1        4 0.33771717E-02 0.20003409E+02</pdfrwt>
<pdfrwt beam="2">  1       -4 0.70108098E-03 0.20003409E+02</pdfrwt>
<totfact> 0.12637882E+06</totfact>
</mgrwt>
</event>
<event>
 5    1  0.4710515E-007  0.2000554E+02  0.7818608E-02  0.1745218E+00
          4   -1    0    0  501    0  0.00000000000E+00  0.00000000000E+00  0.23695412218E+01  0.27624492035E+01  0.14200000000E+01 0. -1.
         -4   -1    0    0    0  501 -0.00000000000E+00 -0.00000000000E+00 -0.38585870637E+02  0.38611990532E+02  0.14200000000E+01 0.  1.
       1023    2    1    2    0    0  0.00000000000E+00  0.00000000000E+00 -0.36216329416E+02  0.41374439735E+02  0.20005542909E+02 0.  0.
        -13    1    3    3    0    0 -0.98858288522E+01 -0.15189114911E+01 -0.17928341956E+02  0.20529815440E+02  0.10570000000E+00 0. -1.
         13    1    3    3    0    0  0.98858288522E+01  0.15189114911E+01 -0.18287987459E+02  0.20844624295E+02  0.10570000000E+00 0.  1.
<mgrwt>
<rscale>  0 0.20005543E+02</rscale>
<asrwt>0</asrwt>
<pdfrwt beam="1">  1        4 0.39677774E-03 0.20005543E+02</pdfrwt>
<pdfrwt beam="2">  1       -4 0.59685203E-02 0.20005543E+02</pdfrwt>
<totfact> 0.11892444E+06</totfact>
</mgrwt>
</event>
<event>
 5    1  0.5052337E-007  0.2000178E+02  0.7818608E-02  0.1745293E+00
          4   -1    0    0  501    0  0.00000000000E+00  0.00000000000E+00  0.23097969675E+02  0.23141577368E+02  0.14200000000E+01 0. -1.
         -4   -1    0    0    0  501 -0.00000000000E+00 -0.00000000000E+00 -0.41646387259E+01  0.44000699673E+01  0.14200000000E+01 0.  1.
       1023    2    1    2    0    0  0.00000000000E+00  0.00000000000E+00  0.18933330949E+02  0.27541647335E+02  0.20001782849E+02 0.  0.
        -13    1    3    3    0    0 -0.84045267233E+01 -0.54190992517E+01  0.93801177533E+01  0.13711326985E+02  0.10570000000E+00 0.  1.
         13    1    3    3    0    0  0.84045267233E+01  0.54190992517E+01  0.95532131953E+01  0.13830320350E+02  0.10570000000E+00 0. -1.
<mgrwt>
<rscale>  0 0.20001783E+02</rscale>
<asrwt>0</asrwt>
<pdfrwt beam="1">  1        4 0.35749984E-02 0.20001783E+02</pdfrwt>
<pdfrwt beam="2">  1       -4 0.66217818E-03 0.20001783E+02</pdfrwt>
<totfact> 0.12583907E+06</totfact>
</mgrwt>
</event>
<event>
 4    1  0.4710515E-007  0.2002953E+02  0.7818608E-02  0.1744741E+00
          4   -1    0    0  501    0  0.00000000000E+00  0.00000000000E+00  0.28141772885E+01  0.31521411470E+01  0.14200000000E+01 0.  1.
         -4   -1    0    0    0  501 -0.00000000000E+00 -0.00000000000E+00 -0.33266608534E+02  0.33296901407E+02  0.14200000000E+01 0. -1.
        -13    1    1    2    0    0  0.32445992378E+01 -0.94701534252E+01 -0.14734101213E+02  0.17813369731E+02  0.10570000000E+00 0.  1.
         13    1    1    2    0    0 -0.32445992378E+01  0.94701534252E+01 -0.15718330032E+02  0.18635672824E+02  0.10570000000E+00 0. -1.
<mgrwt>
<rscale>  0 0.20029532E+02</rscale>
<asrwt>0</asrwt>
<pdfrwt beam="1">  1        4 0.46127782E-03 0.20029532E+02</pdfrwt>
<pdfrwt beam="2">  1       -4 0.51462669E-02 0.20029532E+02</pdfrwt>
<totfact> 0.12094971E+06</totfact>
</mgrwt>
</event>
<event>
 5    1  0.4763501E-007  0.2000153E+02  0.7818608E-02  0.1745298E+00
          4   -1    0    0  501    0  0.00000000000E+00  0.00000000000E+00  0.24208190454E+02  0.24249801753E+02  0.14200000000E+01 0. -1.
         -4   -1    0    0    0  501 -0.00000000000E+00 -0.00000000000E+00 -0.39628329851E+01  0.42095659239E+01  0.14200000000E+01 0.  1.
       1023    2    1    2    0    0  0.00000000000E+00  0.00000000000E+00  0.20245357469E+02  0.28459367677E+02  0.20001527680E+02 0.  0.
        -13    1    3    3    0    0 -0.76571079078E+01  0.64320718980E+01  0.10173074486E+02  0.14265534249E+02  0.10570000000E+00 0.  1.
         13    1    3    3    0    0  0.76571079078E+01 -0.64320718980E+01  0.10072282983E+02  0.14193833428E+02  0.10570000000E+00 0. -1.
<mgrwt>
<rscale>  0 0.20001528E+02</rscale>
<asrwt>0</asrwt>
<pdfrwt beam="1">  1        4 0.37465173E-02 0.20001528E+02</pdfrwt>
<pdfrwt beam="2">  1       -4 0.63184694E-03 0.20001528E+02</pdfrwt>
<totfact> 0.12535057E+06</totfact>
</mgrwt>
</event>
<event>
 4    1  0.2024567E-006  0.2322960E+02  0.7818608E-02  0.1687815E+00
         -4   -1    0    0    0  501 -0.00000000000E+00  0.00000000000E+00  0.18346231511E+02  0.18401103517E+02  0.14200000000E+01 0.  1.
          4   -1    0    0  501    0  0.00000000000E+00 -0.00000000000E+00 -0.72180709630E+01  0.73564222573E+01  0.14200000000E+01 0. -1.
        -13    1    1    2    0    0  0.11274575230E+02 -0.16784931490E+00  0.24776140712E+01  0.11545300515E+02  0.10570000000E+00 0. -1.
         13    1    1    2    0    0 -0.11274575230E+02  0.16784931490E+00  0.86505464766E+01  0.14212225260E+02  0.10570000000E+00 0.  1.
<mgrwt>
<rscale>  0 0.23229597E+02</rscale>
<asrwt>0</asrwt>
<pdfrwt beam="2">  1        4 0.11253358E-02 0.23229597E+02</pdfrwt>
<pdfrwt beam="1">  1       -4 0.28373605E-02 0.23229597E+02</pdfrwt>
<totfact> 0.92817537E+05</totfact>
</mgrwt>
</event>
<event>
 4    1  0.4710515E-007  0.2022176E+02  0.7818608E-02  0.1740954E+00
          4   -1    0    0  501    0  0.00000000000E+00  0.00000000000E+00  0.14886104927E+02  0.14953679143E+02  0.14200000000E+01 0.  1.
         -4   -1    0    0    0  501 -0.00000000000E+00 -0.00000000000E+00 -0.67098735996E+01  0.68584840689E+01  0.14200000000E+01 0. -1.
        -13    1    1    2    0    0 -0.52093818372E+01 -0.86238652912E+01  0.31792037839E+01  0.10565378407E+02  0.10570000000E+00 0. -1.
         13    1    1    2    0    0  0.52093818372E+01  0.86238652912E+01  0.49970275438E+01  0.11246784805E+02  0.10570000000E+00 0.  1.
<mgrwt>
<rscale>  0 0.20221763E+02</rscale>
<asrwt>0</asrwt>
<pdfrwt beam="1">  1        4 0.23067996E-02 0.20221763E+02</pdfrwt>
<pdfrwt beam="2">  1       -4 0.10489178E-02 0.20221763E+02</pdfrwt>
<totfact> 0.12619676E+06</totfact>
</mgrwt>
</event>
<event>
 5    1  0.4710515E-007  0.2000164E+02  0.7818608E-02  0.1745296E+00
         -4   -1    0    0    0  501 -0.00000000000E+00  0.00000000000E+00  0.40592151440E+01  0.43004217915E+01  0.14200000000E+01 0.  1.
          4   -1    0    0  501    0  0.00000000000E+00 -0.00000000000E+00 -0.23665299420E+02  0.23707863604E+02  0.14200000000E+01 0. -1.
       1023    2    1    2    0    0  0.00000000000E+00  0.00000000000E+00 -0.19606084276E+02  0.28008285395E+02  0.20001637686E+02 0.  0.
        -13    1    3    3    0    0  0.91062755112E+01  0.41325143161E+01 -0.97228845004E+01  0.13948031537E+02  0.10570000000E+00 0.  1.
         13    1    3    3    0    0 -0.91062755112E+01 -0.41325143161E+01 -0.98831997759E+01  0.14060253858E+02  0.10570000000E+00 0. -1.
<mgrwt>
<rscale>  0 0.20001638E+02</rscale>
<asrwt>0</asrwt>
<pdfrwt beam="2">  1        4 0.36626437E-02 0.20001638E+02</pdfrwt>
<pdfrwt beam="1">  1       -4 0.64632318E-03 0.20001638E+02</pdfrwt>
<totfact> 0.12559015E+06</totfact>
</mgrwt>
</event>
<event>
 4    1  0.4710515E-007  0.2001289E+02  0.7818608E-02  0.1745072E+00
          4   -1    0    0  501    0  0.00000000000E+00  0.00000000000E+00  0.35921513550E+01  0.38626352865E+01  0.14200000000E+01 0. -1.
         -4   -1    0    0    0  501 -0.00000000000E+00 -0.00000000000E+00 -0.26572862207E+02  0.26610776123E+02  0.14200000000E+01 0.  1.
        -13    1    1    2    0    0 -0.82522427868E+01 -0.56584546538E+01 -0.11508394481E+02  0.15250309378E+02  0.10570000000E+00 0. -1.
         13    1    1    2    0    0  0.82522427868E+01  0.56584546538E+01 -0.11472316371E+02  0.15223102032E+02  0.10570000000E+00 0.  1.
<mgrwt>
<rscale>  0 0.20012889E+02</rscale>
<asrwt>0</asrwt>
<pdfrwt beam="1">  1        4 0.57636160E-03 0.20012889E+02</pdfrwt>
<pdfrwt beam="2">  1       -4 0.41118554E-02 0.20012889E+02</pdfrwt>
<totfact> 0.12414826E+06</totfact>
</mgrwt>
</event>
<event>
 5    1  0.4937798E-007  0.2000161E+02  0.7818608E-02  0.1745296E+00
          4   -1    0    0  501    0  0.00000000000E+00  0.00000000000E+00  0.16447280616E+02  0.16508465697E+02  0.14200000000E+01 0. -1.
         -4   -1    0    0    0  501 -0.00000000000E+00 -0.00000000000E+00 -0.59244833523E+01  0.60922822482E+01  0.14200000000E+01 0.  1.
       1023    2    1    2    0    0  0.00000000000E+00  0.00000000000E+00  0.10522797264E+02  0.22600747945E+02  0.20001613570E+02 0.  0.
        -13    1    3    3    0    0 -0.46992890658E+01  0.88270752483E+01  0.51865427828E+01  0.11265521457E+02  0.10570000000E+00 0.  1.
         13    1    3    3    0    0  0.46992890658E+01 -0.88270752483E+01  0.53362544809E+01  0.11335226488E+02  0.10570000000E+00 0. -1.
<mgrwt>
<rscale>  0 0.20001614E+02</rscale>
<asrwt>0</asrwt>
<pdfrwt beam="1">  1        4 0.25479650E-02 0.20001614E+02</pdfrwt>
<pdfrwt beam="2">  1       -4 0.92907314E-03 0.20001614E+02</pdfrwt>
<totfact> 0.12859379E+06</totfact>
</mgrwt>
</event>
<event>
 5    1  0.4710515E-007  0.2000484E+02  0.7818608E-02  0.1745232E+00
          4   -1    0    0  501    0  0.00000000000E+00  0.00000000000E+00  0.33815982155E+02  0.33845783328E+02  0.14200000000E+01 0. -1.
         -4   -1    0    0    0  501 -0.00000000000E+00 -0.00000000000E+00 -0.27552357686E+01  0.30996329042E+01  0.14200000000E+01 0.  1.
       1023    2    1    2    0    0  0.00000000000E+00  0.00000000000E+00  0.31060746386E+02  0.36945416232E+02  0.20004844776E+02 0.  0.
        -13    1    3    3    0    0 -0.67743969358E+01 -0.73581302361E+01  0.15433582697E+02  0.18391334421E+02  0.10570000000E+00 0.  1.
         13    1    3    3    0    0  0.67743969358E+01  0.73581302361E+01  0.15627163689E+02  0.18554081812E+02  0.10570000000E+00 0. -1.
<mgrwt>
<rscale>  0 0.20004845E+02</rscale>
<asrwt>0</asrwt>
<pdfrwt beam="1">  1        4 0.52312430E-02 0.20004845E+02</pdfrwt>
<pdfrwt beam="2">  1       -4 0.45266693E-03 0.20004845E+02</pdfrwt>
<totfact> 0.12101284E+06</totfact>
</mgrwt>
</event>
<event>
 4    1  0.4710515E-007  0.2004732E+02  0.7818608E-02  0.1744389E+00
         -4   -1    0    0    0  501 -0.00000000000E+00  0.00000000000E+00  0.92568592316E+00  0.16950794755E+01  0.14200000000E+01 0. -1.
          4   -1    0    0  501    0  0.00000000000E+00 -0.00000000000E+00 -0.75897167077E+02  0.75910449678E+02  0.14200000000E+01 0.  1.
        -13    1    1    2    0    0  0.80455281912E+01 -0.59509755112E+01 -0.35302807233E+02  0.36693923263E+02  0.10570000000E+00 0.  1.
         13    1    1    2    0    0 -0.80455281912E+01  0.59509755112E+01 -0.39668673920E+02  0.40911605890E+02  0.10570000000E+00 0. -1.
<mgrwt>
<rscale>  0 0.20047323E+02</rscale>
<asrwt>0</asrwt>
<pdfrwt beam="2">  1        4 0.11736690E-01 0.20047323E+02</pdfrwt>
<pdfrwt beam="1">  1       -4 0.20261914E-03 0.20047323E+02</pdfrwt>
<totfact> 0.10440571E+06</totfact>
</mgrwt>
</event>
<event>
 4    1  0.4710515E-007  0.2001614E+02  0.7818608E-02  0.1745007E+00
         -4   -1    0    0    0  501 -0.00000000000E+00  0.00000000000E+00  0.66814459328E+01  0.68306749119E+01  0.14200000000E+01 0.  1.
          4   -1    0    0  501    0  0.00000000000E+00 -0.00000000000E+00 -0.14641460576E+02  0.14710158660E+02  0.14200000000E+01 0. -1.
        -13    1    1    2    0    0  0.99798279556E+01 -0.70747110315E+00 -0.37328020909E+01  0.10679066688E+02  0.10570000000E+00 0. -1.
         13    1    1    2    0    0 -0.99798279556E+01  0.70747110315E+00 -0.42272125523E+01  0.10861766884E+02  0.10570000000E+00 0.  1.
<mgrwt>
<rscale>  0 0.20016135E+02</rscale>
<asrwt>0</asrwt>
<pdfrwt beam="2">  1        4 0.22692960E-02 0.20016135E+02</pdfrwt>
<pdfrwt beam="1">  1       -4 0.10446784E-02 0.20016135E+02</pdfrwt>
<totfact> 0.12901733E+06</totfact>
</mgrwt>
</event>
<event>
 5    1  0.5531365E-007  0.2000283E+02  0.7818608E-02  0.1745272E+00
          4   -1    0    0  501    0  0.00000000000E+00  0.00000000000E+00  0.26926836882E+02  0.26964253085E+02  0.14200000000E+01 0.  1.
         -4   -1    0    0    0  501 -0.00000000000E+00 -0.00000000000E+00 -0.35375466239E+01  0.38119071495E+01  0.14200000000E+01 0. -1.
       1023    2    1    2    0    0  0.00000000000E+00  0.00000000000E+00  0.23389290258E+02  0.30776160235E+02  0.20002828301E+02 0.  0.
        -13    1    3    3    0    0 -0.99833481145E+01 -0.58758423275E+00  0.11799198161E+02  0.15467538412E+02  0.10570000000E+00 0.  1.
         13    1    3    3    0    0  0.99833481145E+01  0.58758423275E+00  0.11590092097E+02  0.15308621823E+02  0.10570000000E+00 0. -1.
<mgrwt>
<rscale>  0 0.20002828E+02</rscale>
<asrwt>0</asrwt>
<pdfrwt beam="1">  1        4 0.41665731E-02 0.20002828E+02</pdfrwt>
<pdfrwt beam="2">  1       -4 0.56822077E-03 0.20002828E+02</pdfrwt>
<totfact> 0.12411832E+06</totfact>
</mgrwt>
</event>
<event>
 5    1  0.4710515E-007  0.2000309E+02  0.7818608E-02  0.1745267E+00
          4   -1    0    0  501    0  0.00000000000E+00  0.00000000000E+00  0.52774831580E+02  0.52793931927E+02  0.14200000000E+01 0.  1.
         -4   -1    0    0    0  501 -0.00000000000E+00 -0.00000000000E+00 -0.16072160791E+01  0.21446546400E+01  0.14200000000E+01 0. -1.
       1023    2    1    2    0    0  0.00000000000E+00  0.00000000000E+00  0.51167615501E+02  0.54938586567E+02  0.20003085210E+02 0.  0.
        -13    1    3    3    0    0 -0.97812443164E+01  0.20812994457E+01  0.25245929167E+02  0.27154606603E+02  0.10570000000E+00 0. -1.
         13    1    3    3    0    0  0.97812443164E+01 -0.20812994457E+01  0.25921686334E+02  0.27783979964E+02  0.10570000000E+00 0.  1.
<mgrwt>
<rscale>  0 0.20003085E+02</rscale>
<asrwt>0</asrwt>
<pdfrwt beam="1">  1        4 0.81620149E-02 0.20003085E+02</pdfrwt>
<pdfrwt beam="2">  1       -4 0.29007472E-03 0.20003085E+02</pdfrwt>
<totfact> 0.11313857E+06</totfact>
</mgrwt>
</event>
<event>
 5    1  0.4905901E-007  0.2000182E+02  0.7818608E-02  0.1745292E+00
         -4   -1    0    0    0  501 -0.00000000000E+00  0.00000000000E+00  0.37628116870E+02  0.37654901131E+02  0.14200000000E+01 0.  1.
          4   -1    0    0  501    0  0.00000000000E+00 -0.00000000000E+00 -0.24386192261E+01  0.28219255359E+01  0.14200000000E+01 0. -1.
       1023    2    1    2    0    0  0.00000000000E+00  0.00000000000E+00  0.35189497644E+02  0.40476826667E+02  0.20001818732E+02 0.  0.
        -13    1    3    3    0    0 -0.80977692086E+01  0.58674881567E+01  0.17441534680E+02  0.20105212953E+02  0.10570000000E+00 0.  1.
         13    1    3    3    0    0  0.80977692086E+01 -0.58674881567E+01  0.17747962964E+02  0.20371613714E+02  0.10570000000E+00 0. -1.
<mgrwt>
<rscale>  0 0.20001819E+02</rscale>
<asrwt>0</asrwt>
<pdfrwt beam="2">  1        4 0.40671766E-03 0.20001819E+02</pdfrwt>
<pdfrwt beam="1">  1       -4 0.58204859E-02 0.20001819E+02</pdfrwt>
<totfact> 0.11938276E+06</totfact>
</mgrwt>
</event>
<event>
 5    1  0.4710515E-007  0.2000461E+02  0.7818608E-02  0.1745236E+00
         -4   -1    0    0    0  501 -0.00000000000E+00  0.00000000000E+00  0.85831262450E+01  0.86997963274E+01  0.14200000000E+01 0. -1.
          4   -1    0    0  501    0  0.00000000000E+00 -0.00000000000E+00 -0.11416497804E+02  0.11504469657E+02  0.14200000000E+01 0.  1.
       1023    2    1    2    0    0  0.00000000000E+00  0.00000000000E+00 -0.28333715585E+01  0.20204265985E+02  0.20004608709E+02 0.  0.
        -13    1    3    3    0    0  0.92245454611E+01  0.38642497620E+01 -0.15189620665E+01  0.10116475841E+02  0.10570000000E+00 0.  1.
         13    1    3    3    0    0 -0.92245454611E+01 -0.38642497620E+01 -0.13144094920E+01  0.10087790144E+02  0.10570000000E+00 0. -1.
<mgrwt>
<rscale>  0 0.20004609E+02</rscale>
<asrwt>0</asrwt>
<pdfrwt beam="2">  1        4 0.17721260E-02 0.20004609E+02</pdfrwt>
<pdfrwt beam="1">  1       -4 0.13362226E-02 0.20004609E+02</pdfrwt>
<totfact> 0.12995775E+06</totfact>
</mgrwt>
</event>
<event>
 5    1  0.4710515E-007  0.2000589E+02  0.7818608E-02  0.1745211E+00
          4   -1    0    0  501    0  0.00000000000E+00  0.00000000000E+00  0.72506941157E+01  0.73884345541E+01  0.14200000000E+01 0.  1.
         -4   -1    0    0    0  501 -0.00000000000E+00 -0.00000000000E+00 -0.13494713165E+02  0.13569218231E+02  0.14200000000E+01 0. -1.
       1023    2    1    2    0    0  0.00000000000E+00  0.00000000000E+00 -0.62440190493E+01  0.20957652785E+02  0.20005885044E+02 0.  0.
        -13    1    3    3    0    0  0.35459743809E+01  0.93519206866E+01 -0.29922972778E+01  0.10440180570E+02  0.10570000000E+00 0. -1.
         13    1    3    3    0    0 -0.35459743809E+01 -0.93519206866E+01 -0.32517217716E+01  0.10517472216E+02  0.10570000000E+00 0.  1.
<mgrwt>
<rscale>  0 0.20005885E+02</rscale>
<asrwt>0</asrwt>
<pdfrwt beam="1">  1        4 0.11318180E-02 0.20005885E+02</pdfrwt>
<pdfrwt beam="2">  1       -4 0.20924363E-02 0.20005885E+02</pdfrwt>
<totfact> 0.12949475E+06</totfact>
</mgrwt>
</event>
<event>
 5    1  0.4710515E-007  0.2000721E+02  0.7818608E-02  0.1745185E+00
         -4   -1    0    0    0  501 -0.00000000000E+00  0.00000000000E+00  0.70421924348E+02  0.70436239457E+02  0.14200000000E+01 0. -1.
          4   -1    0    0  501    0  0.00000000000E+00 -0.00000000000E+00 -0.10481424727E+01  0.17649370082E+01  0.14200000000E+01 0.  1.
       1023    2    1    2    0    0  0.00000000000E+00  0.00000000000E+00  0.69373781875E+02  0.72201176466E+02  0.20007205485E+02 0.  0.
        -13    1    3    3    0    0 -0.76768128170E+01 -0.64090205242E+01  0.35508993012E+02  0.36890496830E+02  0.10570000000E+00 0. -1.
         13    1    3    3    0    0  0.76768128170E+01  0.64090205242E+01  0.33864788863E+02  0.35310679636E+02  0.10570000000E+00 0.  1.
<mgrwt>
<rscale>  0 0.20007205E+02</rscale>
<asrwt>0</asrwt>
<pdfrwt beam="2">  1        4 0.21749190E-03 0.20007205E+02</pdfrwt>
<pdfrwt beam="1">  1       -4 0.10890381E-01 0.20007205E+02</pdfrwt>
<totfact> 0.10666063E+06</totfact>
</mgrwt>
</event>
<event>
 5    1  0.4710515E-007  0.2000536E+02  0.7818608E-02  0.1745222E+00
         -4   -1    0    0    0  501 -0.00000000000E+00  0.00000000000E+00  0.98061419277E+01  0.99084216455E+01  0.14200000000E+01 0. -1.
          4   -1    0    0  501    0  0.00000000000E+00 -0.00000000000E+00 -0.99975088879E+01  0.10097850463E+02  0.14200000000E+01 0.  1.
       1023    2    1    2    0    0  0.00000000000E+00  0.00000000000E+00 -0.19136696020E+00  0.20006272108E+02  0.20005356841E+02 0.  0.
        -13    1    3    3    0    0  0.37128487295E+01  0.92864993825E+01  0.38809209567E-01  0.10001849585E+02  0.10570000000E+00 0. -1.
         13    1    3    3    0    0 -0.37128487295E+01 -0.92864993825E+01 -0.23017616976E+00  0.10004422523E+02  0.10570000000E+00 0.  1.
<mgrwt>
<rscale>  0 0.20005357E+02</rscale>
<asrwt>0</asrwt>
<pdfrwt beam="2">  1        4 0.15536645E-02 0.20005357E+02</pdfrwt>
<pdfrwt beam="1">  1       -4 0.15242235E-02 0.20005357E+02</pdfrwt>
<totfact> 0.13006557E+06</totfact>
</mgrwt>
</event>
<event>
 5    1  0.4710515E-007  0.2001181E+02  0.7818608E-02  0.1745093E+00
         -4   -1    0    0    0  501 -0.00000000000E+00  0.00000000000E+00  0.20006159969E+01  0.24533373937E+01  0.14200000000E+01 0. -1.
          4   -1    0    0  501    0  0.00000000000E+00 -0.00000000000E+00 -0.44491773323E+02  0.44514427924E+02  0.14200000000E+01 0.  1.
       1023    2    1    2    0    0  0.00000000000E+00  0.00000000000E+00 -0.42491157326E+02  0.46967765318E+02  0.20011809714E+02 0.  0.
        -13    1    3    3    0    0 -0.89958249968E-01  0.10003332274E+02 -0.20824355784E+02  0.23102807521E+02  0.10570000000E+00 0. -1.
         13    1    3    3    0    0  0.89958249968E-01 -0.10003332274E+02 -0.21666801542E+02  0.23864957796E+02  0.10570000000E+00 0.  1.
<mgrwt>
<rscale>  0 0.20011810E+02</rscale>
<asrwt>0</asrwt>
<pdfrwt beam="2">  1        4 0.68814550E-02 0.20011810E+02</pdfrwt>
<pdfrwt beam="1">  1       -4 0.34435449E-03 0.20011810E+02</pdfrwt>
<totfact> 0.11635787E+06</totfact>
</mgrwt>
</event>
<event>
 4    1  0.4710515E-007  0.2010245E+02  0.7818608E-02  0.1743298E+00
          4   -1    0    0  501    0  0.00000000000E+00  0.00000000000E+00  0.89712399361E+02  0.89723636791E+02  0.14200000000E+01 0.  1.
         -4   -1    0    0    0  501 -0.00000000000E+00 -0.00000000000E+00 -0.66259133286E+00  0.15669803044E+01  0.14200000000E+01 0. -1.
        -13    1    1    2    0    0  0.82618131743E+01  0.56813778190E+01  0.41377534244E+02  0.42575193758E+02  0.10570000000E+00 0. -1.
         13    1    1    2    0    0 -0.82618131743E+01 -0.56813778190E+01  0.47672273783E+02  0.48715423338E+02  0.10570000000E+00 0.  1.
<mgrwt>
<rscale>  0 0.20102449E+02</rscale>
<asrwt>0</asrwt>
<pdfrwt beam="1">  1        4 0.13872343E-01 0.20102449E+02</pdfrwt>
<pdfrwt beam="2">  1       -4 0.17236990E-03 0.20102449E+02</pdfrwt>
<totfact> 0.99543603E+05</totfact>
</mgrwt>
</event>
<event>
 5    1  0.4710515E-007  0.2000255E+02  0.7818608E-02  0.1745277E+00
         -4   -1    0    0    0  501 -0.00000000000E+00  0.00000000000E+00  0.20012410186E+02  0.20062725674E+02  0.14200000000E+01 0. -1.
          4   -1    0    0  501    0  0.00000000000E+00 -0.00000000000E+00 -0.48394390610E+01  0.50434680950E+01  0.14200000000E+01 0.  1.
       1023    2    1    2    0    0  0.00000000000E+00  0.00000000000E+00  0.15172971125E+02  0.25106193769E+02  0.20002547658E+02 0.  0.
        -13    1    3    3    0    0 -0.25270009079E+01  0.96759457974E+01  0.76720297528E+01  0.12604795662E+02  0.10570000000E+00 0.  1.
         13    1    3    3    0    0  0.25270009079E+01 -0.96759457974E+01  0.75009413726E+01  0.12501398107E+02  0.10570000000E+00 0. -1.
<mgrwt>
<rscale>  0 0.20002548E+02</rscale>
<asrwt>0</asrwt>
<pdfrwt beam="2">  1        4 0.76409405E-03 0.20002548E+02</pdfrwt>
<pdfrwt beam="1">  1       -4 0.30983973E-02 0.20002548E+02</pdfrwt>
<totfact> 0.12716375E+06</totfact>
</mgrwt>
</event>
<event>
 5    1  0.4710515E-007  0.2000292E+02  0.7818608E-02  0.1745270E+00
         -4   -1    0    0    0  501 -0.00000000000E+00  0.00000000000E+00  0.45260727678E+00  0.14903869789E+01  0.14200000000E+01 0.  1.
          4   -1    0    0  501    0  0.00000000000E+00 -0.00000000000E+00 -0.10191864154E+03  0.10192853326E+03  0.14200000000E+01 0. -1.
       1023    2    1    2    0    0  0.00000000000E+00  0.00000000000E+00 -0.10146603426E+03  0.10341892024E+03  0.20002923664E+02 0.  0.
        -13    1    3    3    0    0 -0.20093555874E+01  0.97966036193E+01 -0.51169092500E+02  0.52137300966E+02  0.10570000000E+00 0. -1.
         13    1    3    3    0    0  0.20093555874E+01 -0.97966036193E+01 -0.50296941761E+02  0.51281619274E+02  0.10570000000E+00 0.  1.
<mgrwt>
<rscale>  0 0.20002924E+02</rscale>
<asrwt>0</asrwt>
<pdfrwt beam="2">  1        4 0.15760373E-01 0.20002924E+02</pdfrwt>
<pdfrwt beam="1">  1       -4 0.15022208E-03 0.20002924E+02</pdfrwt>
<totfact> 0.97021398E+05</totfact>
</mgrwt>
</event>
<event>
 4    1  0.4710515E-007  0.2001551E+02  0.7818608E-02  0.1745020E+00
          4   -1    0    0  501    0  0.00000000000E+00  0.00000000000E+00  0.11032438823E+02  0.11123448493E+02  0.14200000000E+01 0.  1.
         -4   -1    0    0    0  501 -0.00000000000E+00 -0.00000000000E+00 -0.88933827909E+01  0.90060345027E+01  0.14200000000E+01 0. -1.
        -13    1    1    2    0    0 -0.23444314232E+01 -0.97256119814E+01  0.13160188584E+01  0.10090934805E+02  0.10570000000E+00 0. -1.
         13    1    1    2    0    0  0.23444314232E+01  0.97256119814E+01  0.82303717395E+00  0.10038548191E+02  0.10570000000E+00 0.  1.
<mgrwt>
<rscale>  0 0.20015507E+02</rscale>
<asrwt>0</asrwt>
<pdfrwt beam="1">  1        4 0.17129645E-02 0.20015507E+02</pdfrwt>
<pdfrwt beam="2">  1       -4 0.13838790E-02 0.20015507E+02</pdfrwt>
<totfact> 0.12985794E+06</totfact>
</mgrwt>
</event>
<event>
 5    1  0.4710515E-007  0.2000288E+02  0.7818608E-02  0.1745271E+00
          4   -1    0    0  501    0  0.00000000000E+00  0.00000000000E+00  0.29114514027E+01  0.32392822153E+01  0.14200000000E+01 0.  1.
         -4   -1    0    0    0  501 -0.00000000000E+00 -0.00000000000E+00 -0.32181485762E+02  0.32212799099E+02  0.14200000000E+01 0. -1.
       1023    2    1    2    0    0  0.00000000000E+00  0.00000000000E+00 -0.29270034359E+02  0.35452081315E+02  0.20002878747E+02 0.  0.
        -13    1    3    3    0    0  0.90693795829E+01 -0.42144270583E+01 -0.14724964682E+02  0.17800303335E+02  0.10570000000E+00 0. -1.
         13    1    3    3    0    0 -0.90693795829E+01  0.42144270583E+01 -0.14545069677E+02  0.17651777980E+02  0.10570000000E+00 0.  1.
<mgrwt>
<rscale>  0 0.20002879E+02</rscale>
<asrwt>0</asrwt>
<pdfrwt beam="1">  1        4 0.47554209E-03 0.20002879E+02</pdfrwt>
<pdfrwt beam="2">  1       -4 0.49786241E-02 0.20002879E+02</pdfrwt>
<totfact> 0.12176222E+06</totfact>
</mgrwt>
</event>
<event>
 5    1  0.4851958E-007  0.2000220E+02  0.7818608E-02  0.1745284E+00
          4   -1    0    0  501    0  0.00000000000E+00  0.00000000000E+00  0.89599833782E+01  0.90718080964E+01  0.14200000000E+01 0.  1.
         -4   -1    0    0    0  501 -0.00000000000E+00 -0.00000000000E+00 -0.10935948921E+02  0.11027754930E+02  0.14200000000E+01 0. -1.
       1023    2    1    2    0    0  0.00000000000E+00  0.00000000000E+00 -0.19759655423E+01  0.20099563026E+02  0.20002199730E+02 0.  0.
        -13    1    3    3    0    0  0.95162971800E+01 -0.30742336691E+01 -0.98914763000E+00  0.10049896029E+02  0.10570000000E+00 0. -1.
         13    1    3    3    0    0 -0.95162971800E+01  0.30742336691E+01 -0.98681791230E+00  0.10049666997E+02  0.10570000000E+00 0.  1.
<mgrwt>
<rscale>  0 0.20002200E+02</rscale>
<asrwt>0</asrwt>
<pdfrwt beam="1">  1        4 0.13941229E-02 0.20002200E+02</pdfrwt>
<pdfrwt beam="2">  1       -4 0.16981176E-02 0.20002200E+02</pdfrwt>
<totfact> 0.13005217E+06</totfact>
</mgrwt>
</event>
<event>
 4    1  0.4710515E-007  0.2001422E+02  0.7818608E-02  0.1745045E+00
          4   -1    0    0  501    0  0.00000000000E+00  0.00000000000E+00  0.86582039541E+02  0.86593683205E+02  0.14200000000E+01 0. -1.
         -4   -1    0    0    0  501 -0.00000000000E+00 -0.00000000000E+00 -0.70455258571E+00  0.15851795943E+01  0.14200000000E+01 0.  1.
        -13    1    1    2    0    0 -0.24541201827E+01  0.97003235365E+01  0.42453811094E+02  0.43617155243E+02  0.10570000000E+00 0. -1.
         13    1    1    2    0    0  0.24541201827E+01 -0.97003235365E+01  0.43423675861E+02  0.44561707557E+02  0.10570000000E+00 0.  1.
<mgrwt>
<rscale>  0 0.20014222E+02</rscale>
<asrwt>0</asrwt>
<pdfrwt beam="1">  1        4 0.13388952E-01 0.20014222E+02</pdfrwt>
<pdfrwt beam="2">  1       -4 0.17702889E-03 0.20014222E+02</pdfrwt>
<totfact> 0.10137113E+06</totfact>
</mgrwt>
</event>
<event>
 5    1  0.4944764E-007  0.2000154E+02  0.7818608E-02  0.1745297E+00
         -4   -1    0    0    0  501 -0.00000000000E+00  0.00000000000E+00  0.72652259883E+01  0.74026960400E+01  0.14200000000E+01 0. -1.
          4   -1    0    0  501    0  0.00000000000E+00 -0.00000000000E+00 -0.13462136106E+02  0.13536820474E+02  0.14200000000E+01 0.  1.
       1023    2    1    2    0    0  0.00000000000E+00  0.00000000000E+00 -0.61969101179E+01  0.20939516514E+02  0.20001541361E+02 0.  0.
        -13    1    3    3    0    0 -0.23560374757E+01 -0.97186703883E+01 -0.31275996366E+01  0.10478383400E+02  0.10570000000E+00 0. -1.
         13    1    3    3    0    0  0.23560374757E+01  0.97186703883E+01 -0.30693104813E+01  0.10461133114E+02  0.10570000000E+00 0.  1.
<mgrwt>
<rscale>  0 0.20001541E+02</rscale>
<asrwt>0</asrwt>
<pdfrwt beam="2">  1        4 0.20874174E-02 0.20001541E+02</pdfrwt>
<pdfrwt beam="1">  1       -4 0.11340467E-02 0.20001541E+02</pdfrwt>
<totfact> 0.12956284E+06</totfact>
</mgrwt>
</event>
<event>
 5    1  0.4710515E-007  0.2000161E+02  0.7818608E-02  0.1745296E+00
         -4   -1    0    0    0  501 -0.00000000000E+00  0.00000000000E+00  0.28488065187E+02  0.28523433490E+02  0.14200000000E+01 0.  1.
          4   -1    0    0  501    0  0.00000000000E+00 -0.00000000000E+00 -0.33280282028E+01  0.36183106166E+01  0.14200000000E+01 0. -1.
       1023    2    1    2    0    0  0.00000000000E+00  0.00000000000E+00  0.25160036984E+02  0.32141744107E+02  0.20001606266E+02 0.  0.
        -13    1    3    3    0    0  0.99821106577E+01 -0.59848344514E+00  0.12476183670E+02  0.15989591836E+02  0.10570000000E+00 0. -1.
         13    1    3    3    0    0 -0.99821106577E+01  0.59848344514E+00  0.12683853314E+02  0.16152152271E+02  0.10570000000E+00 0.  1.
<mgrwt>
<rscale>  0 0.20001606E+02</rscale>
<asrwt>0</asrwt>
<pdfrwt beam="2">  1        4 0.53705440E-03 0.20001606E+02</pdfrwt>
<pdfrwt beam="1">  1       -4 0.44078292E-02 0.20001606E+02</pdfrwt>
<totfact> 0.12343218E+06</totfact>
</mgrwt>
</event>
<event>
 5    1  0.4710515E-007  0.2000198E+02  0.7818608E-02  0.1745289E+00
          4   -1    0    0  501    0  0.00000000000E+00  0.00000000000E+00  0.82553295024E+02  0.82565506838E+02  0.14200000000E+01 0.  1.
         -4   -1    0    0    0  501 -0.00000000000E+00 -0.00000000000E+00 -0.77889867331E+00  0.16195935117E+01  0.14200000000E+01 0. -1.
       1023    2    1    2    0    0  0.00000000000E+00  0.00000000000E+00  0.81774396351E+02  0.84185100349E+02  0.20001980459E+02 0.  0.
        -13    1    3    3    0    0  0.87008293702E+01  0.49297112071E+01  0.40692098476E+02  0.41903037303E+02  0.10570000000E+00 0.  1.
         13    1    3    3    0    0 -0.87008293702E+01 -0.49297112071E+01  0.41082297874E+02  0.42282063046E+02  0.10570000000E+00 0. -1.
<mgrwt>
<rscale>  0 0.20001980E+02</rscale>
<asrwt>0</asrwt>
<pdfrwt beam="1">  1        4 0.12766115E-01 0.20001980E+02</pdfrwt>
<pdfrwt beam="2">  1       -4 0.18543878E-03 0.20001980E+02</pdfrwt>
<totfact> 0.10274419E+06</totfact>
</mgrwt>
</event>
<event>
 4    1  0.4710515E-007  0.2001847E+02  0.7818608E-02  0.1744961E+00
         -4   -1    0    0    0  501 -0.00000000000E+00  0.00000000000E+00  0.26829513322E+02  0.26867065063E+02  0.14200000000E+01 0. -1.
          4   -1    0    0  501    0  0.00000000000E+00 -0.00000000000E+00 -0.35573982947E+01  0.38303371428E+01  0.14200000000E+01 0.  1.
        -13    1    1    2    0    0  0.20970430609E+00  0.10005893047E+02  0.11802259006E+02  0.15474700698E+02  0.10570000000E+00 0. -1.
         13    1    1    2    0    0 -0.20970430609E+00 -0.10005893047E+02  0.11469856021E+02  0.15222701508E+02  0.10570000000E+00 0.  1.
<mgrwt>
<rscale>  0 0.20018471E+02</rscale>
<asrwt>0</asrwt>
<pdfrwt beam="2">  1        4 0.57117596E-03 0.20018471E+02</pdfrwt>
<pdfrwt beam="1">  1       -4 0.41515011E-02 0.20018471E+02</pdfrwt>
<totfact> 0.12396204E+06</totfact>
</mgrwt>
</event>
<event>
 5    1  0.4710515E-007  0.2000231E+02  0.7818608E-02  0.1745282E+00
          4   -1    0    0  501    0  0.00000000000E+00  0.00000000000E+00  0.91353179872E+02  0.91364215494E+02  0.14200000000E+01 0. -1.
         -4   -1    0    0    0  501 -0.00000000000E+00 -0.00000000000E+00 -0.61864270041E+00  0.15489089033E+01  0.14200000000E+01 0.  1.
       1023    2    1    2    0    0  0.00000000000E+00  0.00000000000E+00  0.90734537172E+02  0.92913124397E+02  0.20002311102E+02 0.  0.
        -13    1    3    3    0    0 -0.81913056303E+00  0.99666656338E+01  0.44991584116E+02  0.46089686618E+02  0.10570000000E+00 0.  1.
         13    1    3    3    0    0  0.81913056303E+00 -0.99666656338E+01  0.45742953056E+02  0.46823437779E+02  0.10570000000E+00 0. -1.
<mgrwt>
<rscale>  0 0.20002311E+02</rscale>
<asrwt>0</asrwt>
<pdfrwt beam="1">  1        4 0.14126745E-01 0.20002311E+02</pdfrwt>
<pdfrwt beam="2">  1       -4 0.16758361E-03 0.20002311E+02</pdfrwt>
<totfact> 0.10005552E+06</totfact>
</mgrwt>
</event>
<event>
 4    1  0.4710515E-007  0.2003946E+02  0.7818608E-02  0.1744545E+00
         -4   -1    0    0    0  501 -0.00000000000E+00  0.00000000000E+00  0.32607624875E+01  0.35565393292E+01  0.14200000000E+01 0.  1.
          4   -1    0    0  501    0  0.00000000000E+00 -0.00000000000E+00 -0.29139173650E+02  0.29173752604E+02  0.14200000000E+01 0. -1.
        -13    1    1    2    0    0 -0.94742370595E+01 -0.32438180704E+01 -0.13456382937E+02  0.16774055496E+02  0.10570000000E+00 0. -1.
         13    1    1    2    0    0  0.94742370595E+01  0.32438180704E+01 -0.12422028226E+02  0.15956236438E+02  0.10570000000E+00 0.  1.
<mgrwt>
<rscale>  0 0.20039457E+02</rscale>
<asrwt>0</asrwt>
<pdfrwt beam="2">  1        4 0.45083616E-02 0.20039457E+02</pdfrwt>
<pdfrwt beam="1">  1       -4 0.52706777E-03 0.20039457E+02</pdfrwt>
<totfact> 0.12266153E+06</totfact>
</mgrwt>
</event>
<event>
 4    1  0.4710515E-007  0.2004704E+02  0.7818608E-02  0.1744394E+00
         -4   -1    0    0    0  501 -0.00000000000E+00  0.00000000000E+00  0.36051494951E+02  0.36079449666E+02  0.14200000000E+01 0.  1.
          4   -1    0    0  501    0  0.00000000000E+00 -0.00000000000E+00 -0.25749736089E+01  0.29405593152E+01  0.14200000000E+01 0. -1.
        -13    1    1    2    0    0 -0.96512186809E+01 -0.26989996508E+01  0.17070360017E+02  0.19794923206E+02  0.10570000000E+00 0. -1.
         13    1    1    2    0    0  0.96512186809E+01  0.26989996508E+01  0.16406161326E+02  0.19225085776E+02  0.10570000000E+00 0.  1.
<mgrwt>
<rscale>  0 0.20047035E+02</rscale>
<asrwt>0</asrwt>
<pdfrwt beam="2">  1        4 0.42642216E-03 0.20047035E+02</pdfrwt>
<pdfrwt beam="1">  1       -4 0.55766558E-02 0.20047035E+02</pdfrwt>
<totfact> 0.11951471E+06</totfact>
</mgrwt>
</event>
<event>
 5    1  0.4710515E-007  0.2000726E+02  0.7818608E-02  0.1745184E+00
          4   -1    0    0  501    0  0.00000000000E+00  0.00000000000E+00  0.39415398010E+01  0.41895269426E+01  0.14200000000E+01 0. -1.
         -4   -1    0    0    0  501 -0.00000000000E+00 -0.00000000000E+00 -0.24345579935E+02  0.24386956808E+02  0.14200000000E+01 0.  1.
       1023    2    1    2    0    0  0.00000000000E+00  0.00000000000E+00 -0.20404040134E+02  0.28576483750E+02  0.20007262925E+02 0.  0.
        -13    1    3    3    0    0  0.79690032246E+01 -0.60461932266E+01 -0.10198818483E+02  0.14285955896E+02  0.10570000000E+00 0. -1.
         13    1    3    3    0    0 -0.79690032246E+01  0.60461932266E+01 -0.10205221651E+02  0.14290527854E+02  0.10570000000E+00 0.  1.
<mgrwt>
<rscale>  0 0.20007263E+02</rscale>
<asrwt>0</asrwt>
<pdfrwt beam="1">  1        4 0.62864952E-03 0.20007263E+02</pdfrwt>
<pdfrwt beam="2">  1       -4 0.37677325E-02 0.20007263E+02</pdfrwt>
<totfact> 0.12521523E+06</totfact>
</mgrwt>
</event>
<event>
 5    1  0.4710515E-007  0.2000344E+02  0.7818608E-02  0.1745260E+00
         -4   -1    0    0    0  501 -0.00000000000E+00  0.00000000000E+00  0.52653390017E+02  0.52672534402E+02  0.14200000000E+01 0.  1.
          4   -1    0    0  501    0  0.00000000000E+00 -0.00000000000E+00 -0.16122373279E+01  0.21484201641E+01  0.14200000000E+01 0. -1.
       1023    2    1    2    0    0  0.00000000000E+00  0.00000000000E+00  0.51041152689E+02  0.54820954566E+02  0.20003444495E+02 0.  0.
        -13    1    3    3    0    0 -0.99037822344E+01  0.13856940316E+01  0.25150599338E+02  0.27066009497E+02  0.10570000000E+00 0.  1.
         13    1    3    3    0    0  0.99037822344E+01 -0.13856940316E+01  0.25890553351E+02  0.27754945070E+02  0.10570000000E+00 0. -1.
<mgrwt>
<rscale>  0 0.20003444E+02</rscale>
<asrwt>0</asrwt>
<pdfrwt beam="2">  1        4 0.29075408E-03 0.20003444E+02</pdfrwt>
<pdfrwt beam="1">  1       -4 0.81432366E-02 0.20003444E+02</pdfrwt>
<totfact> 0.11318169E+06</totfact>
</mgrwt>
</event>
<event>
 5    1  0.4710515E-007  0.2000152E+02  0.7818608E-02  0.1745298E+00
         -4   -1    0    0    0  501 -0.00000000000E+00  0.00000000000E+00  0.28351595446E+02  0.28387133781E+02  0.14200000000E+01 0.  1.
          4   -1    0    0  501    0  0.00000000000E+00 -0.00000000000E+00 -0.33453883004E+01  0.36342843698E+01  0.14200000000E+01 0. -1.
       1023    2    1    2    0    0  0.00000000000E+00  0.00000000000E+00  0.25006207145E+02  0.32021418151E+02  0.20001520558E+02 0.  0.
        -13    1    3    3    0    0  0.51189932846E+01 -0.85905035152E+01  0.12412670898E+02  0.15940088275E+02  0.10570000000E+00 0.  1.
         13    1    3    3    0    0 -0.51189932846E+01  0.85905035152E+01  0.12593536247E+02  0.16081329876E+02  0.10570000000E+00 0. -1.
<mgrwt>
<rscale>  0 0.20001521E+02</rscale>
<asrwt>0</asrwt>
<pdfrwt beam="2">  1        4 0.53963161E-03 0.20001521E+02</pdfrwt>
<pdfrwt beam="1">  1       -4 0.43867405E-02 0.20001521E+02</pdfrwt>
<totfact> 0.12349464E+06</totfact>
</mgrwt>
</event>
<event>
 5    1  0.4710515E-007  0.2000938E+02  0.7818608E-02  0.1745142E+00
          4   -1    0    0  501    0  0.00000000000E+00  0.00000000000E+00  0.20480415431E+01  0.24921625473E+01  0.14200000000E+01 0. -1.
         -4   -1    0    0    0  501 -0.00000000000E+00 -0.00000000000E+00 -0.43635395414E+02  0.43658494396E+02  0.14200000000E+01 0.  1.
       1023    2    1    2    0    0  0.00000000000E+00  0.00000000000E+00 -0.41587353871E+02  0.46150656944E+02  0.20009376160E+02 0.  0.
        -13    1    3    3    0    0 -0.93873458019E+01 -0.34582994721E+01 -0.20846000681E+02  0.23122478529E+02  0.10570000000E+00 0.  1.
         13    1    3    3    0    0  0.93873458019E+01  0.34582994721E+01 -0.20741353190E+02  0.23028178415E+02  0.10570000000E+00 0. -1.
<mgrwt>
<rscale>  0 0.20009376E+02</rscale>
<asrwt>0</asrwt>
<pdfrwt beam="1">  1        4 0.35102335E-03 0.20009376E+02</pdfrwt>
<pdfrwt beam="2">  1       -4 0.67490771E-02 0.20009376E+02</pdfrwt>
<totfact> 0.11674169E+06</totfact>
</mgrwt>
</event>
<event>
 4    1  0.4710515E-007  0.2001602E+02  0.7818608E-02  0.1745010E+00
          4   -1    0    0  501    0  0.00000000000E+00  0.00000000000E+00  0.90356101797E+01  0.91465103356E+01  0.14200000000E+01 0. -1.
         -4   -1    0    0    0  501 -0.00000000000E+00 -0.00000000000E+00 -0.10860047052E+02  0.10952489305E+02  0.14200000000E+01 0.  1.
        -13    1    1    2    0    0  0.80973332716E+01 -0.58788126170E+01 -0.76365995854E+00  0.10036014793E+02  0.10570000000E+00 0. -1.
         13    1    1    2    0    0 -0.80973332716E+01  0.58788126170E+01 -0.10607769140E+01  0.10062984848E+02  0.10570000000E+00 0.  1.
<mgrwt>
<rscale>  0 0.20016024E+02</rscale>
<asrwt>0</asrwt>
<pdfrwt beam="1">  1        4 0.14057356E-02 0.20016024E+02</pdfrwt>
<pdfrwt beam="2">  1       -4 0.16864182E-02 0.20016024E+02</pdfrwt>
<totfact> 0.12986914E+06</totfact>
</mgrwt>
</event>
<event>
 5    1  0.4710515E-007  0.2000256E+02  0.7818608E-02  0.1745277E+00
         -4   -1    0    0    0  501 -0.00000000000E+00  0.00000000000E+00  0.96451139107E+02  0.96461591502E+02  0.14200000000E+01 0. -1.
          4   -1    0    0  501    0  0.00000000000E+00 -0.00000000000E+00 -0.53545046619E+00  0.15175991571E+01  0.14200000000E+01 0.  1.
       1023    2    1    2    0    0  0.00000000000E+00  0.00000000000E+00  0.95915688641E+02  0.97979190659E+02  0.20002561704E+02 0.  0.
        -13    1    3    3    0    0  0.96803073966E+01 -0.25098501130E+01  0.48360203100E+02  0.49383480186E+02  0.10570000000E+00 0.  1.
         13    1    3    3    0    0 -0.96803073966E+01  0.25098501130E+01  0.47555485541E+02  0.48595710473E+02  0.10570000000E+00 0. -1.
<mgrwt>
<rscale>  0 0.20002562E+02</rscale>
<asrwt>0</asrwt>
<pdfrwt beam="2">  1        4 0.15873092E-03 0.20002562E+02</pdfrwt>
<pdfrwt beam="1">  1       -4 0.14914991E-01 0.20002562E+02</pdfrwt>
<totfact> 0.98566545E+05</totfact>
</mgrwt>
</event>
<event>
 4    1  0.4710515E-007  0.2001406E+02  0.7818608E-02  0.1745049E+00
         -4   -1    0    0    0  501 -0.00000000000E+00  0.00000000000E+00  0.79545290265E+02  0.79557963796E+02  0.14200000000E+01 0.  1.
          4   -1    0    0  501    0  0.00000000000E+00 -0.00000000000E+00 -0.84156821143E+00  0.16506474652E+01  0.14200000000E+01 0. -1.
        -13    1    1    2    0    0 -0.32951192715E+01  0.94470345802E+01  0.39996283115E+02  0.41228850443E+02  0.10570000000E+00 0. -1.
         13    1    1    2    0    0  0.32951192715E+01 -0.94470345802E+01  0.38707438938E+02  0.39979760817E+02  0.10570000000E+00 0.  1.
<mgrwt>
<rscale>  0 0.20014062E+02</rscale>
<asrwt>0</asrwt>
<pdfrwt beam="2">  1        4 0.19268381E-03 0.20014062E+02</pdfrwt>
<pdfrwt beam="1">  1       -4 0.12300947E-01 0.20014062E+02</pdfrwt>
<totfact> 0.10357249E+06</totfact>
</mgrwt>
</event>
<event>
 5    1  0.4710515E-007  0.2000583E+02  0.7818608E-02  0.1745212E+00
         -4   -1    0    0    0  501 -0.00000000000E+00  0.00000000000E+00  0.10926198011E+03  0.10927120709E+03  0.14200000000E+01 0.  1.
          4   -1    0    0  501    0  0.00000000000E+00 -0.00000000000E+00 -0.35036678676E+00  0.14625856848E+01  0.14200000000E+01 0. -1.
       1023    2    1    2    0    0  0.00000000000E+00  0.00000000000E+00  0.10891161332E+03  0.11073379277E+03  0.20005832756E+02 0.  0.
        -13    1    3    3    0    0 -0.40017242601E+01  0.91661880077E+01  0.55119183249E+02  0.56019356781E+02  0.10570000000E+00 0.  1.
         13    1    3    3    0    0  0.40017242601E+01 -0.91661880077E+01  0.53792430076E+02  0.54714435989E+02  0.10570000000E+00 0. -1.
<mgrwt>
<rscale>  0 0.20005833E+02</rscale>
<asrwt>0</asrwt>
<pdfrwt beam="2">  1        4 0.14016763E-03 0.20005833E+02</pdfrwt>
<pdfrwt beam="1">  1       -4 0.16895803E-01 0.20005833E+02</pdfrwt>
<totfact> 0.95001992E+05</totfact>
</mgrwt>
</event>
<event>
 5    1  0.4710515E-007  0.2000118E+02  0.7818608E-02  0.1745305E+00
          4   -1    0    0  501    0  0.00000000000E+00  0.00000000000E+00  0.23451932949E+02  0.23494883678E+02  0.14200000000E+01 0.  1.
         -4   -1    0    0    0  501 -0.00000000000E+00 -0.00000000000E+00 -0.40980587248E+01  0.43371056376E+01  0.14200000000E+01 0. -1.
       1023    2    1    2    0    0  0.00000000000E+00  0.00000000000E+00  0.19353874225E+02  0.27831989316E+02  0.20001179510E+02 0.  0.
        -13    1    3    3    0    0 -0.35007399604E+01 -0.93672338140E+01  0.97038247371E+01  0.13934691838E+02  0.10570000000E+00 0.  1.
         13    1    3    3    0    0  0.35007399604E+01  0.93672338140E+01  0.96500494874E+01  0.13897297478E+02  0.10570000000E+00 0. -1.
<mgrwt>
<rscale>  0 0.20001180E+02</rscale>
<asrwt>0</asrwt>
<pdfrwt beam="1">  1        4 0.36296818E-02 0.20001180E+02</pdfrwt>
<pdfrwt beam="2">  1       -4 0.65216270E-03 0.20001180E+02</pdfrwt>
<totfact> 0.12569057E+06</totfact>
</mgrwt>
</event>
<event>
 5    1  0.4710515E-007  0.2000252E+02  0.7818608E-02  0.1745278E+00
         -4   -1    0    0    0  501 -0.00000000000E+00  0.00000000000E+00  0.21546812906E+00  0.14362543349E+01  0.14200000000E+01 0.  1.
          4   -1    0    0  501    0  0.00000000000E+00 -0.00000000000E+00 -0.11988815335E+03  0.11989656256E+03  0.14200000000E+01 0. -1.
       1023    2    1    2    0    0  0.00000000000E+00  0.00000000000E+00 -0.11967268522E+03  0.12133281689E+03  0.20002521532E+02 0.  0.
        -13    1    3    3    0    0  0.96027991569E+01  0.27927529848E+01 -0.59662268093E+02  0.60494715698E+02  0.10570000000E+00 0. -1.
         13    1    3    3    0    0 -0.96027991569E+01 -0.27927529848E+01 -0.60010417127E+02  0.60838101196E+02  0.10570000000E+00 0.  1.
<mgrwt>
<rscale>  0 0.20002522E+02</rscale>
<asrwt>0</asrwt>
<pdfrwt beam="2">  1        4 0.18538871E-01 0.20002522E+02</pdfrwt>
<pdfrwt beam="1">  1       -4 0.12770253E-03 0.20002522E+02</pdfrwt>
<totfact> 0.92300674E+05</totfact>
</mgrwt>
</event>
<event>
 5    1  0.5006594E-007  0.2000127E+02  0.7818608E-02  0.1745303E+00
         -4   -1    0    0    0  501 -0.00000000000E+00  0.00000000000E+00  0.22280767600E+02  0.22325971532E+02  0.14200000000E+01 0.  1.
          4   -1    0    0  501    0  0.00000000000E+00 -0.00000000000E+00 -0.43253126734E+01  0.45524421713E+01  0.14200000000E+01 0. -1.
       1023    2    1    2    0    0  0.00000000000E+00  0.00000000000E+00  0.17955454926E+02  0.26878413703E+02  0.20001268999E+02 0.  0.
        -13    1    3    3    0    0 -0.40172251190E+01 -0.91576973052E+01  0.89784809178E+01  0.13439710178E+02  0.10570000000E+00 0.  1.
         13    1    3    3    0    0  0.40172251190E+01  0.91576973052E+01  0.89769740084E+01  0.13438703525E+02  0.10570000000E+00 0. -1.
<mgrwt>
<rscale>  0 0.20001269E+02</rscale>
<asrwt>0</asrwt>
<pdfrwt beam="2">  1        4 0.68638146E-03 0.20001269E+02</pdfrwt>
<pdfrwt beam="1">  1       -4 0.34487590E-02 0.20001269E+02</pdfrwt>
<totfact> 0.12620474E+06</totfact>
</mgrwt>
</event>
<event>
 4    1  0.4710515E-007  0.2002717E+02  0.7818608E-02  0.1744788E+00
         -4   -1    0    0    0  501 -0.00000000000E+00  0.00000000000E+00  0.25704704229E+00  0.14430776770E+01  0.14200000000E+01 0.  1.
          4   -1    0    0  501    0  0.00000000000E+00 -0.00000000000E+00 -0.11676492535E+03  0.11677355948E+03  0.14200000000E+01 0. -1.
        -13    1    1    2    0    0 -0.99765390667E+01 -0.84481904515E+00 -0.58992955422E+02  0.59836652755E+02  0.10570000000E+00 0.  1.
         13    1    1    2    0    0  0.99765390667E+01  0.84481904515E+00 -0.57514922888E+02  0.58379984397E+02  0.10570000000E+00 0. -1.
<mgrwt>
<rscale>  0 0.20027171E+02</rscale>
<asrwt>0</asrwt>
<pdfrwt beam="2">  1        4 0.18055719E-01 0.20027171E+02</pdfrwt>
<pdfrwt beam="1">  1       -4 0.13144308E-03 0.20027171E+02</pdfrwt>
<totfact> 0.92858381E+05</totfact>
</mgrwt>
</event>
<event>
 5    1  0.5264724E-007  0.2000216E+02  0.7818608E-02  0.1745285E+00
         -4   -1    0    0    0  501 -0.00000000000E+00  0.00000000000E+00  0.14049990366E+02  0.14121566106E+02  0.14200000000E+01 0.  1.
          4   -1    0    0  501    0  0.00000000000E+00 -0.00000000000E+00 -0.69574161965E+01  0.71008478459E+01  0.14200000000E+01 0. -1.
       1023    2    1    2    0    0  0.00000000000E+00  0.00000000000E+00  0.70925741692E+01  0.21222413952E+02  0.20002156023E+02 0.  0.
        -13    1    3    3    0    0 -0.98148558469E+01 -0.19177205515E+01  0.35074261829E+01  0.10598219583E+02  0.10570000000E+00 0.  1.
         13    1    3    3    0    0  0.98148558469E+01  0.19177205515E+01  0.35851479863E+01  0.10624194369E+02  0.10570000000E+00 0. -1.
<mgrwt>
<rscale>  0 0.20002156E+02</rscale>
<asrwt>0</asrwt>
<pdfrwt beam="2">  1        4 0.10869108E-02 0.20002156E+02</pdfrwt>
<pdfrwt beam="1">  1       -4 0.21780760E-02 0.20002156E+02</pdfrwt>
<totfact> 0.12938802E+06</totfact>
</mgrwt>
</event>
<event>
 4    1  0.4710515E-007  0.2003712E+02  0.7818608E-02  0.1744591E+00
         -4   -1    0    0    0  501 -0.00000000000E+00  0.00000000000E+00  0.48294711760E+01  0.50339042342E+01  0.14200000000E+01 0.  1.
          4   -1    0    0  501    0  0.00000000000E+00 -0.00000000000E+00 -0.20122398275E+02  0.20172439425E+02  0.14200000000E+01 0. -1.
        -13    1    1    2    0    0 -0.91227015797E+01 -0.41274955864E+01 -0.80451843078E+01  0.12845079485E+02  0.10570000000E+00 0.  1.
         13    1    1    2    0    0  0.91227015797E+01  0.41274955864E+01 -0.72477427913E+01  0.12361264174E+02  0.10570000000E+00 0. -1.
<mgrwt>
<rscale>  0 0.20037119E+02</rscale>
<asrwt>0</asrwt>
<pdfrwt beam="2">  1        4 0.31153285E-02 0.20037119E+02</pdfrwt>
<pdfrwt beam="1">  1       -4 0.76257051E-03 0.20037119E+02</pdfrwt>
<totfact> 0.12666172E+06</totfact>
</mgrwt>
</event>
<event>
 5    1  0.4710515E-007  0.2000863E+02  0.7818608E-02  0.1745156E+00
         -4   -1    0    0    0  501 -0.00000000000E+00  0.00000000000E+00  0.10371045140E+03  0.10372017224E+03  0.14200000000E+01 0.  1.
          4   -1    0    0  501    0  0.00000000000E+00 -0.00000000000E+00 -0.42755736036E+00  0.14829717787E+01  0.14200000000E+01 0. -1.
       1023    2    1    2    0    0  0.00000000000E+00  0.00000000000E+00  0.10328289404E+03  0.10520314402E+03  0.20008630895E+02 0.  0.
        -13    1    3    3    0    0  0.83711216762E+01  0.54727682518E+01  0.50486091062E+02  0.51467304511E+02  0.10570000000E+00 0. -1.
         13    1    3    3    0    0 -0.83711216762E+01 -0.54727682518E+01  0.52796802977E+02  0.53735839507E+02  0.10570000000E+00 0.  1.
<mgrwt>
<rscale>  0 0.20008631E+02</rscale>
<asrwt>0</asrwt>
<pdfrwt beam="2">  1        4 0.14771155E-03 0.20008631E+02</pdfrwt>
<pdfrwt beam="1">  1       -4 0.16037386E-01 0.20008631E+02</pdfrwt>
<totfact> 0.96472385E+05</totfact>
</mgrwt>
</event>
<event>
 5    1  0.4710515E-007  0.2000173E+02  0.7818608E-02  0.1745294E+00
          4   -1    0    0  501    0  0.00000000000E+00  0.00000000000E+00  0.10400314251E+03  0.10401283599E+03  0.14200000000E+01 0.  1.
         -4   -1    0    0    0  501 -0.00000000000E+00 -0.00000000000E+00 -0.42234755888E+00  0.14814781337E+01  0.14200000000E+01 0. -1.
       1023    2    1    2    0    0  0.00000000000E+00  0.00000000000E+00  0.10358079495E+03  0.10549431413E+03  0.20001730700E+02 0.  0.
        -13    1    3    3    0    0  0.79694249876E+01 -0.60410524734E+01  0.51741587973E+02  0.52699232899E+02  0.10570000000E+00 0.  1.
         13    1    3    3    0    0 -0.79694249876E+01  0.60410524734E+01  0.51839206976E+02  0.52795081230E+02  0.10570000000E+00 0. -1.
<mgrwt>
<rscale>  0 0.20001731E+02</rscale>
<asrwt>0</asrwt>
<pdfrwt beam="1">  1        4 0.16082695E-01 0.20001731E+02</pdfrwt>
<pdfrwt beam="2">  1       -4 0.14719383E-03 0.20001731E+02</pdfrwt>
<totfact> 0.96458567E+05</totfact>
</mgrwt>
</event>
<event>
 5    1  0.4710515E-007  0.2000291E+02  0.7818608E-02  0.1745270E+00
         -4   -1    0    0    0  501 -0.00000000000E+00  0.00000000000E+00  0.63302220818E+01  0.64875350947E+01  0.14200000000E+01 0. -1.
          4   -1    0    0  501    0  0.00000000000E+00 -0.00000000000E+00 -0.15417548603E+02  0.15482803522E+02  0.14200000000E+01 0.  1.
       1023    2    1    2    0    0  0.00000000000E+00  0.00000000000E+00 -0.90873265208E+01  0.21970338617E+02  0.20002906680E+02 0.  0.
        -13    1    3    3    0    0 -0.29557873531E+01  0.95539080250E+01 -0.44736866427E+01  0.10956225723E+02  0.10570000000E+00 0.  1.
         13    1    3    3    0    0  0.29557873531E+01 -0.95539080250E+01 -0.46136398781E+01  0.11014112894E+02  0.10570000000E+00 0. -1.
<mgrwt>
<rscale>  0 0.20002907E+02</rscale>
<asrwt>0</asrwt>
<pdfrwt beam="2">  1        4 0.23890512E-02 0.20002907E+02</pdfrwt>
<pdfrwt beam="1">  1       -4 0.99100094E-03 0.20002907E+02</pdfrwt>
<totfact> 0.12894124E+06</totfact>
</mgrwt>
</event>
<event>
 5    1  0.4710515E-007  0.2000926E+02  0.7818608E-02  0.1745144E+00
         -4   -1    0    0    0  501 -0.00000000000E+00  0.00000000000E+00  0.91778448981E+01  0.92870467304E+01  0.14200000000E+01 0. -1.
          4   -1    0    0  501    0  0.00000000000E+00 -0.00000000000E+00 -0.10684943190E+02  0.10778887279E+02  0.14200000000E+01 0.  1.
       1023    2    1    2    0    0  0.00000000000E+00  0.00000000000E+00 -0.15070982915E+01  0.20065934009E+02  0.20009256918E+02 0.  0.
        -13    1    3    3    0    0 -0.70247998269E+01 -0.71225885987E+01 -0.70506810129E+00  0.10029325724E+02  0.10570000000E+00 0.  1.
         13    1    3    3    0    0  0.70247998269E+01  0.71225885987E+01 -0.80203019021E+00  0.10036608285E+02  0.10570000000E+00 0. -1.
<mgrwt>
<rscale>  0 0.20009257E+02</rscale>
<asrwt>0</asrwt>
<pdfrwt beam="2">  1        4 0.16594640E-02 0.20009257E+02</pdfrwt>
<pdfrwt beam="1">  1       -4 0.14276027E-02 0.20009257E+02</pdfrwt>
<totfact> 0.12997844E+06</totfact>
</mgrwt>
</event>
<event>
 4    1  0.4710515E-007  0.2002782E+02  0.7818608E-02  0.1744775E+00
          4   -1    0    0  501    0  0.00000000000E+00  0.00000000000E+00  0.46932134464E+02  0.46953611632E+02  0.14200000000E+01 0.  1.
         -4   -1    0    0    0  501 -0.00000000000E+00 -0.00000000000E+00 -0.18762622854E+01  0.23530321212E+01  0.14200000000E+01 0. -1.
        -13    1    1    2    0    0  0.39684127316E+01  0.91913195264E+01  0.23011300759E+02  0.25095015230E+02  0.10570000000E+00 0. -1.
         13    1    1    2    0    0 -0.39684127316E+01 -0.91913195264E+01  0.22044571419E+02  0.24211628524E+02  0.10570000000E+00 0.  1.
<mgrwt>
<rscale>  0 0.20027818E+02</rscale>
<asrwt>0</asrwt>
<pdfrwt beam="1">  1        4 0.72586550E-02 0.20027818E+02</pdfrwt>
<pdfrwt beam="2">  1       -4 0.32698243E-03 0.20027818E+02</pdfrwt>
<totfact> 0.11517121E+06</totfact>
</mgrwt>
</event>
<event>
 5    1  0.4710515E-007  0.2000559E+02  0.7818608E-02  0.1745217E+00
          4   -1    0    0  501    0  0.00000000000E+00  0.00000000000E+00  0.16199487061E+02  0.16261604504E+02  0.14200000000E+01 0.  1.
         -4   -1    0    0    0  501 -0.00000000000E+00 -0.00000000000E+00 -0.60197855164E+01  0.61849994069E+01  0.14200000000E+01 0. -1.
       1023    2    1    2    0    0  0.00000000000E+00  0.00000000000E+00  0.10179701545E+02  0.22446603911E+02  0.20005591808E+02 0.  0.
        -13    1    3    3    0    0  0.14773855673E+01 -0.98916519253E+01  0.52374609193E+01  0.11290244253E+02  0.10570000000E+00 0.  1.
         13    1    3    3    0    0 -0.14773855673E+01  0.98916519253E+01  0.49422406256E+01  0.11156359658E+02  0.10570000000E+00 0. -1.
<mgrwt>
<rscale>  0 0.20005592E+02</rscale>
<asrwt>0</asrwt>
<pdfrwt beam="1">  1        4 0.25097158E-02 0.20005592E+02</pdfrwt>
<pdfrwt beam="2">  1       -4 0.94360786E-03 0.20005592E+02</pdfrwt>
<totfact> 0.12863046E+06</totfact>
</mgrwt>
</event>
<event>
 5    1  0.4710515E-007  0.2000185E+02  0.7818608E-02  0.1745291E+00
         -4   -1    0    0    0  501 -0.00000000000E+00  0.00000000000E+00  0.14610457580E+01  0.20374137300E+01  0.14200000000E+01 0.  1.
          4   -1    0    0  501    0  0.00000000000E+00 -0.00000000000E+00 -0.56591859774E+02  0.56609672254E+02  0.14200000000E+01 0. -1.
       1023    2    1    2    0    0  0.00000000000E+00  0.00000000000E+00 -0.55130814016E+02  0.58647085984E+02  0.20001850922E+02 0.  0.
        -13    1    3    3    0    0 -0.94673529693E+01  0.32208656972E+01 -0.27714612431E+02  0.29463802585E+02  0.10570000000E+00 0. -1.
         13    1    3    3    0    0  0.94673529693E+01 -0.32208656972E+01 -0.27416201584E+02  0.29183283398E+02  0.10570000000E+00 0.  1.
<mgrwt>
<rscale>  0 0.20001851E+02</rscale>
<asrwt>0</asrwt>
<pdfrwt beam="2">  1        4 0.87521447E-02 0.20001851E+02</pdfrwt>
<pdfrwt beam="1">  1       -4 0.27048250E-03 0.20001851E+02</pdfrwt>
<totfact> 0.11168977E+06</totfact>
</mgrwt>
</event>
<event>
 4    1  0.4710515E-007  0.2001874E+02  0.7818608E-02  0.1744956E+00
         -4   -1    0    0    0  501 -0.00000000000E+00  0.00000000000E+00  0.51280368724E+02  0.51300025502E+02  0.14200000000E+01 0.  1.
          4   -1    0    0  501    0  0.00000000000E+00 -0.00000000000E+00 -0.16729378992E+01  0.21943384458E+01  0.14200000000E+01 0. -1.
        -13    1    1    2    0    0 -0.12404558621E+00 -0.10007879472E+02  0.24651752163E+02  0.26606260467E+02  0.10570000000E+00 0. -1.
         13    1    1    2    0    0  0.12404558621E+00  0.10007879472E+02  0.24955678661E+02  0.26888103480E+02  0.10570000000E+00 0.  1.
<mgrwt>
<rscale>  0 0.20018736E+02</rscale>
<asrwt>0</asrwt>
<pdfrwt beam="2">  1        4 0.29899488E-03 0.20018736E+02</pdfrwt>
<pdfrwt beam="1">  1       -4 0.79309066E-02 0.20018736E+02</pdfrwt>
<totfact> 0.11354263E+06</totfact>
</mgrwt>
</event>
<event>
 4    1  0.4710515E-007  0.2008032E+02  0.7818608E-02  0.1743736E+00
          4   -1    0    0  501    0  0.00000000000E+00  0.00000000000E+00  0.18849478463E+01  0.23599636403E+01  0.14200000000E+01 0.  1.
         -4   -1    0    0    0  501 -0.00000000000E+00 -0.00000000000E+00 -0.47007468258E+02  0.47028911024E+02  0.14200000000E+01 0. -1.
        -13    1    1    2    0    0  0.83012165915E+01 -0.56377349861E+01 -0.23336503323E+02  0.25402712699E+02  0.10570000000E+00 0.  1.
         13    1    1    2    0    0 -0.83012165915E+01  0.56377349861E+01 -0.21786017089E+02  0.23986161964E+02  0.10570000000E+00 0. -1.
<mgrwt>
<rscale>  0 0.20080316E+02</rscale>
<asrwt>0</asrwt>
<pdfrwt beam="1">  1        4 0.32818113E-03 0.20080316E+02</pdfrwt>
<pdfrwt beam="2">  1       -4 0.72701065E-02 0.20080316E+02</pdfrwt>
<totfact> 0.11452948E+06</totfact>
</mgrwt>
</event>
<event>
 5    1  0.4710515E-007  0.2000386E+02  0.7818608E-02  0.1745251E+00
         -4   -1    0    0    0  501 -0.00000000000E+00  0.00000000000E+00  0.12169484215E+01  0.18701239158E+01  0.14200000000E+01 0. -1.
          4   -1    0    0  501    0  0.00000000000E+00 -0.00000000000E+00 -0.64148639179E+02  0.64164353878E+02  0.14200000000E+01 0.  1.
       1023    2    1    2    0    0  0.00000000000E+00  0.00000000000E+00 -0.62931690758E+02  0.66034477794E+02  0.20003863523E+02 0.  0.
        -13    1    3    3    0    0 -0.99299838544E+01  0.11926230404E+01 -0.31542371231E+02  0.33090169000E+02  0.10570000000E+00 0. -1.
         13    1    3    3    0    0  0.99299838544E+01 -0.11926230404E+01 -0.31389319527E+02  0.32944308794E+02  0.10570000000E+00 0.  1.
<mgrwt>
<rscale>  0 0.20003864E+02</rscale>
<asrwt>0</asrwt>
<pdfrwt beam="2">  1        4 0.99204724E-02 0.20003864E+02</pdfrwt>
<pdfrwt beam="1">  1       -4 0.23867598E-03 0.20003864E+02</pdfrwt>
<totfact> 0.10888853E+06</totfact>
</mgrwt>
</event>
<event>
 4    1  0.4710515E-007  0.2001665E+02  0.7818608E-02  0.1744997E+00
         -4   -1    0    0    0  501 -0.00000000000E+00  0.00000000000E+00  0.63168976179E+00  0.15541659999E+01  0.14200000000E+01 0. -1.
          4   -1    0    0  501    0  0.00000000000E+00 -0.00000000000E+00 -0.90719393437E+02  0.90730506147E+02  0.14200000000E+01 0.  1.
        -13    1    1    2    0    0 -0.11509920268E+01 -0.99374326451E+01 -0.46332019676E+02  0.47399837235E+02  0.10570000000E+00 0. -1.
         13    1    1    2    0    0  0.11509920268E+01  0.99374326451E+01 -0.43755684000E+02  0.44884834911E+02  0.10570000000E+00 0.  1.
<mgrwt>
<rscale>  0 0.20016652E+02</rscale>
<asrwt>0</asrwt>
<pdfrwt beam="2">  1        4 0.14028638E-01 0.20016652E+02</pdfrwt>
<pdfrwt beam="1">  1       -4 0.16899765E-03 0.20016652E+02</pdfrwt>
<totfact> 0.10010008E+06</totfact>
</mgrwt>
</event>
<event>
 4    1  0.4710515E-007  0.2001294E+02  0.7818608E-02  0.1745071E+00
          4   -1    0    0  501    0  0.00000000000E+00  0.00000000000E+00  0.29595278436E+01  0.32825607469E+01  0.14200000000E+01 0.  1.
         -4   -1    0    0    0  501 -0.00000000000E+00 -0.00000000000E+00 -0.31742317497E+02  0.31774063638E+02  0.14200000000E+01 0. -1.
        -13    1    1    2    0    0  0.97410247594E+01  0.22867288328E+01 -0.14461869936E+02  0.17586174873E+02  0.10570000000E+00 0.  1.
         13    1    1    2    0    0 -0.97410247594E+01 -0.22867288328E+01 -0.14320919717E+02  0.17470449512E+02  0.10570000000E+00 0. -1.
<mgrwt>
<rscale>  0 0.20012944E+02</rscale>
<asrwt>0</asrwt>
<pdfrwt beam="1">  1        4 0.48260269E-03 0.20012944E+02</pdfrwt>
<pdfrwt beam="2">  1       -4 0.49107239E-02 0.20012944E+02</pdfrwt>
<totfact> 0.12183204E+06</totfact>
</mgrwt>
</event>
<event>
 5    1  0.4710515E-007  0.2000626E+02  0.7818608E-02  0.1745204E+00
         -4   -1    0    0    0  501 -0.00000000000E+00  0.00000000000E+00  0.25061997700E+02  0.25102193703E+02  0.14200000000E+01 0. -1.
          4   -1    0    0  501    0  0.00000000000E+00 -0.00000000000E+00 -0.38214574671E+01  0.40767557166E+01  0.14200000000E+01 0.  1.
       1023    2    1    2    0    0  0.00000000000E+00  0.00000000000E+00  0.21240540233E+02  0.29178949420E+02  0.20006262516E+02 0.  0.
        -13    1    3    3    0    0 -0.18927767141E+01 -0.98198455458E+01  0.10910110956E+02  0.14800461607E+02  0.10570000000E+00 0.  1.
         13    1    3    3    0    0  0.18927767141E+01  0.98198455458E+01  0.10330429277E+02  0.14378487813E+02  0.10570000000E+00 0. -1.
<mgrwt>
<rscale>  0 0.20006263E+02</rscale>
<asrwt>0</asrwt>
<pdfrwt beam="2">  1        4 0.61064686E-03 0.20006263E+02</pdfrwt>
<pdfrwt beam="1">  1       -4 0.38784223E-02 0.20006263E+02</pdfrwt>
<totfact> 0.12490896E+06</totfact>
</mgrwt>
</event>
<event>
 5    1  0.5448626E-007  0.2000142E+02  0.7818608E-02  0.1745300E+00
          4   -1    0    0  501    0  0.00000000000E+00  0.00000000000E+00  0.94115794316E+01  0.95180999888E+01  0.14200000000E+01 0.  1.
         -4   -1    0    0    0  501 -0.00000000000E+00 -0.00000000000E+00 -0.10411935282E+02  0.10508320337E+02  0.14200000000E+01 0. -1.
       1023    2    1    2    0    0  0.00000000000E+00  0.00000000000E+00 -0.10003558503E+01  0.20026420326E+02  0.20001419931E+02 0.  0.
        -13    1    3    3    0    0  0.36030459080E+01  0.93285090261E+01 -0.50280014384E+00  0.10013341148E+02  0.10570000000E+00 0. -1.
         13    1    3    3    0    0 -0.36030459080E+01 -0.93285090261E+01 -0.49755570649E+00  0.10013079179E+02  0.10570000000E+00 0.  1.
<mgrwt>
<rscale>  0 0.20001420E+02</rscale>
<asrwt>0</asrwt>
<pdfrwt beam="1">  1        4 0.14635434E-02 0.20001420E+02</pdfrwt>
<pdfrwt beam="2">  1       -4 0.16174443E-02 0.20001420E+02</pdfrwt>
<totfact> 0.13010591E+06</totfact>
</mgrwt>
</event>
<event>
 5    1  0.4710515E-007  0.2000663E+02  0.7818608E-02  0.1745196E+00
          4   -1    0    0  501    0  0.00000000000E+00  0.00000000000E+00  0.40987623254E+02  0.41012213547E+02  0.14200000000E+01 0. -1.
         -4   -1    0    0    0  501 -0.00000000000E+00 -0.00000000000E+00 -0.22073425694E+01  0.26246449700E+01  0.14200000000E+01 0.  1.
       1023    2    1    2    0    0  0.00000000000E+00  0.00000000000E+00  0.38780280684E+02  0.43636858517E+02  0.20006630182E+02 0.  0.
        -13    1    3    3    0    0 -0.98244026358E+01  0.18769998906E+01  0.19140265670E+02  0.21596364466E+02  0.10570000000E+00 0.  1.
         13    1    3    3    0    0  0.98244026358E+01 -0.18769998906E+01  0.19640015015E+02  0.22040494051E+02  0.10570000000E+00 0. -1.
<mgrwt>
<rscale>  0 0.20006630E+02</rscale>
<asrwt>0</asrwt>
<pdfrwt beam="1">  1        4 0.63397795E-02 0.20006630E+02</pdfrwt>
<pdfrwt beam="2">  1       -4 0.37358293E-03 0.20006630E+02</pdfrwt>
<totfact> 0.11788608E+06</totfact>
</mgrwt>
</event>
<event>
 5    1  0.4866848E-007  0.2000220E+02  0.7818608E-02  0.1745284E+00
         -4   -1    0    0    0  501 -0.00000000000E+00  0.00000000000E+00  0.21762338131E+01  0.25985368208E+01  0.14200000000E+01 0.  1.
          4   -1    0    0  501    0  0.00000000000E+00 -0.00000000000E+00 -0.41460508074E+02  0.41484818063E+02  0.14200000000E+01 0. -1.
       1023    2    1    2    0    0  0.00000000000E+00  0.00000000000E+00 -0.39284274261E+02  0.44083354884E+02  0.20002199220E+02 0.  0.
        -13    1    3    3    0    0  0.99811544092E+01  0.61735021678E+00 -0.19816460374E+02  0.22197023198E+02  0.10570000000E+00 0.  1.
         13    1    3    3    0    0 -0.99811544092E+01 -0.61735021678E+00 -0.19467813887E+02  0.21886331685E+02  0.10570000000E+00 0. -1.
<mgrwt>
<rscale>  0 0.20002199E+02</rscale>
<asrwt>0</asrwt>
<pdfrwt beam="2">  1        4 0.64128940E-02 0.20002199E+02</pdfrwt>
<pdfrwt beam="1">  1       -4 0.36916008E-03 0.20002199E+02</pdfrwt>
<totfact> 0.11773916E+06</totfact>
</mgrwt>
</event>
<event>
 5    1  0.5223613E-007  0.2000226E+02  0.7818608E-02  0.1745283E+00
          4   -1    0    0  501    0  0.00000000000E+00  0.00000000000E+00  0.11698805797E+02  0.11784670427E+02  0.14200000000E+01 0. -1.
         -4   -1    0    0    0  501 -0.00000000000E+00 -0.00000000000E+00 -0.83726908827E+01  0.84922525055E+01  0.14200000000E+01 0. -1.
       1023    2    1    2    0    0  0.00000000000E+00  0.00000000000E+00  0.33261149142E+01  0.20276922932E+02  0.20002263952E+02 0.  0.
        -13    1    3    3    0    0 -0.30403482390E+01  0.95268994278E+01  0.15849396983E+01  0.10125647459E+02  0.10570000000E+00 0.  1.
         13    1    3    3    0    0  0.30403482390E+01 -0.95268994278E+01  0.17411752159E+01  0.10151275474E+02  0.10570000000E+00 0. -1.
<mgrwt>
<rscale>  0 0.20002264E+02</rscale>
<asrwt>0</asrwt>
<pdfrwt beam="1">  1        4 0.18156183E-02 0.20002264E+02</pdfrwt>
<pdfrwt beam="2">  1       -4 0.13039083E-02 0.20002264E+02</pdfrwt>
<totfact> 0.12994558E+06</totfact>
</mgrwt>
</event>
<event>
 5    1  0.4710515E-007  0.2000152E+02  0.7818608E-02  0.1745298E+00
         -4   -1    0    0    0  501 -0.00000000000E+00  0.00000000000E+00  0.20348852371E+02  0.20398337992E+02  0.14200000000E+01 0.  1.
          4   -1    0    0  501    0  0.00000000000E+00 -0.00000000000E+00 -0.47557116059E+01  0.49631837442E+01  0.14200000000E+01 0. -1.
       1023    2    1    2    0    0  0.00000000000E+00  0.00000000000E+00  0.15593140765E+02  0.25361521736E+02  0.20001518588E+02 0.  0.
        -13    1    3    3    0    0  0.62115912917E+01  0.78370464180E+01  0.77595802113E+01  0.12658018031E+02  0.10570000000E+00 0.  1.
         13    1    3    3    0    0 -0.62115912917E+01 -0.78370464180E+01  0.78335605540E+01  0.12703503705E+02  0.10570000000E+00 0. -1.
<mgrwt>
<rscale>  0 0.20001519E+02</rscale>
<asrwt>0</asrwt>
<pdfrwt beam="2">  1        4 0.75141393E-03 0.20001519E+02</pdfrwt>
<pdfrwt beam="1">  1       -4 0.31503586E-02 0.20001519E+02</pdfrwt>
<totfact> 0.12703505E+06</totfact>
</mgrwt>
</event>
<event>
 5    1  0.4710515E-007  0.2000137E+02  0.7818608E-02  0.1745301E+00
          4   -1    0    0  501    0  0.00000000000E+00  0.00000000000E+00  0.45494394939E+01  0.47658996746E+01  0.14200000000E+01 0. -1.
         -4   -1    0    0    0  501 -0.00000000000E+00 -0.00000000000E+00 -0.21232169578E+02  0.21279601147E+02  0.14200000000E+01 0.  1.
       1023    2    1    2    0    0  0.00000000000E+00  0.00000000000E+00 -0.16682730084E+02  0.26045500822E+02  0.20001365704E+02 0.  0.
        -13    1    3    3    0    0 -0.82136915737E+01  0.57041557764E+01 -0.83165679674E+01  0.13006867326E+02  0.10570000000E+00 0. -1.
         13    1    3    3    0    0  0.82136915737E+01 -0.57041557764E+01 -0.83661621168E+01  0.13038633496E+02  0.10570000000E+00 0.  1.
<mgrwt>
<rscale>  0 0.20001366E+02</rscale>
<asrwt>0</asrwt>
<pdfrwt beam="1">  1        4 0.72021314E-03 0.20001366E+02</pdfrwt>
<pdfrwt beam="2">  1       -4 0.32867869E-02 0.20001366E+02</pdfrwt>
<totfact> 0.12665904E+06</totfact>
</mgrwt>
</event>
<event>
 5    1  0.4710515E-007  0.2000360E+02  0.7818608E-02  0.1745256E+00
          4   -1    0    0  501    0  0.00000000000E+00  0.00000000000E+00  0.12543793965E+01  0.18946946114E+01  0.14200000000E+01 0.  1.
         -4   -1    0    0    0  501 -0.00000000000E+00 -0.00000000000E+00 -0.62883639374E+02  0.62899670118E+02  0.14200000000E+01 0. -1.
       1023    2    1    2    0    0  0.00000000000E+00  0.00000000000E+00 -0.61629259977E+02  0.64794364729E+02  0.20003600058E+02 0.  0.
        -13    1    3    3    0    0 -0.35007438338E+01 -0.93685438046E+01 -0.30803927096E+02  0.32387002292E+02  0.10570000000E+00 0.  1.
         13    1    3    3    0    0  0.35007438338E+01  0.93685438046E+01 -0.30825332881E+02  0.32407362437E+02  0.10570000000E+00 0. -1.
<mgrwt>
<rscale>  0 0.20003600E+02</rscale>
<asrwt>0</asrwt>
<pdfrwt beam="1">  1        4 0.24346965E-03 0.20003600E+02</pdfrwt>
<pdfrwt beam="2">  1       -4 0.97248922E-02 0.20003600E+02</pdfrwt>
<totfact> 0.10934582E+06</totfact>
</mgrwt>
</event>
<event>
 5    1  0.4710515E-007  0.2000517E+02  0.7818608E-02  0.1745225E+00
          4   -1    0    0  501    0  0.00000000000E+00  0.00000000000E+00  0.11829976557E+03  0.11830828769E+03  0.14200000000E+01 0.  1.
         -4   -1    0    0    0  501 -0.00000000000E+00 -0.00000000000E+00 -0.23502782997E+00  0.14393186169E+01  0.14200000000E+01 0. -1.
       1023    2    1    2    0    0  0.00000000000E+00  0.00000000000E+00  0.11806473774E+03  0.11974760630E+03  0.20005172240E+02 0.  0.
        -13    1    3    3    0    0  0.85960036335E+01  0.51135218496E+01  0.59237328117E+02  0.60075882008E+02  0.10570000000E+00 0.  1.
         13    1    3    3    0    0 -0.85960036335E+01 -0.51135218496E+01  0.58827409628E+02  0.59671724294E+02  0.10570000000E+00 0. -1.
<mgrwt>
<rscale>  0 0.20005172E+02</rscale>
<asrwt>0</asrwt>
<pdfrwt beam="1">  1        4 0.18293257E-01 0.20005172E+02</pdfrwt>
<pdfrwt beam="2">  1       -4 0.12945143E-03 0.20005172E+02</pdfrwt>
<totfact> 0.92674032E+05</totfact>
</mgrwt>
</event>
<event>
 5    1  0.4863819E-007  0.2000149E+02  0.7818608E-02  0.1745299E+00
         -4   -1    0    0    0  501 -0.00000000000E+00  0.00000000000E+00  0.46527114340E+01  0.48645784697E+01  0.14200000000E+01 0.  1.
          4   -1    0    0  501    0  0.00000000000E+00 -0.00000000000E+00 -0.20780875252E+02  0.20829334513E+02  0.14200000000E+01 0. -1.
       1023    2    1    2    0    0  0.00000000000E+00  0.00000000000E+00 -0.16128163818E+02  0.25693912983E+02  0.20001487350E+02 0.  0.
        -13    1    3    3    0    0  0.12873999120E+01 -0.99167933665E+01 -0.79879499150E+01  0.12799168158E+02  0.10570000000E+00 0. -1.
         13    1    3    3    0    0 -0.12873999120E+01  0.99167933665E+01 -0.81402139032E+01  0.12894744824E+02  0.10570000000E+00 0.  1.
<mgrwt>
<rscale>  0 0.20001487E+02</rscale>
<asrwt>0</asrwt>
<pdfrwt beam="2">  1        4 0.32170828E-02 0.20001487E+02</pdfrwt>
<pdfrwt beam="1">  1       -4 0.73582687E-03 0.20001487E+02</pdfrwt>
<totfact> 0.12685132E+06</totfact>
</mgrwt>
</event>
<event>
 5    1  0.4710515E-007  0.2001003E+02  0.7818608E-02  0.1745129E+00
          4   -1    0    0  501    0  0.00000000000E+00  0.00000000000E+00  0.33228502971E+01  0.36135486847E+01  0.14200000000E+01 0. -1.
         -4   -1    0    0    0  501 -0.00000000000E+00 -0.00000000000E+00 -0.28553251955E+02  0.28588539613E+02  0.14200000000E+01 0.  1.
       1023    2    1    2    0    0  0.00000000000E+00  0.00000000000E+00 -0.25230401658E+02  0.32202088297E+02  0.20010030557E+02 0.  0.
        -13    1    3    3    0    0  0.70518946956E+01 -0.70960260858E+01 -0.12743473318E+02  0.16201545905E+02  0.10570000000E+00 0.  1.
         13    1    3    3    0    0 -0.70518946956E+01  0.70960260858E+01 -0.12486928340E+02  0.16000542393E+02  0.10570000000E+00 0. -1.
<mgrwt>
<rscale>  0 0.20010031E+02</rscale>
<asrwt>0</asrwt>
<pdfrwt beam="1">  1        4 0.53628361E-03 0.20010031E+02</pdfrwt>
<pdfrwt beam="2">  1       -4 0.44178837E-02 0.20010031E+02</pdfrwt>
<totfact> 0.12329598E+06</totfact>
</mgrwt>
</event>
<event>
 5    1  0.4710515E-007  0.2000148E+02  0.7818608E-02  0.1745299E+00
         -4   -1    0    0    0  501 -0.00000000000E+00  0.00000000000E+00  0.63858717059E+00  0.15569822011E+01  0.14200000000E+01 0. -1.
          4   -1    0    0  501    0  0.00000000000E+00 -0.00000000000E+00 -0.90179738168E+02  0.90190917370E+02  0.14200000000E+01 0.  1.
       1023    2    1    2    0    0  0.00000000000E+00  0.00000000000E+00 -0.89541150997E+02  0.91747899571E+02  0.20001483789E+02 0.  0.
        -13    1    3    3    0    0  0.74567652738E+01  0.66632153092E+01 -0.44969430931E+02  0.46068022286E+02  0.10570000000E+00 0.  1.
         13    1    3    3    0    0 -0.74567652738E+01 -0.66632153092E+01 -0.44571720067E+02  0.45679877285E+02  0.10570000000E+00 0. -1.
<mgrwt>
<rscale>  0 0.20001484E+02</rscale>
<asrwt>0</asrwt>
<pdfrwt beam="2">  1        4 0.13945306E-01 0.20001484E+02</pdfrwt>
<pdfrwt beam="1">  1       -4 0.16974996E-03 0.20001484E+02</pdfrwt>
<totfact> 0.10041300E+06</totfact>
</mgrwt>
</event>
<event>
 4    1  0.4710515E-007  0.2031661E+02  0.7818608E-02  0.1739104E+00
         -4   -1    0    0    0  501 -0.00000000000E+00  0.00000000000E+00  0.83808141493E+02  0.83820170487E+02  0.14200000000E+01 0. -1.
          4   -1    0    0  501    0  0.00000000000E+00 -0.00000000000E+00 -0.80564006159E+00  0.16326224024E+01  0.14200000000E+01 0.  1.
        -13    1    1    2    0    0  0.85110374385E+01 -0.55327659459E+01  0.39980586006E+02  0.41249335596E+02  0.10570000000E+00 0. -1.
         13    1    1    2    0    0 -0.85110374385E+01  0.55327659459E+01  0.43021915426E+02  0.44203457293E+02  0.10570000000E+00 0.  1.
<mgrwt>
<rscale>  0 0.20316608E+02</rscale>
<asrwt>0</asrwt>
<pdfrwt beam="2">  1        4 0.18848391E-03 0.20316608E+02</pdfrwt>
<pdfrwt beam="1">  1       -4 0.12958103E-01 0.20316608E+02</pdfrwt>
<totfact> 0.99188548E+05</totfact>
</mgrwt>
</event>
<event>
 4    1  0.4710515E-007  0.2007989E+02  0.7818608E-02  0.1743744E+00
         -4   -1    0    0    0  501 -0.00000000000E+00  0.00000000000E+00  0.11247318271E+03  0.11248214626E+03  0.14200000000E+01 0.  1.
          4   -1    0    0  501    0  0.00000000000E+00 -0.00000000000E+00 -0.31900094751E+00  0.14553905333E+01  0.14200000000E+01 0. -1.
        -13    1    1    2    0    0 -0.86759044879E+01  0.50275013889E+01  0.53284652108E+02  0.54220036995E+02  0.10570000000E+00 0. -1.
         13    1    1    2    0    0  0.86759044879E+01 -0.50275013889E+01  0.58869529650E+02  0.59717499802E+02  0.10570000000E+00 0.  1.
<mgrwt>
<rscale>  0 0.20079886E+02</rscale>
<asrwt>0</asrwt>
<pdfrwt beam="2">  1        4 0.13718130E-03 0.20079886E+02</pdfrwt>
<pdfrwt beam="1">  1       -4 0.17391652E-01 0.20079886E+02</pdfrwt>
<totfact> 0.93467543E+05</totfact>
</mgrwt>
</event>
<event>
 5    1  0.4710515E-007  0.2000312E+02  0.7818608E-02  0.1745266E+00
         -4   -1    0    0    0  501 -0.00000000000E+00  0.00000000000E+00  0.53380230218E+02  0.53399114020E+02  0.14200000000E+01 0. -1.
          4   -1    0    0  501    0  0.00000000000E+00 -0.00000000000E+00 -0.15828751233E+01  0.21264744664E+01  0.14200000000E+01 0.  1.
       1023    2    1    2    0    0  0.00000000000E+00  0.00000000000E+00  0.51797355094E+02  0.55525588486E+02  0.20003124305E+02 0.  0.
        -13    1    3    3    0    0 -0.29695991605E+01  0.95497776227E+01  0.25739188772E+02  0.27614014249E+02  0.10570000000E+00 0.  1.
         13    1    3    3    0    0  0.29695991605E+01 -0.95497776227E+01  0.26058166322E+02  0.27911574237E+02  0.10570000000E+00 0. -1.
<mgrwt>
<rscale>  0 0.20003124E+02</rscale>
<asrwt>0</asrwt>
<pdfrwt beam="2">  1        4 0.28678718E-03 0.20003124E+02</pdfrwt>
<pdfrwt beam="1">  1       -4 0.82556112E-02 0.20003124E+02</pdfrwt>
<totfact> 0.11290330E+06</totfact>
</mgrwt>
</event>
<event>
 4    1  0.4710515E-007  0.2001771E+02  0.7818608E-02  0.1744976E+00
          4   -1    0    0  501    0  0.00000000000E+00  0.00000000000E+00  0.39809437883E+01  0.42266196240E+01  0.14200000000E+01 0.  1.
         -4   -1    0    0    0  501 -0.00000000000E+00 -0.00000000000E+00 -0.24143782551E+02  0.24185504664E+02  0.14200000000E+01 0. -1.
        -13    1    1    2    0    0  0.96620503685E+01  0.26029052866E+01 -0.10349519244E+02  0.14396320861E+02  0.10570000000E+00 0. -1.
         13    1    1    2    0    0 -0.96620503685E+01 -0.26029052866E+01 -0.98133195186E+01  0.14015803427E+02  0.10570000000E+00 0.  1.
<mgrwt>
<rscale>  0 0.20017711E+02</rscale>
<asrwt>0</asrwt>
<pdfrwt beam="1">  1        4 0.63456044E-03 0.20017711E+02</pdfrwt>
<pdfrwt beam="2">  1       -4 0.37365355E-02 0.20017711E+02</pdfrwt>
<totfact> 0.12516971E+06</totfact>
</mgrwt>
</event>
<event>
 5    1  0.4710515E-007  0.2000893E+02  0.7818608E-02  0.1745151E+00
          4   -1    0    0  501    0  0.00000000000E+00  0.00000000000E+00  0.15351218437E+02  0.15416754117E+02  0.14200000000E+01 0. -1.
         -4   -1    0    0    0  501 -0.00000000000E+00 -0.00000000000E+00 -0.63620944066E+01  0.65186382963E+01  0.14200000000E+01 0.  1.
       1023    2    1    2    0    0  0.00000000000E+00  0.00000000000E+00  0.89891240306E+01  0.21935392413E+02  0.20008925246E+02 0.  0.
        -13    1    3    3    0    0  0.98611750409E+01  0.16805733243E+01  0.43795831645E+01  0.10920577873E+02  0.10570000000E+00 0. -1.
         13    1    3    3    0    0 -0.98611750409E+01 -0.16805733243E+01  0.46095408661E+01  0.11014814541E+02  0.10570000000E+00 0.  1.
<mgrwt>
<rscale>  0 0.20008925E+02</rscale>
<asrwt>0</asrwt>
<pdfrwt beam="1">  1        4 0.23788090E-02 0.20008925E+02</pdfrwt>
<pdfrwt beam="2">  1       -4 0.99586679E-03 0.20008925E+02</pdfrwt>
<totfact> 0.12888243E+06</totfact>
</mgrwt>
</event>
<event>
 5    1  0.4710515E-007  0.2001061E+02  0.7818608E-02  0.1745117E+00
          4   -1    0    0  501    0  0.00000000000E+00  0.00000000000E+00  0.55210542690E+02  0.55228800676E+02  0.14200000000E+01 0.  1.
         -4   -1    0    0    0  501 -0.00000000000E+00 -0.00000000000E+00 -0.15136636336E+01  0.20754704517E+01  0.14200000000E+01 0. -1.
       1023    2    1    2    0    0  0.00000000000E+00  0.00000000000E+00  0.53696879057E+02  0.57304271128E+02  0.20010613911E+02 0.  0.
        -13    1    3    3    0    0 -0.62821607163E+01  0.77858886860E+01  0.27125920799E+02  0.28912148962E+02  0.10570000000E+00 0. -1.
         13    1    3    3    0    0  0.62821607163E+01 -0.77858886860E+01  0.26570958258E+02  0.28392122166E+02  0.10570000000E+00 0.  1.
<mgrwt>
<rscale>  0 0.20010614E+02</rscale>
<asrwt>0</asrwt>
<pdfrwt beam="1">  1        4 0.85385498E-02 0.20010614E+02</pdfrwt>
<pdfrwt beam="2">  1       -4 0.27749170E-03 0.20010614E+02</pdfrwt>
<totfact> 0.11211489E+06</totfact>
</mgrwt>
</event>
<event>
 5    1  0.4710515E-007  0.2000456E+02  0.7818608E-02  0.1745237E+00
         -4   -1    0    0    0  501 -0.00000000000E+00  0.00000000000E+00  0.22046906427E+02  0.22092588871E+02  0.14200000000E+01 0. -1.
          4   -1    0    0  501    0  0.00000000000E+00 -0.00000000000E+00 -0.43750212146E+01  0.45996967975E+01  0.14200000000E+01 0.  1.
       1023    2    1    2    0    0  0.00000000000E+00  0.00000000000E+00  0.17671885213E+02  0.26692285668E+02  0.20004564160E+02 0.  0.
        -13    1    3    3    0    0  0.29226498266E+01 -0.95640895190E+01  0.90283053853E+01  0.13473498468E+02  0.10570000000E+00 0.  1.
         13    1    3    3    0    0 -0.29226498266E+01  0.95640895190E+01  0.86435798274E+01  0.13218787201E+02  0.10570000000E+00 0. -1.
<mgrwt>
<rscale>  0 0.20004564E+02</rscale>
<asrwt>0</asrwt>
<pdfrwt beam="2">  1        4 0.69387696E-03 0.20004564E+02</pdfrwt>
<pdfrwt beam="1">  1       -4 0.34126285E-02 0.20004564E+02</pdfrwt>
<totfact> 0.12626376E+06</totfact>
</mgrwt>
</event>
<event>
 5    1  0.4821543E-007  0.2000361E+02  0.7818608E-02  0.1745256E+00
          4   -1    0    0  501    0  0.00000000000E+00  0.00000000000E+00  0.36154926882E+01  0.38843516034E+01  0.14200000000E+01 0. -1.
         -4   -1    0    0    0  501 -0.00000000000E+00 -0.00000000000E+00 -0.26388217195E+02  0.26426396022E+02  0.14200000000E+01 0.  1.
       1023    2    1    2    0    0  0.00000000000E+00  0.00000000000E+00 -0.22772724507E+02  0.30310747626E+02  0.20003610678E+02 0.  0.
        -13    1    3    3    0    0  0.27541932761E+01  0.96143311258E+01 -0.11290601000E+02  0.15083427562E+02  0.10570000000E+00 0.  1.
         13    1    3    3    0    0 -0.27541932761E+01 -0.96143311258E+01 -0.11482123507E+02  0.15227320064E+02  0.10570000000E+00 0. -1.
<mgrwt>
<rscale>  0 0.20003611E+02</rscale>
<asrwt>0</asrwt>
<pdfrwt beam="1">  1        4 0.57984795E-03 0.20003611E+02</pdfrwt>
<pdfrwt beam="2">  1       -4 0.40833439E-02 0.20003611E+02</pdfrwt>
<totfact> 0.12434980E+06</totfact>
</mgrwt>
</event>
<event>
 4    1  0.7293422E-007  0.2052105E+02  0.7818608E-02  0.1735161E+00
          4   -1    0    0  501    0  0.00000000000E+00  0.00000000000E+00  0.10381902548E+02  0.10478563857E+02  0.14200000000E+01 0. -1.
         -4   -1    0    0    0  501 -0.00000000000E+00 -0.00000000000E+00 -0.99462564312E+01  0.10047109883E+02  0.14200000000E+01 0.  1.
        -13    1    1    2    0    0 -0.97992857063E+01 -0.21974036309E+01  0.23189196417E+01  0.10307431487E+02  0.10570000000E+00 0. -1.
         13    1    1    2    0    0  0.97992857063E+01  0.21974036309E+01 -0.18832735252E+01  0.10218242253E+02  0.10570000000E+00 0.  1.
<mgrwt>
<rscale>  0 0.20521050E+02</rscale>
<asrwt>0</asrwt>
<pdfrwt beam="1">  1        4 0.16124092E-02 0.20521050E+02</pdfrwt>
<pdfrwt beam="2">  1       -4 0.15453867E-02 0.20521050E+02</pdfrwt>
<totfact> 0.12314732E+06</totfact>
</mgrwt>
</event>
<event>
 5    1  0.4932998E-007  0.2000124E+02  0.7818608E-02  0.1745303E+00
          4   -1    0    0  501    0  0.00000000000E+00  0.00000000000E+00  0.15476803030E+02  0.15541809162E+02  0.14200000000E+01 0. -1.
         -4   -1    0    0    0  501 -0.00000000000E+00 -0.00000000000E+00 -0.63043976069E+01  0.64623392967E+01  0.14200000000E+01 0.  1.
       1023    2    1    2    0    0  0.00000000000E+00  0.00000000000E+00  0.91724054235E+01  0.22004148459E+02  0.20001238166E+02 0.  0.
        -13    1    3    3    0    0 -0.50511676345E+01  0.86305791242E+01  0.45813998469E+01  0.11000072161E+02  0.10570000000E+00 0. -1.
         13    1    3    3    0    0  0.50511676345E+01 -0.86305791242E+01  0.45910055766E+01  0.11004076299E+02  0.10570000000E+00 0.  1.
<mgrwt>
<rscale>  0 0.20001238E+02</rscale>
<asrwt>0</asrwt>
<pdfrwt beam="1">  1        4 0.23981965E-02 0.20001238E+02</pdfrwt>
<pdfrwt beam="2">  1       -4 0.98705715E-03 0.20001238E+02</pdfrwt>
<totfact> 0.12894355E+06</totfact>
</mgrwt>
</event>
<event>
 4    1  0.4710515E-007  0.2003416E+02  0.7818608E-02  0.1744650E+00
         -4   -1    0    0    0  501 -0.00000000000E+00  0.00000000000E+00  0.68059008104E+02  0.68073820108E+02  0.14200000000E+01 0. -1.
          4   -1    0    0  501    0  0.00000000000E+00 -0.00000000000E+00 -0.11138925356E+01  0.18047594247E+01  0.14200000000E+01 0.  1.
        -13    1    1    2    0    0 -0.17119839848E+01  0.98647183865E+01  0.34502037179E+02  0.35925552187E+02  0.10570000000E+00 0.  1.
         13    1    1    2    0    0  0.17119839848E+01 -0.98647183865E+01  0.32443078389E+02  0.33953027345E+02  0.10570000000E+00 0. -1.
<mgrwt>
<rscale>  0 0.20034155E+02</rscale>
<asrwt>0</asrwt>
<pdfrwt beam="2">  1        4 0.22565105E-03 0.20034155E+02</pdfrwt>
<pdfrwt beam="1">  1       -4 0.10524901E-01 0.20034155E+02</pdfrwt>
<totfact> 0.10718314E+06</totfact>
</mgrwt>
</event>
<event>
 5    1  0.4943112E-007  0.2000322E+02  0.7818608E-02  0.1745264E+00
         -4   -1    0    0    0  501 -0.00000000000E+00  0.00000000000E+00  0.84684218088E+01  0.85866505654E+01  0.14200000000E+01 0. -1.
          4   -1    0    0  501    0  0.00000000000E+00 -0.00000000000E+00 -0.11568554105E+02  0.11655378333E+02  0.14200000000E+01 0.  1.
       1023    2    1    2    0    0  0.00000000000E+00  0.00000000000E+00 -0.31001322962E+01  0.20242028898E+02  0.20003222582E+02 0.  0.
        -13    1    3    3    0    0  0.13536410502E+01 -0.99080201789E+01 -0.14075014151E+01  0.10099180198E+02  0.10570000000E+00 0. -1.
         13    1    3    3    0    0 -0.13536410502E+01  0.99080201789E+01 -0.16926308811E+01  0.10142848700E+02  0.10570000000E+00 0.  1.
<mgrwt>
<rscale>  0 0.20003223E+02</rscale>
<asrwt>0</asrwt>
<pdfrwt beam="2">  1        4 0.17955509E-02 0.20003223E+02</pdfrwt>
<pdfrwt beam="1">  1       -4 0.13186074E-02 0.20003223E+02</pdfrwt>
<totfact> 0.12995364E+06</totfact>
</mgrwt>
</event>
<event>
 5    1  0.4951946E-007  0.2000217E+02  0.7818608E-02  0.1745285E+00
          4   -1    0    0  501    0  0.00000000000E+00  0.00000000000E+00  0.36001609870E+01  0.38700851582E+01  0.14200000000E+01 0.  1.
         -4   -1    0    0    0  501 -0.00000000000E+00 -0.00000000000E+00 -0.26489068955E+02  0.26527102633E+02  0.14200000000E+01 0. -1.
       1023    2    1    2    0    0  0.00000000000E+00  0.00000000000E+00 -0.22888907968E+02  0.30397187791E+02  0.20002172823E+02 0.  0.
        -13    1    3    3    0    0 -0.57227436553E+01  0.82007139282E+01 -0.11299858884E+02  0.15089714615E+02  0.10570000000E+00 0.  1.
         13    1    3    3    0    0  0.57227436553E+01 -0.82007139282E+01 -0.11589049084E+02  0.15307473176E+02  0.10570000000E+00 0. -1.
<mgrwt>
<rscale>  0 0.20002173E+02</rscale>
<asrwt>0</asrwt>
<pdfrwt beam="1">  1        4 0.57756000E-03 0.20002173E+02</pdfrwt>
<pdfrwt beam="2">  1       -4 0.40989303E-02 0.20002173E+02</pdfrwt>
<totfact> 0.12432303E+06</totfact>
</mgrwt>
</event>
<event>
 5    1  0.5071033E-007  0.2000156E+02  0.7818608E-02  0.1745297E+00
         -4   -1    0    0    0  501 -0.00000000000E+00  0.00000000000E+00  0.52842604947E+01  0.54717281526E+01  0.14200000000E+01 0.  1.
          4   -1    0    0  501    0  0.00000000000E+00 -0.00000000000E+00 -0.18381870287E+02  0.18436636224E+02  0.14200000000E+01 0. -1.
       1023    2    1    2    0    0  0.00000000000E+00  0.00000000000E+00 -0.13097609793E+02  0.23908364377E+02  0.20001562561E+02 0.  0.
        -13    1    3    3    0    0 -0.45291982256E+01 -0.89156309323E+01 -0.66066547300E+01  0.11985873798E+02  0.10570000000E+00 0. -1.
         13    1    3    3    0    0  0.45291982256E+01  0.89156309323E+01 -0.64909550627E+01  0.11922490579E+02  0.10570000000E+00 0.  1.
<mgrwt>
<rscale>  0 0.20001563E+02</rscale>
<asrwt>0</asrwt>
<pdfrwt beam="2">  1        4 0.28466134E-02 0.20001563E+02</pdfrwt>
<pdfrwt beam="1">  1       -4 0.83159652E-03 0.20001563E+02</pdfrwt>
<totfact> 0.12784897E+06</totfact>
</mgrwt>
</event>
<event>
 5    1  0.4729165E-007  0.2000158E+02  0.7818608E-02  0.1745297E+00
          4   -1    0    0  501    0  0.00000000000E+00  0.00000000000E+00  0.50883280577E+02  0.50903090694E+02  0.14200000000E+01 0.  1.
         -4   -1    0    0    0  501 -0.00000000000E+00 -0.00000000000E+00 -0.16862193427E+01  0.22044808168E+01  0.14200000000E+01 0. -1.
       1023    2    1    2    0    0  0.00000000000E+00  0.00000000000E+00  0.49197061234E+02  0.53107571511E+02  0.20001582881E+02 0.  0.
        -13    1    3    3    0    0  0.99959989126E+01 -0.28946245980E+00  0.24520026760E+02  0.26481062433E+02  0.10570000000E+00 0. -1.
         13    1    3    3    0    0 -0.99959989126E+01  0.28946245980E+00  0.24677034474E+02  0.26626509078E+02  0.10570000000E+00 0.  1.
<mgrwt>
<rscale>  0 0.20001583E+02</rscale>
<asrwt>0</asrwt>
<pdfrwt beam="1">  1        4 0.78695876E-02 0.20001583E+02</pdfrwt>
<pdfrwt beam="2">  1       -4 0.30080846E-03 0.20001583E+02</pdfrwt>
<totfact> 0.11389655E+06</totfact>
</mgrwt>
</event>
<event>
 5    1  0.4710515E-007  0.2000223E+02  0.7818608E-02  0.1745284E+00
          4   -1    0    0  501    0  0.00000000000E+00  0.00000000000E+00  0.88261936473E+02  0.88273358552E+02  0.14200000000E+01 0. -1.
         -4   -1    0    0    0  501 -0.00000000000E+00 -0.00000000000E+00 -0.67232015740E+00  0.15711188351E+01  0.14200000000E+01 0.  1.
       1023    2    1    2    0    0  0.00000000000E+00  0.00000000000E+00  0.87589616316E+02  0.89844477387E+02  0.20002230640E+02 0.  0.
        -13    1    3    3    0    0  0.73709100456E+01 -0.67586735908E+01  0.43947232085E+02  0.45070837179E+02  0.10570000000E+00 0. -1.
         13    1    3    3    0    0 -0.73709100456E+01  0.67586735908E+01  0.43642384231E+02  0.44773640208E+02  0.10570000000E+00 0.  1.
<mgrwt>
<rscale>  0 0.20002231E+02</rscale>
<asrwt>0</asrwt>
<pdfrwt beam="1">  1        4 0.13648775E-01 0.20002231E+02</pdfrwt>
<pdfrwt beam="2">  1       -4 0.17345087E-03 0.20002231E+02</pdfrwt>
<totfact> 0.10098195E+06</totfact>
</mgrwt>
</event>
<event>
 4    1  0.4710515E-007  0.2020957E+02  0.7818608E-02  0.1741192E+00
         -4   -1    0    0    0  501 -0.00000000000E+00  0.00000000000E+00  0.71928562546E+01  0.73316833742E+01  0.14200000000E+01 0. -1.
          4   -1    0    0  501    0  0.00000000000E+00 -0.00000000000E+00 -0.13884499942E+02  0.13956924398E+02  0.14200000000E+01 0.  1.
        -13    1    1    2    0    0  0.51055760525E+01  0.87185188707E+01 -0.34791947640E+01  0.10686226968E+02  0.10570000000E+00 0.  1.
         13    1    1    2    0    0 -0.51055760525E+01 -0.87185188707E+01 -0.32124489236E+01  0.10602380803E+02  0.10570000000E+00 0. -1.
<mgrwt>
<rscale>  0 0.20209570E+02</rscale>
<asrwt>0</asrwt>
<pdfrwt beam="2">  1        4 0.21523270E-02 0.20209570E+02</pdfrwt>
<pdfrwt beam="1">  1       -4 0.11228434E-02 0.20209570E+02</pdfrwt>
<totfact> 0.12665168E+06</totfact>
</mgrwt>
</event>
<event>
 5    1  0.4710515E-007  0.2000499E+02  0.7818608E-02  0.1745229E+00
         -4   -1    0    0    0  501 -0.00000000000E+00  0.00000000000E+00  0.10817075649E+03  0.10818007654E+03  0.14200000000E+01 0. -1.
          4   -1    0    0  501    0  0.00000000000E+00 -0.00000000000E+00 -0.36493875888E+00  0.14661447056E+01  0.14200000000E+01 0.  1.
       1023    2    1    2    0    0  0.00000000000E+00  0.00000000000E+00  0.10780581774E+03  0.10964622125E+03  0.20004986783E+02 0.  0.
        -13    1    3    3    0    0  0.77159000177E+01  0.63625442408E+01  0.53097018832E+02  0.54030747391E+02  0.10570000000E+00 0.  1.
         13    1    3    3    0    0 -0.77159000177E+01 -0.63625442408E+01  0.54708798904E+02  0.55615473856E+02  0.10570000000E+00 0. -1.
<mgrwt>
<rscale>  0 0.20004987E+02</rscale>
<asrwt>0</asrwt>
<pdfrwt beam="2">  1        4 0.14156949E-03 0.20004987E+02</pdfrwt>
<pdfrwt beam="1">  1       -4 0.16727082E-01 0.20004987E+02</pdfrwt>
<totfact> 0.95300386E+05</totfact>
</mgrwt>
</event>
<event>
 5    1  0.4710515E-007  0.2000717E+02  0.7818608E-02  0.1745186E+00
         -4   -1    0    0    0  501 -0.00000000000E+00  0.00000000000E+00  0.26302744890E+00  0.14441549220E+01  0.14200000000E+01 0. -1.
          4   -1    0    0  501    0  0.00000000000E+00 -0.00000000000E+00 -0.11604760239E+03  0.11605628988E+03  0.14200000000E+01 0.  1.
       1023    2    1    2    0    0  0.00000000000E+00  0.00000000000E+00 -0.11578457495E+03  0.11750044481E+03  0.20007167070E+02 0.  0.
        -13    1    3    3    0    0 -0.99981058967E+01  0.31059301964E+00 -0.57634848296E+02  0.58496542634E+02  0.10570000000E+00 0.  1.
         13    1    3    3    0    0  0.99981058967E+01 -0.31059301964E+00 -0.58149726650E+02  0.59003902171E+02  0.10570000000E+00 0. -1.
<mgrwt>
<rscale>  0 0.20007167E+02</rscale>
<asrwt>0</asrwt>
<pdfrwt beam="2">  1        4 0.17944989E-01 0.20007167E+02</pdfrwt>
<pdfrwt beam="1">  1       -4 0.13199008E-03 0.20007167E+02</pdfrwt>
<totfact> 0.93225725E+05</totfact>
</mgrwt>
</event>
<event>
 5    1  0.4710515E-007  0.2000299E+02  0.7818608E-02  0.1745269E+00
          4   -1    0    0  501    0  0.00000000000E+00  0.00000000000E+00  0.33042214930E+01  0.35964259584E+01  0.14200000000E+01 0.  1.
         -4   -1    0    0    0  501 -0.00000000000E+00 -0.00000000000E+00 -0.28680944390E+02  0.28716075134E+02  0.14200000000E+01 0. -1.
       1023    2    1    2    0    0  0.00000000000E+00  0.00000000000E+00 -0.25376722898E+02  0.32312501093E+02  0.20002991323E+02 0.  0.
        -13    1    3    3    0    0  0.10000554890E+02 -0.28869103839E-01 -0.12821681502E+02  0.16260953864E+02  0.10570000000E+00 0. -1.
         13    1    3    3    0    0 -0.10000554890E+02  0.28869103839E-01 -0.12555041396E+02  0.16051547229E+02  0.10570000000E+00 0.  1.
<mgrwt>
<rscale>  0 0.20002991E+02</rscale>
<asrwt>0</asrwt>
<pdfrwt beam="1">  1        4 0.53352142E-03 0.20002991E+02</pdfrwt>
<pdfrwt beam="2">  1       -4 0.44376324E-02 0.20002991E+02</pdfrwt>
<totfact> 0.12332789E+06</totfact>
</mgrwt>
</event>
<event>
 5    1  0.4710515E-007  0.2000773E+02  0.7818608E-02  0.1745174E+00
          4   -1    0    0  501    0  0.00000000000E+00  0.00000000000E+00  0.17295730375E+01  0.22378165456E+01  0.14200000000E+01 0.  1.
         -4   -1    0    0    0  501 -0.00000000000E+00 -0.00000000000E+00 -0.49930322720E+02  0.49950510777E+02  0.14200000000E+01 0. -1.
       1023    2    1    2    0    0  0.00000000000E+00  0.00000000000E+00 -0.48200749682E+02  0.52188327323E+02  0.20007729477E+02 0.  0.
        -13    1    3    3    0    0 -0.99503968351E+01  0.10200460706E+01 -0.23778301869E+02  0.25796699468E+02  0.10570000000E+00 0.  1.
         13    1    3    3    0    0  0.99503968351E+01 -0.10200460706E+01 -0.24422447813E+02  0.26391627855E+02  0.10570000000E+00 0. -1.
<mgrwt>
<rscale>  0 0.20007729E+02</rscale>
<asrwt>0</asrwt>
<pdfrwt beam="1">  1        4 0.30673678E-03 0.20007729E+02</pdfrwt>
<pdfrwt beam="2">  1       -4 0.77222358E-02 0.20007729E+02</pdfrwt>
<totfact> 0.11420256E+06</totfact>
</mgrwt>
</event>
<event>
 4    1  0.4710515E-007  0.2015084E+02  0.7818608E-02  0.1742345E+00
          4   -1    0    0  501    0  0.00000000000E+00  0.00000000000E+00  0.22430642732E+02  0.22475545229E+02  0.14200000000E+01 0.  1.
         -4   -1    0    0    0  501 -0.00000000000E+00 -0.00000000000E+00 -0.43635299332E+01  0.45887681874E+01  0.14200000000E+01 0. -1.
        -13    1    1    2    0    0 -0.44093450485E+01  0.90363984705E+01  0.98873728980E+01  0.14102132335E+02  0.10570000000E+00 0.  1.
         13    1    1    2    0    0  0.44093450485E+01 -0.90363984705E+01  0.81797399005E+01  0.12962181082E+02  0.10570000000E+00 0. -1.
<mgrwt>
<rscale>  0 0.20150844E+02</rscale>
<asrwt>0</asrwt>
<pdfrwt beam="1">  1        4 0.34716482E-02 0.20150844E+02</pdfrwt>
<pdfrwt beam="2">  1       -4 0.69209236E-03 0.20150844E+02</pdfrwt>
<totfact> 0.12420477E+06</totfact>
</mgrwt>
</event>
<event>
 5    1  0.4710515E-007  0.2000124E+02  0.7818608E-02  0.1745303E+00
          4   -1    0    0  501    0  0.00000000000E+00  0.00000000000E+00  0.62288920657E+02  0.62305104419E+02  0.14200000000E+01 0.  1.
         -4   -1    0    0    0  501 -0.00000000000E+00 -0.00000000000E+00 -0.12719818720E+01  0.19063939474E+01  0.14200000000E+01 0. -1.
       1023    2    1    2    0    0  0.00000000000E+00  0.00000000000E+00  0.61016938785E+02  0.64211498366E+02  0.20001242554E+02 0.  0.
        -13    1    3    3    0    0 -0.54290026080E+01 -0.83980043805E+01  0.30423134760E+02  0.32024659998E+02  0.10570000000E+00 0.  1.
         13    1    3    3    0    0  0.54290026080E+01  0.83980043805E+01  0.30593804025E+02  0.32186838368E+02  0.10570000000E+00 0. -1.
<mgrwt>
<rscale>  0 0.20001243E+02</rscale>
<asrwt>0</asrwt>
<pdfrwt beam="1">  1        4 0.96329550E-02 0.20001243E+02</pdfrwt>
<pdfrwt beam="2">  1       -4 0.24573540E-03 0.20001243E+02</pdfrwt>
<totfact> 0.10958699E+06</totfact>
</mgrwt>
</event>
<event>
 5    1  0.4846201E-007  0.2000269E+02  0.7818608E-02  0.1745275E+00
         -4   -1    0    0    0  501 -0.00000000000E+00  0.00000000000E+00  0.39361409296E+02  0.39387014887E+02  0.14200000000E+01 0.  1.
          4   -1    0    0  501    0  0.00000000000E+00 -0.00000000000E+00 -0.23142872181E+01  0.27152026311E+01  0.14200000000E+01 0. -1.
       1023    2    1    2    0    0  0.00000000000E+00  0.00000000000E+00  0.37047122077E+02  0.42102217518E+02  0.20002686463E+02 0.  0.
        -13    1    3    3    0    0 -0.75033444714E+01  0.66106522613E+01  0.18267563645E+02  0.20825848256E+02  0.10570000000E+00 0.  1.
         13    1    3    3    0    0  0.75033444714E+01 -0.66106522613E+01  0.18779558432E+02  0.21276369262E+02  0.10570000000E+00 0. -1.
<mgrwt>
<rscale>  0 0.20002686E+02</rscale>
<asrwt>0</asrwt>
<pdfrwt beam="2">  1        4 0.38885352E-03 0.20002686E+02</pdfrwt>
<pdfrwt beam="1">  1       -4 0.60884103E-02 0.20002686E+02</pdfrwt>
<totfact> 0.11862647E+06</totfact>
</mgrwt>
</event>
<event>
 5    1  0.4710515E-007  0.2000286E+02  0.7818608E-02  0.1745271E+00
         -4   -1    0    0    0  501 -0.00000000000E+00  0.00000000000E+00  0.10803620552E+03  0.10804553718E+03  0.14200000000E+01 0. -1.
          4   -1    0    0  501    0  0.00000000000E+00 -0.00000000000E+00 -0.36644891778E+00  0.14665213293E+01  0.14200000000E+01 0.  1.
       1023    2    1    2    0    0  0.00000000000E+00  0.00000000000E+00  0.10766975661E+03  0.10951205851E+03  0.20002861566E+02 0.  0.
        -13    1    3    3    0    0 -0.82413659527E+01 -0.56647435519E+01  0.54324956818E+02  0.55237863265E+02  0.10570000000E+00 0. -1.
         13    1    3    3    0    0  0.82413659527E+01  0.56647435519E+01  0.53344799788E+02  0.54274195243E+02  0.10570000000E+00 0.  1.
<mgrwt>
<rscale>  0 0.20002862E+02</rscale>
<asrwt>0</asrwt>
<pdfrwt beam="2">  1        4 0.14171554E-03 0.20002862E+02</pdfrwt>
<pdfrwt beam="1">  1       -4 0.16706293E-01 0.20002862E+02</pdfrwt>
<totfact> 0.95356524E+05</totfact>
</mgrwt>
</event>
<event>
 5    1  0.4805210E-007  0.2000136E+02  0.7818608E-02  0.1745301E+00
          4   -1    0    0  501    0  0.00000000000E+00  0.00000000000E+00  0.21986318537E+01  0.26173234474E+01  0.14200000000E+01 0.  1.
         -4   -1    0    0    0  501 -0.00000000000E+00 -0.00000000000E+00 -0.41102249509E+02  0.41126771266E+02  0.14200000000E+01 0. -1.
       1023    2    1    2    0    0  0.00000000000E+00  0.00000000000E+00 -0.38903617656E+02  0.43744094713E+02  0.20001358843E+02 0.  0.
        -13    1    3    3    0    0  0.99491157917E+01 -0.10077907637E+01 -0.19546363054E+02  0.21956138741E+02  0.10570000000E+00 0. -1.
         13    1    3    3    0    0 -0.99491157917E+01  0.10077907637E+01 -0.19357254601E+02  0.21787955972E+02  0.10570000000E+00 0.  1.
<mgrwt>
<rscale>  0 0.20001359E+02</rscale>
<asrwt>0</asrwt>
<pdfrwt beam="1">  1        4 0.37234442E-03 0.20001359E+02</pdfrwt>
<pdfrwt beam="2">  1       -4 0.63575158E-02 0.20001359E+02</pdfrwt>
<totfact> 0.11790084E+06</totfact>
</mgrwt>
</event>
<event>
 5    1  0.4710515E-007  0.2000953E+02  0.7818608E-02  0.1745139E+00
         -4   -1    0    0    0  501 -0.00000000000E+00  0.00000000000E+00  0.60187588578E+02  0.60204337209E+02  0.14200000000E+01 0.  1.
          4   -1    0    0  501    0  0.00000000000E+00 -0.00000000000E+00 -0.13397811543E+01  0.19522841856E+01  0.14200000000E+01 0. -1.
       1023    2    1    2    0    0  0.00000000000E+00  0.00000000000E+00  0.58847807423E+02  0.62156621395E+02  0.20009526348E+02 0.  0.
        -13    1    3    3    0    0  0.65686597746E+01 -0.75447720274E+01  0.29066504504E+02  0.30739937097E+02  0.10570000000E+00 0. -1.
         13    1    3    3    0    0 -0.65686597746E+01  0.75447720274E+01  0.29781302920E+02  0.31416684298E+02  0.10570000000E+00 0.  1.
<mgrwt>
<rscale>  0 0.20009526E+02</rscale>
<asrwt>0</asrwt>
<pdfrwt beam="2">  1        4 0.25452416E-03 0.20009526E+02</pdfrwt>
<pdfrwt beam="1">  1       -4 0.93080327E-02 0.20009526E+02</pdfrwt>
<totfact> 0.11026261E+06</totfact>
</mgrwt>
</event>
<event>
 5    1  0.4710515E-007  0.2000574E+02  0.7818608E-02  0.1745214E+00
         -4   -1    0    0    0  501 -0.00000000000E+00  0.00000000000E+00  0.20885884179E+02  0.20934100361E+02  0.14200000000E+01 0. -1.
          4   -1    0    0  501    0  0.00000000000E+00 -0.00000000000E+00 -0.46303890767E+01  0.48432327016E+01  0.14200000000E+01 0.  1.
       1023    2    1    2    0    0  0.00000000000E+00  0.00000000000E+00  0.16255495102E+02  0.25777333063E+02  0.20005743645E+02 0.  0.
        -13    1    3    3    0    0  0.71296517706E+01  0.70152295487E+01  0.81662350408E+01  0.12912937204E+02  0.10570000000E+00 0. -1.
         13    1    3    3    0    0 -0.71296517706E+01 -0.70152295487E+01  0.80892600611E+01  0.12864395859E+02  0.10570000000E+00 0.  1.
<mgrwt>
<rscale>  0 0.20005744E+02</rscale>
<asrwt>0</asrwt>
<pdfrwt beam="2">  1        4 0.73244907E-03 0.20005744E+02</pdfrwt>
<pdfrwt beam="1">  1       -4 0.32332945E-02 0.20005744E+02</pdfrwt>
<totfact> 0.12675033E+06</totfact>
</mgrwt>
</event>
<event>
 5    1  0.4710515E-007  0.2000429E+02  0.7818608E-02  0.1745243E+00
          4   -1    0    0  501    0  0.00000000000E+00  0.00000000000E+00  0.39271238807E+01  0.41759671903E+01  0.14200000000E+01 0.  1.
         -4   -1    0    0    0  501 -0.00000000000E+00 -0.00000000000E+00 -0.24422420124E+02  0.24463667033E+02  0.14200000000E+01 0. -1.
       1023    2    1    2    0    0  0.00000000000E+00  0.00000000000E+00 -0.20495296243E+02  0.28639634224E+02  0.20004286550E+02 0.  0.
        -13    1    3    3    0    0  0.48705808738E+01 -0.87344919149E+01 -0.10056689626E+02  0.14183162052E+02  0.10570000000E+00 0. -1.
         13    1    3    3    0    0 -0.48705808738E+01  0.87344919149E+01 -0.10438606617E+02  0.14456472172E+02  0.10570000000E+00 0.  1.
<mgrwt>
<rscale>  0 0.20004287E+02</rscale>
<asrwt>0</asrwt>
<pdfrwt beam="1">  1        4 0.62648755E-03 0.20004287E+02</pdfrwt>
<pdfrwt beam="2">  1       -4 0.37796099E-02 0.20004287E+02</pdfrwt>
<totfact> 0.12521955E+06</totfact>
</mgrwt>
</event>
<event>
 4    1  0.4710515E-007  0.2003318E+02  0.7818608E-02  0.1744669E+00
          4   -1    0    0  501    0  0.00000000000E+00  0.00000000000E+00  0.10920155190E+01  0.17913396925E+01  0.14200000000E+01 0.  1.
         -4   -1    0    0    0  501 -0.00000000000E+00 -0.00000000000E+00 -0.68885584140E+02  0.68900218448E+02  0.14200000000E+01 0. -1.
        -13    1    1    2    0    0  0.82943722438E+01  0.56140471772E+01 -0.33605746911E+02  0.35066672704E+02  0.10570000000E+00 0. -1.
         13    1    1    2    0    0 -0.82943722438E+01 -0.56140471772E+01 -0.34187821710E+02  0.35624885437E+02  0.10570000000E+00 0.  1.
<mgrwt>
<rscale>  0 0.20033184E+02</rscale>
<asrwt>0</asrwt>
<pdfrwt beam="1">  1        4 0.22292232E-03 0.20033184E+02</pdfrwt>
<pdfrwt beam="2">  1       -4 0.10652699E-01 0.20033184E+02</pdfrwt>
<totfact> 0.10690826E+06</totfact>
</mgrwt>
</event>
<event>
 4    1  0.4710515E-007  0.2001285E+02  0.7818608E-02  0.1745073E+00
          4   -1    0    0  501    0  0.00000000000E+00  0.00000000000E+00  0.19098222012E+02  0.19150939508E+02  0.14200000000E+01 0. -1.
         -4   -1    0    0    0  501 -0.00000000000E+00 -0.00000000000E+00 -0.50854790123E+01  0.52800091652E+01  0.14200000000E+01 0.  1.
        -13    1    1    2    0    0  0.35274490541E+01 -0.93610268426E+01  0.67454627306E+01  0.12065826135E+02  0.10570000000E+00 0. -1.
         13    1    1    2    0    0 -0.35274490541E+01  0.93610268426E+01  0.72672802691E+01  0.12365122538E+02  0.10570000000E+00 0.  1.
<mgrwt>
<rscale>  0 0.20012853E+02</rscale>
<asrwt>0</asrwt>
<pdfrwt beam="1">  1        4 0.29572071E-02 0.20012853E+02</pdfrwt>
<pdfrwt beam="2">  1       -4 0.80140043E-03 0.20012853E+02</pdfrwt>
<totfact> 0.12740799E+06</totfact>
</mgrwt>
</event>
<event>
 4    1  0.4710515E-007  0.2006427E+02  0.7818608E-02  0.1744053E+00
         -4   -1    0    0    0  501 -0.00000000000E+00  0.00000000000E+00  0.66301763257E+02  0.66316967746E+02  0.14200000000E+01 0.  1.
          4   -1    0    0  501    0  0.00000000000E+00 -0.00000000000E+00 -0.11670505594E+01  0.18380443434E+01  0.14200000000E+01 0. -1.
        -13    1    1    2    0    0 -0.12518751134E+01  0.99527620911E+01  0.32265790208E+02  0.33789303852E+02  0.10570000000E+00 0. -1.
         13    1    1    2    0    0  0.12518751134E+01 -0.99527620911E+01  0.32868922490E+02  0.34365708238E+02  0.10570000000E+00 0.  1.
<mgrwt>
<rscale>  0 0.20064269E+02</rscale>
<asrwt>0</asrwt>
<pdfrwt beam="2">  1        4 0.23233071E-03 0.20064269E+02</pdfrwt>
<pdfrwt beam="1">  1       -4 0.10253056E-01 0.20064269E+02</pdfrwt>
<totfact> 0.10746945E+06</totfact>
</mgrwt>
</event>
<event>
 5    1  0.5309728E-007  0.2000136E+02  0.7818608E-02  0.1745301E+00
          4   -1    0    0  501    0  0.00000000000E+00  0.00000000000E+00  0.97245302805E+01  0.98276593946E+01  0.14200000000E+01 0. -1.
         -4   -1    0    0    0  501 -0.00000000000E+00 -0.00000000000E+00 -0.10077251001E+02  0.10176806362E+02  0.14200000000E+01 0.  1.
       1023    2    1    2    0    0  0.00000000000E+00  0.00000000000E+00 -0.35272071999E+00  0.20004465756E+02  0.20001355911E+02 0.  0.
        -13    1    3    3    0    0 -0.72824261470E+01 -0.68532923584E+01 -0.14410093002E+00  0.10001664077E+02  0.10570000000E+00 0.  1.
         13    1    3    3    0    0  0.72824261470E+01  0.68532923584E+01 -0.20861978997E+00  0.10002801680E+02  0.10570000000E+00 0. -1.
<mgrwt>
<rscale>  0 0.20001356E+02</rscale>
<asrwt>0</asrwt>
<pdfrwt beam="1">  1        4 0.15116727E-02 0.20001356E+02</pdfrwt>
<pdfrwt beam="2">  1       -4 0.15659374E-02 0.20001356E+02</pdfrwt>
<totfact> 0.13011978E+06</totfact>
</mgrwt>
</event>
<event>
 4    1  0.4710515E-007  0.2107377E+02  0.7818608E-02  0.1724781E+00
         -4   -1    0    0    0  501 -0.00000000000E+00  0.00000000000E+00  0.22672348818E+02  0.22716773559E+02  0.14200000000E+01 0. -1.
          4   -1    0    0  501    0  0.00000000000E+00 -0.00000000000E+00 -0.47436687276E+01  0.49516454838E+01  0.14200000000E+01 0.  1.
        -13    1    1    2    0    0  0.13625953767E+01  0.10447866846E+02  0.89457561206E+01  0.13822167444E+02  0.10570000000E+00 0. -1.
         13    1    1    2    0    0 -0.13625953767E+01 -0.10447866846E+02  0.89829239695E+01  0.13846251598E+02  0.10570000000E+00 0.  1.
<mgrwt>
<rscale>  0 0.21073771E+02</rscale>
<asrwt>0</asrwt>
<pdfrwt beam="2">  1        4 0.74921069E-03 0.21073771E+02</pdfrwt>
<pdfrwt beam="1">  1       -4 0.35074691E-02 0.21073771E+02</pdfrwt>
<totfact> 0.11296578E+06</totfact>
</mgrwt>
</event>
<event>
 5    1  0.4710941E-007  0.2000139E+02  0.7818608E-02  0.1745301E+00
          4   -1    0    0  501    0  0.00000000000E+00  0.00000000000E+00  0.12833400037E+01  0.19139910044E+01  0.14200000000E+01 0. -1.
         -4   -1    0    0    0  501 -0.00000000000E+00 -0.00000000000E+00 -0.61920442329E+02  0.61936722372E+02  0.14200000000E+01 0.  1.
       1023    2    1    2    0    0  0.00000000000E+00  0.00000000000E+00 -0.60637102325E+02  0.63850713377E+02  0.20001385460E+02 0.  0.
        -13    1    3    3    0    0 -0.56615190664E+01  0.82430779661E+01 -0.30444236378E+02  0.32044716158E+02  0.10570000000E+00 0. -1.
         13    1    3    3    0    0  0.56615190664E+01 -0.82430779661E+01 -0.30192865947E+02  0.31805997219E+02  0.10570000000E+00 0.  1.
<mgrwt>
<rscale>  0 0.20001385E+02</rscale>
<asrwt>0</asrwt>
<pdfrwt beam="1">  1        4 0.24720090E-03 0.20001385E+02</pdfrwt>
<pdfrwt beam="2">  1       -4 0.95759840E-02 0.20001385E+02</pdfrwt>
<totfact> 0.10971919E+06</totfact>
</mgrwt>
</event>
<event>
 5    1  0.4710515E-007  0.2000390E+02  0.7818608E-02  0.1745251E+00
          4   -1    0    0  501    0  0.00000000000E+00  0.00000000000E+00  0.28947877251E+01  0.32243132561E+01  0.14200000000E+01 0.  1.
         -4   -1    0    0    0  501 -0.00000000000E+00 -0.00000000000E+00 -0.32351333547E+02  0.32382482645E+02  0.14200000000E+01 0. -1.
       1023    2    1    2    0    0  0.00000000000E+00  0.00000000000E+00 -0.29456545822E+02  0.35606795902E+02  0.20003895186E+02 0.  0.
        -13    1    3    3    0    0 -0.63561837548E+01  0.77204803092E+01 -0.14470972881E+02  0.17590540547E+02  0.10570000000E+00 0. -1.
         13    1    3    3    0    0  0.63561837548E+01 -0.77204803092E+01 -0.14985572941E+02  0.18016255354E+02  0.10570000000E+00 0.  1.
<mgrwt>
<rscale>  0 0.20003895E+02</rscale>
<asrwt>0</asrwt>
<pdfrwt beam="1">  1        4 0.47309618E-03 0.20003895E+02</pdfrwt>
<pdfrwt beam="2">  1       -4 0.50048722E-02 0.20003895E+02</pdfrwt>
<totfact> 0.12167395E+06</totfact>
</mgrwt>
</event>
<event>
 5    1  0.4802068E-007  0.2000131E+02  0.7818608E-02  0.1745302E+00
          4   -1    0    0  501    0  0.00000000000E+00  0.00000000000E+00  0.14799662169E+02  0.14867629277E+02  0.14200000000E+01 0.  1.
         -4   -1    0    0    0  501 -0.00000000000E+00 -0.00000000000E+00 -0.65986458623E+01  0.67497057133E+01  0.14200000000E+01 0. -1.
       1023    2    1    2    0    0  0.00000000000E+00  0.00000000000E+00  0.82010163065E+01  0.21617334990E+02  0.20001312547E+02 0.  0.
        -13    1    3    3    0    0 -0.18109493300E+01  0.98347464659E+01  0.41149232730E+01  0.10814136191E+02  0.10570000000E+00 0.  1.
         13    1    3    3    0    0  0.18109493300E+01 -0.98347464659E+01  0.40860930336E+01  0.10803198799E+02  0.10570000000E+00 0. -1.
<mgrwt>
<rscale>  0 0.20001313E+02</rscale>
<asrwt>0</asrwt>
<pdfrwt beam="1">  1        4 0.22937193E-02 0.20001313E+02</pdfrwt>
<pdfrwt beam="2">  1       -4 0.10320245E-02 0.20001313E+02</pdfrwt>
<totfact> 0.12916776E+06</totfact>
</mgrwt>
</event>
<event>
 5    1  0.4710515E-007  0.2001067E+02  0.7818608E-02  0.1745116E+00
         -4   -1    0    0    0  501 -0.00000000000E+00  0.00000000000E+00  0.26131000299E+01  0.29740026507E+01  0.14200000000E+01 0.  1.
          4   -1    0    0  501    0  0.00000000000E+00 -0.00000000000E+00 -0.35458894828E+02  0.35487316360E+02  0.14200000000E+01 0. -1.
       1023    2    1    2    0    0  0.00000000000E+00  0.00000000000E+00 -0.32845794798E+02  0.38461319011E+02  0.20010667758E+02 0.  0.
        -13    1    3    3    0    0 -0.87196503808E+01  0.48986096420E+01 -0.15925930536E+02  0.18806252022E+02  0.10570000000E+00 0.  1.
         13    1    3    3    0    0  0.87196503808E+01 -0.48986096420E+01 -0.16919864262E+02  0.19655066989E+02  0.10570000000E+00 0. -1.
<mgrwt>
<rscale>  0 0.20010668E+02</rscale>
<asrwt>0</asrwt>
<pdfrwt beam="2">  1        4 0.54851623E-02 0.20010668E+02</pdfrwt>
<pdfrwt beam="1">  1       -4 0.43196343E-03 0.20010668E+02</pdfrwt>
<totfact> 0.12021847E+06</totfact>
</mgrwt>
</event>
<event>
 5    1  0.4710515E-007  0.2000393E+02  0.7818608E-02  0.1745250E+00
         -4   -1    0    0    0  501 -0.00000000000E+00  0.00000000000E+00  0.41955977609E+01  0.44293837687E+01  0.14200000000E+01 0. -1.
          4   -1    0    0  501    0  0.00000000000E+00 -0.00000000000E+00 -0.22941231421E+02  0.22985136482E+02  0.14200000000E+01 0.  1.
       1023    2    1    2    0    0  0.00000000000E+00  0.00000000000E+00 -0.18745633660E+02  0.27414520251E+02  0.20003928096E+02 0.  0.
        -13    1    3    3    0    0 -0.80164589985E+00  0.99689928246E+01 -0.92792813523E+01  0.13643301983E+02  0.10570000000E+00 0.  1.
         13    1    3    3    0    0  0.80164589985E+00 -0.99689928246E+01 -0.94663523074E+01  0.13771218268E+02  0.10570000000E+00 0. -1.
<mgrwt>
<rscale>  0 0.20003928E+02</rscale>
<asrwt>0</asrwt>
<pdfrwt beam="2">  1        4 0.35507810E-02 0.20003928E+02</pdfrwt>
<pdfrwt beam="1">  1       -4 0.66683744E-03 0.20003928E+02</pdfrwt>
<totfact> 0.12588019E+06</totfact>
</mgrwt>
</event>
<event>
 5    1  0.4710515E-007  0.2000207E+02  0.7818608E-02  0.1745287E+00
         -4   -1    0    0    0  501 -0.00000000000E+00  0.00000000000E+00  0.35333281255E+01  0.38079926001E+01  0.14200000000E+01 0. -1.
          4   -1    0    0  501    0  0.00000000000E+00 -0.00000000000E+00 -0.26954630581E+02  0.26992008257E+02  0.14200000000E+01 0.  1.
       1023    2    1    2    0    0  0.00000000000E+00  0.00000000000E+00 -0.23421302456E+02  0.30800000858E+02  0.20002065996E+02 0.  0.
        -13    1    3    3    0    0 -0.51997592935E+01  0.85422422020E+01 -0.11640255265E+02  0.15346469094E+02  0.10570000000E+00 0. -1.
         13    1    3    3    0    0  0.51997592935E+01 -0.85422422020E+01 -0.11781047191E+02  0.15453531763E+02  0.10570000000E+00 0.  1.
<mgrwt>
<rscale>  0 0.20002066E+02</rscale>
<asrwt>0</asrwt>
<pdfrwt beam="2">  1        4 0.41708694E-02 0.20002066E+02</pdfrwt>
<pdfrwt beam="1">  1       -4 0.56759220E-03 0.20002066E+02</pdfrwt>
<totfact> 0.12411560E+06</totfact>
</mgrwt>
</event>
<event>
 5    1  0.4710515E-007  0.2000621E+02  0.7818608E-02  0.1745205E+00
         -4   -1    0    0    0  501 -0.00000000000E+00  0.00000000000E+00  0.55747969270E+01  0.57528046010E+01  0.14200000000E+01 0. -1.
          4   -1    0    0  501    0  0.00000000000E+00 -0.00000000000E+00 -0.17459671344E+02  0.17517320670E+02  0.14200000000E+01 0.  1.
       1023    2    1    2    0    0  0.00000000000E+00  0.00000000000E+00 -0.11884874417E+02  0.23270125271E+02  0.20006211291E+02 0.  0.
        -13    1    3    3    0    0  0.11029533672E+01 -0.99413510496E+01 -0.58690277258E+01  0.11597569821E+02  0.10570000000E+00 0. -1.
         13    1    3    3    0    0 -0.11029533672E+01  0.99413510496E+01 -0.60158466915E+01  0.11672555450E+02  0.10570000000E+00 0.  1.
<mgrwt>
<rscale>  0 0.20006211E+02</rscale>
<asrwt>0</asrwt>
<pdfrwt beam="2">  1        4 0.27042307E-02 0.20006211E+02</pdfrwt>
<pdfrwt beam="1">  1       -4 0.87578853E-03 0.20006211E+02</pdfrwt>
<totfact> 0.12815035E+06</totfact>
</mgrwt>
</event>
<event>
 4    1  0.4710515E-007  0.2001917E+02  0.7818608E-02  0.1744947E+00
          4   -1    0    0  501    0  0.00000000000E+00  0.00000000000E+00  0.45471353119E+01  0.47637001946E+01  0.14200000000E+01 0. -1.
         -4   -1    0    0    0  501 -0.00000000000E+00 -0.00000000000E+00 -0.21280772269E+02  0.21328095751E+02  0.14200000000E+01 0.  1.
        -13    1    1    2    0    0  0.54079269896E+01  0.84159750547E+01 -0.87917944794E+01  0.13318450852E+02  0.10570000000E+00 0. -1.
         13    1    1    2    0    0 -0.54079269896E+01 -0.84159750547E+01 -0.79418424779E+01  0.12773345094E+02  0.10570000000E+00 0.  1.
<mgrwt>
<rscale>  0 0.20019171E+02</rscale>
<asrwt>0</asrwt>
<pdfrwt beam="1">  1        4 0.71985839E-03 0.20019171E+02</pdfrwt>
<pdfrwt beam="2">  1       -4 0.32942640E-02 0.20019171E+02</pdfrwt>
<totfact> 0.12640441E+06</totfact>
</mgrwt>
</event>
<event>
 4    1  0.4710515E-007  0.2001830E+02  0.7818608E-02  0.1744964E+00
         -4   -1    0    0    0  501 -0.00000000000E+00  0.00000000000E+00  0.42064229923E+02  0.42088191206E+02  0.14200000000E+01 0. -1.
          4   -1    0    0  501    0  0.00000000000E+00 -0.00000000000E+00 -0.21430919040E+01  0.25708447851E+01  0.14200000000E+01 0.  1.
        -13    1    1    2    0    0  0.42695856515E+01  0.90520215605E+01  0.20091230250E+02  0.22446317324E+02  0.10570000000E+00 0. -1.
         13    1    1    2    0    0 -0.42695856515E+01 -0.90520215605E+01  0.19829907768E+02  0.22212718667E+02  0.10570000000E+00 0.  1.
<mgrwt>
<rscale>  0 0.20018298E+02</rscale>
<asrwt>0</asrwt>
<pdfrwt beam="2">  1        4 0.36445366E-03 0.20018298E+02</pdfrwt>
<pdfrwt beam="1">  1       -4 0.65061678E-02 0.20018298E+02</pdfrwt>
<totfact> 0.11729213E+06</totfact>
</mgrwt>
</event>
<event>
 4    1  0.4710515E-007  0.2003452E+02  0.7818608E-02  0.1744642E+00
         -4   -1    0    0    0  501 -0.00000000000E+00  0.00000000000E+00  0.17414199917E+02  0.17471999277E+02  0.14200000000E+01 0.  1.
          4   -1    0    0  501    0  0.00000000000E+00 -0.00000000000E+00 -0.56062685216E+01  0.57833075948E+01  0.14200000000E+01 0. -1.
        -13    1    1    2    0    0  0.37608369396E+01 -0.92775707900E+01  0.63012222865E+01  0.11829361312E+02  0.10570000000E+00 0. -1.
         13    1    1    2    0    0 -0.37608369396E+01  0.92775707900E+01  0.55067091085E+01  0.11425945560E+02  0.10570000000E+00 0.  1.
<mgrwt>
<rscale>  0 0.20034522E+02</rscale>
<asrwt>0</asrwt>
<pdfrwt beam="2">  1        4 0.88056737E-03 0.20034522E+02</pdfrwt>
<pdfrwt beam="1">  1       -4 0.26971721E-02 0.20034522E+02</pdfrwt>
<totfact> 0.12778986E+06</totfact>
</mgrwt>
</event>
<event>
 5    1  0.4710515E-007  0.2000799E+02  0.7818608E-02  0.1745169E+00
         -4   -1    0    0    0  501 -0.00000000000E+00  0.00000000000E+00  0.14236760895E+02  0.14307402307E+02  0.14200000000E+01 0. -1.
          4   -1    0    0  501    0  0.00000000000E+00 -0.00000000000E+00 -0.68688397073E+01  0.70140828998E+01  0.14200000000E+01 0.  1.
       1023    2    1    2    0    0  0.00000000000E+00  0.00000000000E+00  0.73679211873E+01  0.21321485207E+02  0.20007985126E+02 0.  0.
        -13    1    3    3    0    0 -0.80874276516E+01 -0.58843741704E+01  0.38871318177E+01  0.10730951107E+02  0.10570000000E+00 0. -1.
         13    1    3    3    0    0  0.80874276516E+01  0.58843741704E+01  0.34807893695E+01  0.10590534100E+02  0.10570000000E+00 0.  1.
<mgrwt>
<rscale>  0 0.20007985E+02</rscale>
<asrwt>0</asrwt>
<pdfrwt beam="2">  1        4 0.10733511E-02 0.20007985E+02</pdfrwt>
<pdfrwt beam="1">  1       -4 0.22068774E-02 0.20007985E+02</pdfrwt>
<totfact> 0.12925297E+06</totfact>
</mgrwt>
</event>
<event>
 4    1  0.4710515E-007  0.2005573E+02  0.7818608E-02  0.1744222E+00
         -4   -1    0    0    0  501 -0.00000000000E+00  0.00000000000E+00  0.15270651438E+02  0.15336531398E+02  0.14200000000E+01 0. -1.
          4   -1    0    0  501    0  0.00000000000E+00 -0.00000000000E+00 -0.64273408825E+01  0.65823332353E+01  0.14200000000E+01 0.  1.
        -13    1    1    2    0    0  0.95769989118E+01  0.29705718060E+01  0.44885260567E+01  0.10986411774E+02  0.10570000000E+00 0. -1.
         13    1    1    2    0    0 -0.95769989118E+01 -0.29705718060E+01  0.43547844983E+01  0.10932452860E+02  0.10570000000E+00 0.  1.
<mgrwt>
<rscale>  0 0.20055734E+02</rscale>
<asrwt>0</asrwt>
<pdfrwt beam="2">  1        4 0.10058119E-02 0.20055734E+02</pdfrwt>
<pdfrwt beam="1">  1       -4 0.23663211E-02 0.20055734E+02</pdfrwt>
<totfact> 0.12827897E+06</totfact>
</mgrwt>
</event>
<event>
 5    1  0.5316686E-007  0.2000181E+02  0.7818608E-02  0.1745292E+00
         -4   -1    0    0    0  501 -0.00000000000E+00  0.00000000000E+00  0.15207686822E+02  0.15273838368E+02  0.14200000000E+01 0.  1.
          4   -1    0    0  501    0  0.00000000000E+00 -0.00000000000E+00 -0.64186186700E+01  0.65738166715E+01  0.14200000000E+01 0. -1.
       1023    2    1    2    0    0  0.00000000000E+00  0.00000000000E+00  0.87890681523E+01  0.21847655039E+02  0.20001807712E+02 0.  0.
        -13    1    3    3    0    0 -0.73855725733E+01  0.67421649373E+01  0.44585531582E+01  0.10949581683E+02  0.10570000000E+00 0. -1.
         13    1    3    3    0    0  0.73855725733E+01 -0.67421649373E+01  0.43305149942E+01  0.10898073356E+02  0.10570000000E+00 0.  1.
<mgrwt>
<rscale>  0 0.20001808E+02</rscale>
<asrwt>0</asrwt>
<pdfrwt beam="2">  1        4 0.10045067E-02 0.20001808E+02</pdfrwt>
<pdfrwt beam="1">  1       -4 0.23566710E-02 0.20001808E+02</pdfrwt>
<totfact> 0.12902699E+06</totfact>
</mgrwt>
</event>
<event>
 5    1  0.4710515E-007  0.2000420E+02  0.7818608E-02  0.1745245E+00
         -4   -1    0    0    0  501 -0.00000000000E+00  0.00000000000E+00  0.19871685673E+02  0.19922356574E+02  0.14200000000E+01 0. -1.
          4   -1    0    0  501    0  0.00000000000E+00 -0.00000000000E+00 -0.48759058536E+01  0.50784700347E+01  0.14200000000E+01 0.  1.
       1023    2    1    2    0    0  0.00000000000E+00  0.00000000000E+00  0.14995779819E+02  0.25000826609E+02  0.20004197528E+02 0.  0.
        -13    1    3    3    0    0 -0.69350549542E+01  0.72062335148E+01  0.75948465799E+01  0.12558569017E+02  0.10570000000E+00 0. -1.
         13    1    3    3    0    0  0.69350549542E+01 -0.72062335148E+01  0.74009332391E+01  0.12442257592E+02  0.10570000000E+00 0.  1.
<mgrwt>
<rscale>  0 0.20004198E+02</rscale>
<asrwt>0</asrwt>
<pdfrwt beam="2">  1        4 0.76961897E-03 0.20004198E+02</pdfrwt>
<pdfrwt beam="1">  1       -4 0.30766621E-02 0.20004198E+02</pdfrwt>
<totfact> 0.12720113E+06</totfact>
</mgrwt>
</event>
<event>
 5    1  0.5247082E-007  0.2000176E+02  0.7818608E-02  0.1745293E+00
          4   -1    0    0  501    0  0.00000000000E+00  0.00000000000E+00  0.10184499204E+02  0.10283016291E+02  0.14200000000E+01 0. -1.
         -4   -1    0    0    0  501 -0.00000000000E+00 -0.00000000000E+00 -0.96224319496E+01  0.97266436464E+01  0.14200000000E+01 0.  1.
       1023    2    1    2    0    0  0.00000000000E+00  0.00000000000E+00  0.56206725430E+00  0.20009659937E+02  0.20001764202E+02 0.  0.
        -13    1    3    3    0    0 -0.32791057040E+01  0.94472827489E+01  0.22824202125E+00  0.10003347063E+02  0.10570000000E+00 0.  1.
         13    1    3    3    0    0  0.32791057040E+01 -0.94472827489E+01  0.33382523304E+00  0.10006312874E+02  0.10570000000E+00 0. -1.
<mgrwt>
<rscale>  0 0.20001764E+02</rscale>
<asrwt>0</asrwt>
<pdfrwt beam="1">  1        4 0.15824405E-02 0.20001764E+02</pdfrwt>
<pdfrwt beam="2">  1       -4 0.14959687E-02 0.20001764E+02</pdfrwt>
<totfact> 0.13011128E+06</totfact>
</mgrwt>
</event>
<event>
 4    1  0.4710515E-007  0.2001468E+02  0.7818608E-02  0.1745036E+00
          4   -1    0    0  501    0  0.00000000000E+00  0.00000000000E+00  0.50034514423E+01  0.52010505031E+01  0.14200000000E+01 0.  1.
         -4   -1    0    0    0  501 -0.00000000000E+00 -0.00000000000E+00 -0.19403922731E+02  0.19455811917E+02  0.14200000000E+01 0. -1.
        -13    1    1    2    0    0  0.98476249370E+01  0.17734933244E+01 -0.70511007566E+01  0.12241331212E+02  0.10570000000E+00 0.  1.
         13    1    1    2    0    0 -0.98476249370E+01 -0.17734933244E+01 -0.73493705320E+01  0.12415531208E+02  0.10570000000E+00 0. -1.
<mgrwt>
<rscale>  0 0.20014677E+02</rscale>
<asrwt>0</asrwt>
<pdfrwt beam="1">  1        4 0.78895317E-03 0.20014677E+02</pdfrwt>
<pdfrwt beam="2">  1       -4 0.30044103E-02 0.20014677E+02</pdfrwt>
<totfact> 0.12725765E+06</totfact>
</mgrwt>
</event>
<event>
 5    1  0.4766974E-007  0.2000171E+02  0.7818608E-02  0.1745294E+00
         -4   -1    0    0    0  501 -0.00000000000E+00  0.00000000000E+00  0.14798250776E+02  0.14866224337E+02  0.14200000000E+01 0.  1.
          4   -1    0    0  501    0  0.00000000000E+00 -0.00000000000E+00 -0.65995601696E+01  0.67505995610E+01  0.14200000000E+01 0. -1.
       1023    2    1    2    0    0  0.00000000000E+00  0.00000000000E+00  0.81986906062E+01  0.21616823898E+02  0.20001713621E+02 0.  0.
        -13    1    3    3    0    0 -0.38433300140E+01  0.92319886631E+01  0.40216803153E+01  0.10778955669E+02  0.10570000000E+00 0. -1.
         13    1    3    3    0    0  0.38433300140E+01 -0.92319886631E+01  0.41770102909E+01  0.10837868228E+02  0.10570000000E+00 0.  1.
<mgrwt>
<rscale>  0 0.20001714E+02</rscale>
<asrwt>0</asrwt>
<pdfrwt beam="2">  1        4 0.10321641E-02 0.20001714E+02</pdfrwt>
<pdfrwt beam="1">  1       -4 0.22935011E-02 0.20001714E+02</pdfrwt>
<totfact> 0.12916278E+06</totfact>
</mgrwt>
</event>
<event>
 5    1  0.4710515E-007  0.2001072E+02  0.7818608E-02  0.1745115E+00
         -4   -1    0    0    0  501 -0.00000000000E+00  0.00000000000E+00  0.24784770194E+02  0.24825415074E+02  0.14200000000E+01 0.  1.
          4   -1    0    0  501    0  0.00000000000E+00 -0.00000000000E+00 -0.38688206697E+01  0.41211859184E+01  0.14200000000E+01 0. -1.
       1023    2    1    2    0    0  0.00000000000E+00  0.00000000000E+00  0.20915949525E+02  0.28946600992E+02  0.20010716241E+02 0.  0.
        -13    1    3    3    0    0  0.99450508073E+01  0.10768961819E+01  0.10198086820E+02  0.14285513229E+02  0.10570000000E+00 0.  1.
         13    1    3    3    0    0 -0.99450508073E+01 -0.10768961819E+01  0.10717862705E+02  0.14661087763E+02  0.10570000000E+00 0. -1.
<mgrwt>
<rscale>  0 0.20010716E+02</rscale>
<asrwt>0</asrwt>
<pdfrwt beam="2">  1        4 0.61774241E-03 0.20010716E+02</pdfrwt>
<pdfrwt beam="1">  1       -4 0.38355809E-02 0.20010716E+02</pdfrwt>
<totfact> 0.12497512E+06</totfact>
</mgrwt>
</event>
<event>
 5    1  0.4710515E-007  0.2000172E+02  0.7818608E-02  0.1745294E+00
         -4   -1    0    0    0  501 -0.00000000000E+00  0.00000000000E+00  0.22184140921E+01  0.26339629998E+01  0.14200000000E+01 0. -1.
          4   -1    0    0  501    0  0.00000000000E+00 -0.00000000000E+00 -0.40795062171E+02  0.40819768465E+02  0.14200000000E+01 0.  1.
       1023    2    1    2    0    0  0.00000000000E+00  0.00000000000E+00 -0.38576648079E+02  0.43453731465E+02  0.20001724956E+02 0.  0.
        -13    1    3    3    0    0  0.68617556105E+01 -0.72747764842E+01 -0.19296698527E+02  0.21734300299E+02  0.10570000000E+00 0. -1.
         13    1    3    3    0    0 -0.68617556105E+01  0.72747764842E+01 -0.19279949552E+02  0.21719431166E+02  0.10570000000E+00 0.  1.
<mgrwt>
<rscale>  0 0.20001725E+02</rscale>
<asrwt>0</asrwt>
<pdfrwt beam="2">  1        4 0.63100287E-02 0.20001725E+02</pdfrwt>
<pdfrwt beam="1">  1       -4 0.37516029E-03 0.20001725E+02</pdfrwt>
<totfact> 0.11802673E+06</totfact>
</mgrwt>
</event>
<event>
 5    1  0.5298470E-007  0.2000252E+02  0.7818608E-02  0.1745278E+00
         -4   -1    0    0    0  501 -0.00000000000E+00  0.00000000000E+00  0.12176092988E+02  0.12258614949E+02  0.14200000000E+01 0.  1.
          4   -1    0    0  501    0  0.00000000000E+00 -0.00000000000E+00 -0.80422103923E+01  0.81666117818E+01  0.14200000000E+01 0. -1.
       1023    2    1    2    0    0  0.00000000000E+00  0.00000000000E+00  0.41338825960E+01  0.20425226730E+02  0.20002522383E+02 0.  0.
        -13    1    3    3    0    0  0.35399023139E+01 -0.93527918572E+01  0.19731914792E+01  0.10193639243E+02  0.10570000000E+00 0.  1.
         13    1    3    3    0    0 -0.35399023139E+01  0.93527918572E+01  0.21606911168E+01  0.10231587487E+02  0.10570000000E+00 0. -1.
<mgrwt>
<rscale>  0 0.20002522E+02</rscale>
<asrwt>0</asrwt>
<pdfrwt beam="2">  1        4 0.12531803E-02 0.20002522E+02</pdfrwt>
<pdfrwt beam="1">  1       -4 0.18891623E-02 0.20002522E+02</pdfrwt>
<totfact> 0.12985409E+06</totfact>
</mgrwt>
</event>
<event>
 5    1  0.4710515E-007  0.2000218E+02  0.7818608E-02  0.1745285E+00
          4   -1    0    0  501    0  0.00000000000E+00  0.00000000000E+00  0.10424008164E+03  0.10424975310E+03  0.14200000000E+01 0.  1.
         -4   -1    0    0    0  501 -0.00000000000E+00 -0.00000000000E+00 -0.41904516489E+00  0.14805400536E+01  0.14200000000E+01 0. -1.
       1023    2    1    2    0    0  0.00000000000E+00  0.00000000000E+00  0.10382103648E+03  0.10573029315E+03  0.20002181743E+02 0.  0.
        -13    1    3    3    0    0 -0.76627138957E+01 -0.64253069809E+01  0.51412065693E+02  0.52375694987E+02  0.10570000000E+00 0.  1.
         13    1    3    3    0    0  0.76627138957E+01  0.64253069809E+01  0.52408970786E+02  0.53354598166E+02  0.10570000000E+00 0. -1.
<mgrwt>
<rscale>  0 0.20002182E+02</rscale>
<asrwt>0</asrwt>
<pdfrwt beam="1">  1        4 0.16119333E-01 0.20002182E+02</pdfrwt>
<pdfrwt beam="2">  1       -4 0.14686589E-03 0.20002182E+02</pdfrwt>
<totfact> 0.96389363E+05</totfact>
</mgrwt>
</event>
<event>
 5    1  0.4710515E-007  0.2000296E+02  0.7818608E-02  0.1745269E+00
          4   -1    0    0  501    0  0.00000000000E+00  0.00000000000E+00  0.20219991644E+01  0.24708056623E+01  0.14200000000E+01 0. -1.
         -4   -1    0    0    0  501 -0.00000000000E+00 -0.00000000000E+00 -0.44067413420E+02  0.44090286068E+02  0.14200000000E+01 0.  1.
       1023    2    1    2    0    0  0.00000000000E+00  0.00000000000E+00 -0.42045414256E+02  0.46561091730E+02  0.20002959860E+02 0.  0.
        -13    1    3    3    0    0 -0.30519031232E+01  0.95232805787E+01 -0.21271702986E+02  0.23505393127E+02  0.10570000000E+00 0. -1.
         13    1    3    3    0    0  0.30519031232E+01 -0.95232805787E+01 -0.20773711270E+02  0.23055698603E+02  0.10570000000E+00 0.  1.
<mgrwt>
<rscale>  0 0.20002960E+02</rscale>
<asrwt>0</asrwt>
<pdfrwt beam="1">  1        4 0.34735984E-03 0.20002960E+02</pdfrwt>
<pdfrwt beam="2">  1       -4 0.68158844E-02 0.20002960E+02</pdfrwt>
<totfact> 0.11663841E+06</totfact>
</mgrwt>
</event>
<event>
 5    1  0.4710515E-007  0.2000829E+02  0.7818608E-02  0.1745163E+00
         -4   -1    0    0    0  501 -0.00000000000E+00  0.00000000000E+00  0.10980515912E+01  0.17950257092E+01  0.14200000000E+01 0.  1.
          4   -1    0    0  501    0  0.00000000000E+00 -0.00000000000E+00 -0.68481743229E+02  0.68496463819E+02  0.14200000000E+01 0. -1.
       1023    2    1    2    0    0  0.00000000000E+00  0.00000000000E+00 -0.67383691638E+02  0.70291489528E+02  0.20008288316E+02 0.  0.
        -13    1    3    3    0    0 -0.61806213780E+01 -0.78619057126E+01 -0.32816481343E+02  0.34306592111E+02  0.10570000000E+00 0.  1.
         13    1    3    3    0    0  0.61806213780E+01  0.78619057126E+01 -0.34567210295E+02  0.35984897417E+02  0.10570000000E+00 0. -1.
<mgrwt>
<rscale>  0 0.20008288E+02</rscale>
<asrwt>0</asrwt>
<pdfrwt beam="2">  1        4 0.10590396E-01 0.20008288E+02</pdfrwt>
<pdfrwt beam="1">  1       -4 0.22367681E-03 0.20008288E+02</pdfrwt>
<totfact> 0.10731596E+06</totfact>
</mgrwt>
</event>
<event>
 5    1  0.4710515E-007  0.2000670E+02  0.7818608E-02  0.1745195E+00
          4   -1    0    0  501    0  0.00000000000E+00  0.00000000000E+00  0.31245495697E+01  0.34320853739E+01  0.14200000000E+01 0.  1.
         -4   -1    0    0    0  501 -0.00000000000E+00 -0.00000000000E+00 -0.30198885682E+02  0.30232252586E+02  0.14200000000E+01 0. -1.
       1023    2    1    2    0    0  0.00000000000E+00  0.00000000000E+00 -0.27074336112E+02  0.33664337960E+02  0.20006698237E+02 0.  0.
        -13    1    3    3    0    0  0.25751695564E+00 -0.99977819834E+01 -0.13227534556E+02  0.16583148148E+02  0.10570000000E+00 0. -1.
         13    1    3    3    0    0 -0.25751695564E+00  0.99977819834E+01 -0.13846801556E+02  0.17081189812E+02  0.10570000000E+00 0.  1.
<mgrwt>
<rscale>  0 0.20006698E+02</rscale>
<asrwt>0</asrwt>
<pdfrwt beam="1">  1        4 0.50692324E-03 0.20006698E+02</pdfrwt>
<pdfrwt beam="2">  1       -4 0.46722055E-02 0.20006698E+02</pdfrwt>
<totfact> 0.12259982E+06</totfact>
</mgrwt>
</event>
<event>
 4    1  0.4710515E-007  0.2009760E+02  0.7818608E-02  0.1743394E+00
          4   -1    0    0  501    0  0.00000000000E+00  0.00000000000E+00  0.25743703620E+02  0.25782836851E+02  0.14200000000E+01 0. -1.
         -4   -1    0    0    0  501 -0.00000000000E+00 -0.00000000000E+00 -0.37503227481E+01  0.40101522059E+01  0.14200000000E+01 0.  1.
        -13    1    1    2    0    0 -0.92945032887E+01 -0.37638594430E+01  0.11949073939E+02  0.15599550307E+02  0.10570000000E+00 0. -1.
         13    1    1    2    0    0  0.92945032887E+01  0.37638594430E+01  0.10044306933E+02  0.14193438750E+02  0.10570000000E+00 0.  1.
<mgrwt>
<rscale>  0 0.20097597E+02</rscale>
<asrwt>0</asrwt>
<pdfrwt beam="1">  1        4 0.39835668E-02 0.20097597E+02</pdfrwt>
<pdfrwt beam="2">  1       -4 0.59996988E-03 0.20097597E+02</pdfrwt>
<totfact> 0.12343772E+06</totfact>
</mgrwt>
</event>
<event>
 4    1  0.4710515E-007  0.2001496E+02  0.7818608E-02  0.1745031E+00
         -4   -1    0    0    0  501 -0.00000000000E+00  0.00000000000E+00  0.12992145119E+02  0.13069515477E+02  0.14200000000E+01 0.  1.
          4   -1    0    0  501    0  0.00000000000E+00 -0.00000000000E+00 -0.75417677959E+01  0.76742857314E+01  0.14200000000E+01 0. -1.
        -13    1    1    2    0    0  0.43494893324E+00 -0.99961944103E+01  0.28904087431E+01  0.10415311731E+02  0.10570000000E+00 0. -1.
         13    1    1    2    0    0 -0.43494893324E+00  0.99961944103E+01  0.25599685805E+01  0.10328489477E+02  0.10570000000E+00 0.  1.
<mgrwt>
<rscale>  0 0.20014961E+02</rscale>
<asrwt>0</asrwt>
<pdfrwt beam="2">  1        4 0.11764172E-02 0.20014961E+02</pdfrwt>
<pdfrwt beam="1">  1       -4 0.20149368E-02 0.20014961E+02</pdfrwt>
<totfact> 0.12950132E+06</totfact>
</mgrwt>
</event>
<event>
 4    1  0.4710515E-007  0.2446777E+02  0.7818608E-02  0.1668766E+00
         -4   -1    0    0    0  501 -0.00000000000E+00  0.00000000000E+00  0.72613232154E+02  0.72627115349E+02  0.14200000000E+01 0.  1.
          4   -1    0    0  501    0  0.00000000000E+00 -0.00000000000E+00 -0.18008068342E+01  0.22933175214E+01  0.14200000000E+01 0. -1.
        -13    1    1    2    0    0 -0.10149899151E+02  0.67186649208E+01  0.31661245324E+02  0.33920591667E+02  0.10570000000E+00 0. -1.
         13    1    1    2    0    0  0.10149899151E+02 -0.67186649208E+01  0.39151179997E+02  0.40999841204E+02  0.10570000000E+00 0.  1.
<mgrwt>
<rscale>  0 0.24467768E+02</rscale>
<asrwt>0</asrwt>
<pdfrwt beam="2">  1        4 0.31600064E-03 0.24467768E+02</pdfrwt>
<pdfrwt beam="1">  1       -4 0.11210218E-01 0.24467768E+02</pdfrwt>
<totfact> 0.69722689E+05</totfact>
</mgrwt>
</event>
<event>
 5    1  0.4710515E-007  0.2000280E+02  0.7818608E-02  0.1745272E+00
          4   -1    0    0  501    0  0.00000000000E+00  0.00000000000E+00  0.81667034685E+02  0.81679379002E+02  0.14200000000E+01 0.  1.
         -4   -1    0    0    0  501 -0.00000000000E+00 -0.00000000000E+00 -0.79655720224E+00  0.16281595058E+01  0.14200000000E+01 0. -1.
       1023    2    1    2    0    0  0.00000000000E+00  0.00000000000E+00  0.80870477483E+02  0.83307538508E+02  0.20002795905E+02 0.  0.
        -13    1    3    3    0    0 -0.69905563650E+01 -0.71508932216E+01  0.40921581912E+02  0.42125885045E+02  0.10570000000E+00 0.  1.
         13    1    3    3    0    0  0.69905563650E+01  0.71508932216E+01  0.39948895571E+02  0.41181653463E+02  0.10570000000E+00 0. -1.
<mgrwt>
<rscale>  0 0.20002796E+02</rscale>
<asrwt>0</asrwt>
<pdfrwt beam="1">  1        4 0.12629085E-01 0.20002796E+02</pdfrwt>
<pdfrwt beam="2">  1       -4 0.18746613E-03 0.20002796E+02</pdfrwt>
<totfact> 0.10301477E+06</totfact>
</mgrwt>
</event>
<event>
 5    1  0.4710515E-007  0.2000116E+02  0.7818608E-02  0.1745305E+00
          4   -1    0    0  501    0  0.00000000000E+00  0.00000000000E+00  0.60047498613E+01  0.61703663503E+01  0.14200000000E+01 0. -1.
         -4   -1    0    0    0  501 -0.00000000000E+00 -0.00000000000E+00 -0.16231823562E+02  0.16293817728E+02  0.14200000000E+01 0.  1.
       1023    2    1    2    0    0  0.00000000000E+00  0.00000000000E+00 -0.10227073701E+02  0.22464184078E+02  0.20001163212E+02 0.  0.
        -13    1    3    3    0    0  0.99701949568E+01 -0.77175322966E+00 -0.51041775592E+01  0.11227831116E+02  0.10570000000E+00 0.  1.
         13    1    3    3    0    0 -0.99701949568E+01  0.77175322966E+00 -0.51228961415E+01  0.11236352962E+02  0.10570000000E+00 0. -1.
<mgrwt>
<rscale>  0 0.20001163E+02</rscale>
<asrwt>0</asrwt>
<pdfrwt beam="1">  1        4 0.94131619E-03 0.20001163E+02</pdfrwt>
<pdfrwt beam="2">  1       -4 0.25147121E-02 0.20001163E+02</pdfrwt>
<totfact> 0.12867840E+06</totfact>
</mgrwt>
</event>
<event>
 5    1  0.4710515E-007  0.2000145E+02  0.7818608E-02  0.1745299E+00
         -4   -1    0    0    0  501 -0.00000000000E+00  0.00000000000E+00  0.37819414087E+00  0.14695001899E+01  0.14200000000E+01 0.  1.
          4   -1    0    0  501    0  0.00000000000E+00 -0.00000000000E+00 -0.10715989897E+03  0.10716930692E+03  0.14200000000E+01 0. -1.
       1023    2    1    2    0    0  0.00000000000E+00  0.00000000000E+00 -0.10678170483E+03  0.10863880711E+03  0.20001448088E+02 0.  0.
        -13    1    3    3    0    0 -0.99010672228E+01  0.14033005871E+01 -0.53097135520E+02  0.54030707543E+02  0.10570000000E+00 0. -1.
         13    1    3    3    0    0  0.99010672228E+01 -0.14033005871E+01 -0.53684569306E+02  0.54608099571E+02  0.10570000000E+00 0.  1.
<mgrwt>
<rscale>  0 0.20001448E+02</rscale>
<asrwt>0</asrwt>
<pdfrwt beam="2">  1        4 0.16570799E-01 0.20001448E+02</pdfrwt>
<pdfrwt beam="1">  1       -4 0.14285411E-03 0.20001448E+02</pdfrwt>
<totfact> 0.95604831E+05</totfact>
</mgrwt>
</event>
<event>
 5    1  0.4710515E-007  0.2000284E+02  0.7818608E-02  0.1745272E+00
          4   -1    0    0  501    0  0.00000000000E+00  0.00000000000E+00  0.22196947458E+02  0.22242321742E+02  0.14200000000E+01 0. -1.
         -4   -1    0    0    0  501 -0.00000000000E+00 -0.00000000000E+00 -0.43431903117E+01  0.45694312648E+01  0.14200000000E+01 0.  1.
       1023    2    1    2    0    0  0.00000000000E+00  0.00000000000E+00  0.17853757147E+02  0.26811753007E+02  0.20002836175E+02 0.  0.
        -13    1    3    3    0    0  0.93349713845E+01 -0.35881408939E+01  0.88902819043E+01  0.13381507040E+02  0.10570000000E+00 0. -1.
         13    1    3    3    0    0 -0.93349713845E+01  0.35881408939E+01  0.89634752423E+01  0.13430245967E+02  0.10570000000E+00 0.  1.
<mgrwt>
<rscale>  0 0.20002836E+02</rscale>
<asrwt>0</asrwt>
<pdfrwt beam="1">  1        4 0.34358085E-02 0.20002836E+02</pdfrwt>
<pdfrwt beam="2">  1       -4 0.68907661E-03 0.20002836E+02</pdfrwt>
<totfact> 0.12622089E+06</totfact>
</mgrwt>
</event>
<event>
 4    1  0.4710515E-007  0.2002014E+02  0.7818608E-02  0.1744928E+00
          4   -1    0    0  501    0  0.00000000000E+00  0.00000000000E+00  0.28206510659E+01  0.31579221706E+01  0.14200000000E+01 0.  1.
         -4   -1    0    0    0  501 -0.00000000000E+00 -0.00000000000E+00 -0.33166880815E+02  0.33197264692E+02  0.14200000000E+01 0. -1.
        -13    1    1    2    0    0 -0.80743191769E+01 -0.59024959180E+01 -0.14455357502E+02  0.17578470389E+02  0.10570000000E+00 0. -1.
         13    1    1    2    0    0  0.80743191769E+01  0.59024959180E+01 -0.15890872248E+02  0.18776716473E+02  0.10570000000E+00 0.  1.
<mgrwt>
<rscale>  0 0.20020139E+02</rscale>
<asrwt>0</asrwt>
<pdfrwt beam="1">  1        4 0.46222749E-03 0.20020139E+02</pdfrwt>
<pdfrwt beam="2">  1       -4 0.51308779E-02 0.20020139E+02</pdfrwt>
<totfact> 0.12111018E+06</totfact>
</mgrwt>
</event>
<event>
 5    1  0.4710515E-007  0.2000161E+02  0.7818608E-02  0.1745296E+00
         -4   -1    0    0    0  501 -0.00000000000E+00  0.00000000000E+00  0.10949805592E+01  0.17931487459E+01  0.14200000000E+01 0. -1.
          4   -1    0    0  501    0  0.00000000000E+00 -0.00000000000E+00 -0.68552804621E+02  0.68567509954E+02  0.14200000000E+01 0.  1.
       1023    2    1    2    0    0  0.00000000000E+00  0.00000000000E+00 -0.67457824061E+02  0.70360658700E+02  0.20001606577E+02 0.  0.
        -13    1    3    3    0    0  0.99381413413E+01 -0.11124033315E+01 -0.33629450534E+02  0.35084971287E+02  0.10570000000E+00 0. -1.
         13    1    3    3    0    0 -0.99381413413E+01  0.11124033315E+01 -0.33828373527E+02  0.35275687413E+02  0.10570000000E+00 0.  1.
<mgrwt>
<rscale>  0 0.20001607E+02</rscale>
<asrwt>0</asrwt>
<pdfrwt beam="2">  1        4 0.10601419E-01 0.20001607E+02</pdfrwt>
<pdfrwt beam="1">  1       -4 0.22329503E-03 0.20001607E+02</pdfrwt>
<totfact> 0.10736356E+06</totfact>
</mgrwt>
</event>
<event>
 5    1  0.4710515E-007  0.2000207E+02  0.7818608E-02  0.1745287E+00
          4   -1    0    0  501    0  0.00000000000E+00  0.00000000000E+00  0.78190848976E+02  0.78203742005E+02  0.14200000000E+01 0.  1.
         -4   -1    0    0    0  501 -0.00000000000E+00 -0.00000000000E+00 -0.86802055659E+00  0.16642895441E+01  0.14200000000E+01 0. -1.
       1023    2    1    2    0    0  0.00000000000E+00  0.00000000000E+00  0.77322828420E+02  0.79868031550E+02  0.20002066612E+02 0.  0.
        -13    1    3    3    0    0 -0.50814038063E+01 -0.86132754284E+01  0.38732445880E+02  0.40002783836E+02  0.10570000000E+00 0. -1.
         13    1    3    3    0    0  0.50814038063E+01  0.86132754284E+01  0.38590382539E+02  0.39865247714E+02  0.10570000000E+00 0.  1.
<mgrwt>
<rscale>  0 0.20002067E+02</rscale>
<asrwt>0</asrwt>
<pdfrwt beam="1">  1        4 0.12091608E-01 0.20002067E+02</pdfrwt>
<pdfrwt beam="2">  1       -4 0.19578480E-03 0.20002067E+02</pdfrwt>
<totfact> 0.10413321E+06</totfact>
</mgrwt>
</event>
<event>
 5    1  0.4710515E-007  0.2000461E+02  0.7818608E-02  0.1745236E+00
          4   -1    0    0  501    0  0.00000000000E+00  0.00000000000E+00  0.21620657898E+02  0.21667239047E+02  0.14200000000E+01 0. -1.
         -4   -1    0    0    0  501 -0.00000000000E+00 -0.00000000000E+00 -0.44654916917E+01  0.46858314149E+01  0.14200000000E+01 0.  1.
       1023    2    1    2    0    0  0.00000000000E+00  0.00000000000E+00  0.17155166206E+02  0.26353070462E+02  0.20004614348E+02 0.  0.
        -13    1    3    3    0    0 -0.40209420545E+01 -0.91575792838E+01  0.84777511960E+01  0.13111547246E+02  0.10570000000E+00 0. -1.
         13    1    3    3    0    0  0.40209420545E+01  0.91575792838E+01  0.86774150098E+01  0.13241523216E+02  0.10570000000E+00 0.  1.
<mgrwt>
<rscale>  0 0.20004614E+02</rscale>
<asrwt>0</asrwt>
<pdfrwt beam="1">  1        4 0.33467875E-02 0.20004614E+02</pdfrwt>
<pdfrwt beam="2">  1       -4 0.70753109E-03 0.20004614E+02</pdfrwt>
<totfact> 0.12644842E+06</totfact>
</mgrwt>
</event>
<event>
 4    1  0.4710515E-007  0.2023411E+02  0.7818608E-02  0.1740712E+00
         -4   -1    0    0    0  501 -0.00000000000E+00  0.00000000000E+00  0.51402072046E+02  0.51421682301E+02  0.14200000000E+01 0. -1.
          4   -1    0    0  501    0  0.00000000000E+00 -0.00000000000E+00 -0.17154903355E+01  0.22269501771E+01  0.14200000000E+01 0.  1.
        -13    1    1    2    0    0  0.97235363484E+01  0.26985226542E+01  0.22941508379E+02  0.25062983917E+02  0.10570000000E+00 0.  1.
         13    1    1    2    0    0 -0.97235363484E+01 -0.26985226542E+01  0.26745073332E+02  0.28585648561E+02  0.10570000000E+00 0. -1.
<mgrwt>
<rscale>  0 0.20234114E+02</rscale>
<asrwt>0</asrwt>
<pdfrwt beam="2">  1        4 0.30477320E-03 0.20234114E+02</pdfrwt>
<pdfrwt beam="1">  1       -4 0.79488609E-02 0.20234114E+02</pdfrwt>
<totfact> 0.11105469E+06</totfact>
</mgrwt>
</event>
<event>
 5    1  0.4710515E-007  0.2000667E+02  0.7818608E-02  0.1745195E+00
         -4   -1    0    0    0  501 -0.00000000000E+00  0.00000000000E+00  0.17095895839E+02  0.17154767692E+02  0.14200000000E+01 0.  1.
          4   -1    0    0  501    0  0.00000000000E+00 -0.00000000000E+00 -0.56970272385E+01  0.58713302885E+01  0.14200000000E+01 0. -1.
       1023    2    1    2    0    0  0.00000000000E+00  0.00000000000E+00  0.11398868601E+02  0.23026097980E+02  0.20006673457E+02 0.  0.
        -13    1    3    3    0    0  0.96005079886E+01  0.28074905932E+01  0.56283362304E+01  0.11477852512E+02  0.10570000000E+00 0.  1.
         13    1    3    3    0    0 -0.96005079886E+01 -0.28074905932E+01  0.57705323705E+01  0.11548245468E+02  0.10570000000E+00 0. -1.
<mgrwt>
<rscale>  0 0.20006673E+02</rscale>
<asrwt>0</asrwt>
<pdfrwt beam="2">  1        4 0.89440228E-03 0.20006673E+02</pdfrwt>
<pdfrwt beam="1">  1       -4 0.26480743E-02 0.20006673E+02</pdfrwt>
<totfact> 0.12828356E+06</totfact>
</mgrwt>
</event>
<event>
 5    1  0.4710515E-007  0.2000168E+02  0.7818608E-02  0.1745295E+00
         -4   -1    0    0    0  501 -0.00000000000E+00  0.00000000000E+00  0.91490428588E+01  0.92585844075E+01  0.14200000000E+01 0.  1.
          4   -1    0    0  501    0  0.00000000000E+00 -0.00000000000E+00 -0.10710209185E+02  0.10803933579E+02  0.14200000000E+01 0. -1.
       1023    2    1    2    0    0  0.00000000000E+00  0.00000000000E+00 -0.15611663259E+01  0.20062517987E+02  0.20001684621E+02 0.  0.
        -13    1    3    3    0    0 -0.39769840857E+01  0.91754607763E+01 -0.79446540954E+00  0.10032339241E+02  0.10570000000E+00 0. -1.
         13    1    3    3    0    0  0.39769840857E+01 -0.91754607763E+01 -0.76670091636E+00  0.10030178745E+02  0.10570000000E+00 0.  1.
<mgrwt>
<rscale>  0 0.20001685E+02</rscale>
<asrwt>0</asrwt>
<pdfrwt beam="2">  1        4 0.16633603E-02 0.20001685E+02</pdfrwt>
<pdfrwt beam="1">  1       -4 0.14231809E-02 0.20001685E+02</pdfrwt>
<totfact> 0.13008098E+06</totfact>
</mgrwt>
</event>
<event>
 4    1  0.4710515E-007  0.2004105E+02  0.7818608E-02  0.1744513E+00
          4   -1    0    0  501    0  0.00000000000E+00  0.00000000000E+00  0.77858439555E+02  0.77871387621E+02  0.14200000000E+01 0.  1.
         -4   -1    0    0    0  501 -0.00000000000E+00 -0.00000000000E+00 -0.88168653170E+00  0.16714577889E+01  0.14200000000E+01 0. -1.
        -13    1    1    2    0    0 -0.80081085316E+01  0.60131004386E+01  0.39820125810E+02  0.41060209098E+02  0.10570000000E+00 0.  1.
         13    1    1    2    0    0  0.80081085316E+01 -0.60131004386E+01  0.37156627214E+02  0.38482636312E+02  0.10570000000E+00 0. -1.
<mgrwt>
<rscale>  0 0.20041052E+02</rscale>
<asrwt>0</asrwt>
<pdfrwt beam="1">  1        4 0.12039971E-01 0.20041052E+02</pdfrwt>
<pdfrwt beam="2">  1       -4 0.19739169E-03 0.20041052E+02</pdfrwt>
<totfact> 0.10383395E+06</totfact>
</mgrwt>
</event>
<event>
 5    1  0.4710515E-007  0.2000199E+02  0.7818608E-02  0.1745288E+00
         -4   -1    0    0    0  501 -0.00000000000E+00  0.00000000000E+00  0.85364404126E+01  0.86537399382E+01  0.14200000000E+01 0. -1.
          4   -1    0    0  501    0  0.00000000000E+00 -0.00000000000E+00 -0.11475510642E+02  0.11563033533E+02  0.14200000000E+01 0.  1.
       1023    2    1    2    0    0  0.00000000000E+00  0.00000000000E+00 -0.29390702293E+01  0.20216773471E+02  0.20001994795E+02 0.  0.
        -13    1    3    3    0    0  0.72652301197E+01 -0.68720172392E+01 -0.14940197548E+01  0.10111946259E+02  0.10570000000E+00 0.  1.
         13    1    3    3    0    0 -0.72652301197E+01  0.68720172392E+01 -0.14450504745E+01  0.10104827212E+02  0.10570000000E+00 0. -1.
<mgrwt>
<rscale>  0 0.20001995E+02</rscale>
<asrwt>0</asrwt>
<pdfrwt beam="2">  1        4 0.17812187E-02 0.20001995E+02</pdfrwt>
<pdfrwt beam="1">  1       -4 0.13290541E-02 0.20001995E+02</pdfrwt>
<totfact> 0.12998496E+06</totfact>
</mgrwt>
</event>
<event>
 4    1  0.4710515E-007  0.2014943E+02  0.7818608E-02  0.1742373E+00
         -4   -1    0    0    0  501 -0.00000000000E+00  0.00000000000E+00  0.61389618232E+02  0.61406039008E+02  0.14200000000E+01 0. -1.
          4   -1    0    0  501    0  0.00000000000E+00 -0.00000000000E+00 -0.13286900755E+01  0.19446895168E+01  0.14200000000E+01 0.  1.
        -13    1    1    2    0    0  0.40011932489E+01 -0.92092789050E+01  0.32600882948E+02  0.34112301400E+02  0.10570000000E+00 0. -1.
         13    1    1    2    0    0 -0.40011932489E+01  0.92092789050E+01  0.27460045209E+02  0.29238427125E+02  0.10570000000E+00 0.  1.
<mgrwt>
<rscale>  0 0.20149435E+02</rscale>
<asrwt>0</asrwt>
<pdfrwt beam="2">  1        4 0.25306156E-03 0.20149435E+02</pdfrwt>
<pdfrwt beam="1">  1       -4 0.94932046E-02 0.20149435E+02</pdfrwt>
<totfact> 0.10828642E+06</totfact>
</mgrwt>
</event>
<event>
 4    1  0.4710515E-007  0.2001529E+02  0.7818608E-02  0.1745024E+00
         -4   -1    0    0    0  501 -0.00000000000E+00  0.00000000000E+00  0.24506495336E+02  0.24547600976E+02  0.14200000000E+01 0. -1.
          4   -1    0    0  501    0  0.00000000000E+00 -0.00000000000E+00 -0.39174452815E+01  0.41668666326E+01  0.14200000000E+01 0.  1.
        -13    1    1    2    0    0 -0.23831206512E+01 -0.97137666526E+01  0.98291707600E+01  0.14023562206E+02  0.10570000000E+00 0.  1.
         13    1    1    2    0    0  0.23831206512E+01  0.97137666526E+01  0.10759879295E+02  0.14690905403E+02  0.10570000000E+00 0. -1.
<mgrwt>
<rscale>  0 0.20015286E+02</rscale>
<asrwt>0</asrwt>
<pdfrwt beam="2">  1        4 0.62503211E-03 0.20015286E+02</pdfrwt>
<pdfrwt beam="1">  1       -4 0.37925783E-02 0.20015286E+02</pdfrwt>
<totfact> 0.12503998E+06</totfact>
</mgrwt>
</event>
<event>
 5    1  0.4710515E-007  0.2000297E+02  0.7818608E-02  0.1745269E+00
         -4   -1    0    0    0  501 -0.00000000000E+00  0.00000000000E+00  0.14729393021E+02  0.14797682885E+02  0.14200000000E+01 0. -1.
          4   -1    0    0  501    0  0.00000000000E+00 -0.00000000000E+00 -0.66318339147E+01  0.67821546040E+01  0.14200000000E+01 0.  1.
       1023    2    1    2    0    0  0.00000000000E+00  0.00000000000E+00  0.80975591064E+01  0.21579837489E+02  0.20002972843E+02 0.  0.
        -13    1    3    3    0    0 -0.31754275788E+01  0.94833388753E+01  0.40069739955E+01  0.10774231742E+02  0.10570000000E+00 0.  1.
         13    1    3    3    0    0  0.31754275788E+01 -0.94833388753E+01  0.40905851109E+01  0.10805605748E+02  0.10570000000E+00 0. -1.
<mgrwt>
<rscale>  0 0.20002973E+02</rscale>
<asrwt>0</asrwt>
<pdfrwt beam="2">  1        4 0.10370984E-02 0.20002973E+02</pdfrwt>
<pdfrwt beam="1">  1       -4 0.22828766E-02 0.20002973E+02</pdfrwt>
<totfact> 0.12916779E+06</totfact>
</mgrwt>
</event>
<event>
 4    1  0.4710515E-007  0.2013419E+02  0.7818608E-02  0.1742673E+00
         -4   -1    0    0    0  501 -0.00000000000E+00  0.00000000000E+00  0.38065493911E+02  0.38091970633E+02  0.14200000000E+01 0. -1.
          4   -1    0    0  501    0  0.00000000000E+00 -0.00000000000E+00 -0.24436405881E+01  0.28262659683E+01  0.14200000000E+01 0.  1.
        -13    1    1    2    0    0  0.27133905425E+01  0.96905159719E+01  0.18335602625E+02  0.20915881146E+02  0.10570000000E+00 0.  1.
         13    1    1    2    0    0 -0.27133905425E+01 -0.96905159719E+01  0.17286250699E+02  0.20002355455E+02  0.10570000000E+00 0. -1.
<mgrwt>
<rscale>  0 0.20134191E+02</rscale>
<asrwt>0</asrwt>
<pdfrwt beam="2">  1        4 0.40741409E-03 0.20134191E+02</pdfrwt>
<pdfrwt beam="1">  1       -4 0.58876993E-02 0.20134191E+02</pdfrwt>
<totfact> 0.11759733E+06</totfact>
</mgrwt>
</event>
<event>
 5    1  0.4710515E-007  0.2000246E+02  0.7818608E-02  0.1745279E+00
         -4   -1    0    0    0  501 -0.00000000000E+00  0.00000000000E+00  0.93236129807E+01  0.94311271338E+01  0.14200000000E+01 0.  1.
          4   -1    0    0  501    0  0.00000000000E+00 -0.00000000000E+00 -0.10511059030E+02  0.10606543355E+02  0.14200000000E+01 0. -1.
       1023    2    1    2    0    0  0.00000000000E+00  0.00000000000E+00 -0.11874460494E+01  0.20037670488E+02  0.20002455111E+02 0.  0.
        -13    1    3    3    0    0  0.96794432932E+01 -0.25128479653E+01 -0.50782378296E+00  0.10013744796E+02  0.10570000000E+00 0.  1.
         13    1    3    3    0    0 -0.96794432932E+01  0.25128479653E+01 -0.67962226648E+00  0.10023925692E+02  0.10570000000E+00 0. -1.
<mgrwt>
<rscale>  0 0.20002455E+02</rscale>
<asrwt>0</asrwt>
<pdfrwt beam="2">  1        4 0.16327013E-02 0.20002455E+02</pdfrwt>
<pdfrwt beam="1">  1       -4 0.14500173E-02 0.20002455E+02</pdfrwt>
<totfact> 0.13008548E+06</totfact>
</mgrwt>
</event>
<event>
 5    1  0.4710515E-007  0.2000281E+02  0.7818608E-02  0.1745272E+00
          4   -1    0    0  501    0  0.00000000000E+00  0.00000000000E+00  0.39680656240E+02  0.39706055957E+02  0.14200000000E+01 0. -1.
         -4   -1    0    0    0  501 -0.00000000000E+00 -0.00000000000E+00 -0.22924763259E+01  0.26966363687E+01  0.14200000000E+01 0.  1.
       1023    2    1    2    0    0  0.00000000000E+00  0.00000000000E+00  0.37388179914E+02  0.42402692326E+02  0.20002807782E+02 0.  0.
        -13    1    3    3    0    0 -0.93587733434E+01  0.35256585404E+01  0.18695817967E+02  0.21202869820E+02  0.10570000000E+00 0. -1.
         13    1    3    3    0    0  0.93587733434E+01 -0.35256585404E+01  0.18692361947E+02  0.21199822506E+02  0.10570000000E+00 0.  1.
<mgrwt>
<rscale>  0 0.20002808E+02</rscale>
<asrwt>0</asrwt>
<pdfrwt beam="1">  1        4 0.61377588E-02 0.20002808E+02</pdfrwt>
<pdfrwt beam="2">  1       -4 0.38573176E-03 0.20002808E+02</pdfrwt>
<totfact> 0.11848855E+06</totfact>
</mgrwt>
</event>
<event>
 5    1  0.4710515E-007  0.2000314E+02  0.7818608E-02  0.1745266E+00
         -4   -1    0    0    0  501 -0.00000000000E+00  0.00000000000E+00  0.51372206296E+02  0.51391827947E+02  0.14200000000E+01 0.  1.
          4   -1    0    0  501    0  0.00000000000E+00 -0.00000000000E+00 -0.16655673988E+01  0.21887244595E+01  0.14200000000E+01 0. -1.
       1023    2    1    2    0    0  0.00000000000E+00  0.00000000000E+00  0.49706638897E+02  0.53580552406E+02  0.20003140896E+02 0.  0.
        -13    1    3    3    0    0 -0.48028151766E+01  0.87716375146E+01  0.25141573281E+02  0.27057689070E+02  0.10570000000E+00 0.  1.
         13    1    3    3    0    0  0.48028151766E+01 -0.87716375146E+01  0.24565065617E+02  0.26522863336E+02  0.10570000000E+00 0. -1.
<mgrwt>
<rscale>  0 0.20003141E+02</rscale>
<asrwt>0</asrwt>
<pdfrwt beam="2">  1        4 0.29799334E-03 0.20003141E+02</pdfrwt>
<pdfrwt beam="1">  1       -4 0.79451688E-02 0.20003141E+02</pdfrwt>
<totfact> 0.11368611E+06</totfact>
</mgrwt>
</event>
<event>
 5    1  0.4748671E-007  0.2000239E+02  0.7818608E-02  0.1745281E+00
          4   -1    0    0  501    0  0.00000000000E+00  0.00000000000E+00  0.11310689265E+02  0.11399477692E+02  0.14200000000E+01 0. -1.
         -4   -1    0    0    0  501 -0.00000000000E+00 -0.00000000000E+00 -0.86619033279E+01  0.87775263749E+01  0.14200000000E+01 0.  1.
       1023    2    1    2    0    0  0.00000000000E+00  0.00000000000E+00  0.26487859368E+01  0.20177004067E+02  0.20002385512E+02 0.  0.
        -13    1    3    3    0    0  0.46880669712E+01 -0.88333486657E+01  0.12420502324E+01  0.10077692288E+02  0.10570000000E+00 0. -1.
         13    1    3    3    0    0 -0.46880669712E+01  0.88333486657E+01  0.14067357044E+01  0.10099311779E+02  0.10570000000E+00 0.  1.
<mgrwt>
<rscale>  0 0.20002386E+02</rscale>
<asrwt>0</asrwt>
<pdfrwt beam="1">  1        4 0.17558300E-02 0.20002386E+02</pdfrwt>
<pdfrwt beam="2">  1       -4 0.13483245E-02 0.20002386E+02</pdfrwt>
<totfact> 0.13000350E+06</totfact>
</mgrwt>
</event>
<event>
 5    1  0.4710515E-007  0.2000304E+02  0.7818608E-02  0.1745268E+00
         -4   -1    0    0    0  501 -0.00000000000E+00  0.00000000000E+00  0.63097720803E+01  0.64675825240E+01  0.14200000000E+01 0.  1.
          4   -1    0    0  501    0  0.00000000000E+00 -0.00000000000E+00 -0.15466709358E+02  0.15531757736E+02  0.14200000000E+01 0. -1.
       1023    2    1    2    0    0  0.00000000000E+00  0.00000000000E+00 -0.91569372781E+01  0.21999340260E+02  0.20003036559E+02 0.  0.
        -13    1    3    3    0    0 -0.46596345616E+01  0.88490729442E+01 -0.46116305508E+01  0.11013473342E+02  0.10570000000E+00 0.  1.
         13    1    3    3    0    0  0.46596345616E+01 -0.88490729442E+01 -0.45453067272E+01  0.10985866919E+02  0.10570000000E+00 0. -1.
<mgrwt>
<rscale>  0 0.20003037E+02</rscale>
<asrwt>0</asrwt>
<pdfrwt beam="2">  1        4 0.23966367E-02 0.20003037E+02</pdfrwt>
<pdfrwt beam="1">  1       -4 0.98787716E-03 0.20003037E+02</pdfrwt>
<totfact> 0.12892270E+06</totfact>
</mgrwt>
</event>
<event>
 4    1  0.4710515E-007  0.2003876E+02  0.7818608E-02  0.1744558E+00
         -4   -1    0    0    0  501 -0.00000000000E+00  0.00000000000E+00  0.50152441904E+01  0.52123962138E+01  0.14200000000E+01 0. -1.
          4   -1    0    0  501    0  0.00000000000E+00 -0.00000000000E+00 -0.19407120318E+02  0.19459000977E+02  0.14200000000E+01 0.  1.
        -13    1    1    2    0    0 -0.99964526049E+01 -0.66743952090E+00 -0.72539807263E+01  0.12369557351E+02  0.10570000000E+00 0.  1.
         13    1    1    2    0    0  0.99964526049E+01  0.66743952090E+00 -0.71378954008E+01  0.12301839840E+02  0.10570000000E+00 0. -1.
<mgrwt>
<rscale>  0 0.20038756E+02</rscale>
<asrwt>0</asrwt>
<pdfrwt beam="2">  1        4 0.30048671E-02 0.20038756E+02</pdfrwt>
<pdfrwt beam="1">  1       -4 0.79073240E-03 0.20038756E+02</pdfrwt>
<totfact> 0.12693817E+06</totfact>
</mgrwt>
</event>
<event>
 4    1  0.4710515E-007  0.2004780E+02  0.7818608E-02  0.1744379E+00
         -4   -1    0    0    0  501 -0.00000000000E+00  0.00000000000E+00  0.64664298329E+01  0.66205071394E+01  0.14200000000E+01 0. -1.
          4   -1    0    0  501    0  0.00000000000E+00 -0.00000000000E+00 -0.15167924007E+02  0.15234248215E+02  0.14200000000E+01 0.  1.
        -13    1    1    2    0    0  0.84763326938E+01 -0.53411660934E+01 -0.46798497461E+01  0.11058410252E+02  0.10570000000E+00 0. -1.
         13    1    1    2    0    0 -0.84763326938E+01  0.53411660934E+01 -0.40216444280E+01  0.10796345102E+02  0.10570000000E+00 0.  1.
<mgrwt>
<rscale>  0 0.20047801E+02</rscale>
<asrwt>0</asrwt>
<pdfrwt beam="2">  1        4 0.23504807E-02 0.20047801E+02</pdfrwt>
<pdfrwt beam="1">  1       -4 0.10117893E-02 0.20047801E+02</pdfrwt>
<totfact> 0.12841967E+06</totfact>
</mgrwt>
</event>
<event>
 5    1  0.4710515E-007  0.2001042E+02  0.7818608E-02  0.1745121E+00
          4   -1    0    0  501    0  0.00000000000E+00  0.00000000000E+00  0.49880466963E+02  0.49900675190E+02  0.14200000000E+01 0.  1.
         -4   -1    0    0    0  501 -0.00000000000E+00 -0.00000000000E+00 -0.17324162141E+01  0.22400147185E+01  0.14200000000E+01 0. -1.
       1023    2    1    2    0    0  0.00000000000E+00  0.00000000000E+00  0.48148050749E+02  0.52140689909E+02  0.20010416119E+02 0.  0.
        -13    1    3    3    0    0 -0.99864970210E+01  0.54699159210E+00  0.24731633877E+02  0.26677597517E+02  0.10570000000E+00 0.  1.
         13    1    3    3    0    0  0.99864970210E+01 -0.54699159210E+00  0.23416416872E+02  0.25463092392E+02  0.10570000000E+00 0. -1.
<mgrwt>
<rscale>  0 0.20010416E+02</rscale>
<asrwt>0</asrwt>
<pdfrwt beam="1">  1        4 0.77145189E-02 0.20010416E+02</pdfrwt>
<pdfrwt beam="2">  1       -4 0.30712608E-03 0.20010416E+02</pdfrwt>
<totfact> 0.11419124E+06</totfact>
</mgrwt>
</event>
<event>
 5    1  0.4710515E-007  0.2000597E+02  0.7818608E-02  0.1745209E+00
          4   -1    0    0  501    0  0.00000000000E+00  0.00000000000E+00  0.30231843775E+02  0.30265174343E+02  0.14200000000E+01 0.  1.
         -4   -1    0    0    0  501 -0.00000000000E+00 -0.00000000000E+00 -0.31205589224E+01  0.34284527105E+01  0.14200000000E+01 0. -1.
       1023    2    1    2    0    0  0.00000000000E+00  0.00000000000E+00  0.27111284852E+02  0.33693627053E+02  0.20005967552E+02 0.  0.
        -13    1    3    3    0    0 -0.55434346224E+01  0.83234740275E+01  0.13224648227E+02  0.16580481915E+02  0.10570000000E+00 0. -1.
         13    1    3    3    0    0  0.55434346224E+01 -0.83234740275E+01  0.13886636625E+02  0.17113145139E+02  0.10570000000E+00 0.  1.
<mgrwt>
<rscale>  0 0.20005968E+02</rscale>
<asrwt>0</asrwt>
<pdfrwt beam="1">  1        4 0.46773008E-02 0.20005968E+02</pdfrwt>
<pdfrwt beam="2">  1       -4 0.50633403E-03 0.20005968E+02</pdfrwt>
<totfact> 0.12259426E+06</totfact>
</mgrwt>
</event>
<event>
 5    1  0.4710515E-007  0.2000342E+02  0.7818608E-02  0.1745260E+00
          4   -1    0    0  501    0  0.00000000000E+00  0.00000000000E+00  0.28441608137E+02  0.28477034140E+02  0.14200000000E+01 0. -1.
         -4   -1    0    0    0  501 -0.00000000000E+00 -0.00000000000E+00 -0.33345961331E+01  0.36243525451E+01  0.14200000000E+01 0.  1.
       1023    2    1    2    0    0  0.00000000000E+00  0.00000000000E+00  0.25107012004E+02  0.32101386685E+02  0.20003424091E+02 0.  0.
        -13    1    3    3    0    0 -0.93541090557E+01  0.35374321570E+01  0.12390725257E+02  0.15923379898E+02  0.10570000000E+00 0. -1.
         13    1    3    3    0    0  0.93541090557E+01 -0.35374321570E+01  0.12716286747E+02  0.16178006787E+02  0.10570000000E+00 0.  1.
<mgrwt>
<rscale>  0 0.20003424E+02</rscale>
<asrwt>0</asrwt>
<pdfrwt beam="1">  1        4 0.44006458E-02 0.20003424E+02</pdfrwt>
<pdfrwt beam="2">  1       -4 0.53802885E-03 0.20003424E+02</pdfrwt>
<totfact> 0.12342999E+06</totfact>
</mgrwt>
</event>
<event>
 5    1  0.4710515E-007  0.2000154E+02  0.7818608E-02  0.1745297E+00
         -4   -1    0    0    0  501 -0.00000000000E+00  0.00000000000E+00  0.81059429779E+00  0.16350728166E+01  0.14200000000E+01 0.  1.
          4   -1    0    0  501    0  0.00000000000E+00 -0.00000000000E+00 -0.80957069138E+02  0.80969521694E+02  0.14200000000E+01 0. -1.
       1023    2    1    2    0    0  0.00000000000E+00  0.00000000000E+00 -0.80146474840E+02  0.82604594511E+02  0.20001540066E+02 0.  0.
        -13    1    3    3    0    0  0.84275013814E+01 -0.53833669483E+01 -0.40190742615E+02  0.41416305770E+02  0.10570000000E+00 0. -1.
         13    1    3    3    0    0 -0.84275013814E+01  0.53833669483E+01 -0.39955732225E+02  0.41188288741E+02  0.10570000000E+00 0.  1.
<mgrwt>
<rscale>  0 0.20001540E+02</rscale>
<asrwt>0</asrwt>
<pdfrwt beam="2">  1        4 0.12519309E-01 0.20001540E+02</pdfrwt>
<pdfrwt beam="1">  1       -4 0.18908619E-03 0.20001540E+02</pdfrwt>
<totfact> 0.10325251E+06</totfact>
</mgrwt>
</event>
<event>
 5    1  0.4893193E-007  0.2000155E+02  0.7818608E-02  0.1745297E+00
         -4   -1    0    0    0  501 -0.00000000000E+00  0.00000000000E+00  0.18638888299E+01  0.23431776651E+01  0.14200000000E+01 0. -1.
          4   -1    0    0  501    0  0.00000000000E+00 -0.00000000000E+00 -0.47055199917E+02  0.47076620941E+02  0.14200000000E+01 0.  1.
       1023    2    1    2    0    0  0.00000000000E+00  0.00000000000E+00 -0.45191311087E+02  0.49419798606E+02  0.20001547353E+02 0.  0.
        -13    1    3    3    0    0  0.16344028785E+01 -0.98657396289E+01 -0.22631498360E+02  0.24742675314E+02  0.10570000000E+00 0.  1.
         13    1    3    3    0    0 -0.16344028785E+01  0.98657396289E+01 -0.22559812727E+02  0.24677123292E+02  0.10570000000E+00 0. -1.
<mgrwt>
<rscale>  0 0.20001547E+02</rscale>
<asrwt>0</asrwt>
<pdfrwt beam="2">  1        4 0.72777769E-02 0.20001547E+02</pdfrwt>
<pdfrwt beam="1">  1       -4 0.32526831E-03 0.20001547E+02</pdfrwt>
<totfact> 0.11542885E+06</totfact>
</mgrwt>
</event>
<event>
 5    1  0.4710515E-007  0.2000792E+02  0.7818608E-02  0.1745171E+00
         -4   -1    0    0    0  501 -0.00000000000E+00  0.00000000000E+00  0.10949187987E+02  0.11040883913E+02  0.14200000000E+01 0.  1.
          4   -1    0    0  501    0  0.00000000000E+00 -0.00000000000E+00 -0.89543439229E+01  0.90662381995E+01  0.14200000000E+01 0. -1.
       1023    2    1    2    0    0  0.00000000000E+00  0.00000000000E+00  0.19948440643E+01  0.20107122112E+02  0.20007922351E+02 0.  0.
        -13    1    3    3    0    0 -0.88571748331E+01 -0.46482612183E+01  0.88647387727E+00  0.10042553799E+02  0.10570000000E+00 0.  1.
         13    1    3    3    0    0  0.88571748331E+01  0.46482612183E+01  0.11083701871E+01  0.10064568314E+02  0.10570000000E+00 0. -1.
<mgrwt>
<rscale>  0 0.20007922E+02</rscale>
<asrwt>0</asrwt>
<pdfrwt beam="2">  1        4 0.13932522E-02 0.20007922E+02</pdfrwt>
<pdfrwt beam="1">  1       -4 0.17001512E-02 0.20007922E+02</pdfrwt>
<totfact> 0.12997175E+06</totfact>
</mgrwt>
</event>
<event>
 5    1  0.4710515E-007  0.2000220E+02  0.7818608E-02  0.1745284E+00
         -4   -1    0    0    0  501 -0.00000000000E+00  0.00000000000E+00  0.41377263509E+02  0.41401622378E+02  0.14200000000E+01 0. -1.
          4   -1    0    0  501    0  0.00000000000E+00 -0.00000000000E+00 -0.21814572673E+01  0.26029129469E+01  0.14200000000E+01 0.  1.
       1023    2    1    2    0    0  0.00000000000E+00  0.00000000000E+00  0.39195806242E+02  0.44004535325E+02  0.20002197434E+02 0.  0.
        -13    1    3    3    0    0 -0.34662346922E+01  0.93804655444E+01  0.19479710771E+02  0.21896991140E+02  0.10570000000E+00 0. -1.
         13    1    3    3    0    0  0.34662346922E+01 -0.93804655444E+01  0.19716095471E+02  0.22107544185E+02  0.10570000000E+00 0.  1.
<mgrwt>
<rscale>  0 0.20002197E+02</rscale>
<asrwt>0</asrwt>
<pdfrwt beam="2">  1        4 0.36990225E-03 0.20002197E+02</pdfrwt>
<pdfrwt beam="1">  1       -4 0.64000260E-02 0.20002197E+02</pdfrwt>
<totfact> 0.11777437E+06</totfact>
</mgrwt>
</event>
<event>
 5    1  0.5595028E-007  0.2000355E+02  0.7818608E-02  0.1745258E+00
         -4   -1    0    0    0  501 -0.00000000000E+00  0.00000000000E+00  0.16647979905E+02  0.16708430055E+02  0.14200000000E+01 0. -1.
          4   -1    0    0  501    0  0.00000000000E+00 -0.00000000000E+00 -0.58524707131E+01  0.60222764340E+01  0.14200000000E+01 0.  1.
       1023    2    1    2    0    0  0.00000000000E+00  0.00000000000E+00  0.10795509192E+02  0.22730706489E+02  0.20003549655E+02 0.  0.
        -13    1    3    3    0    0 -0.10000529583E+02  0.56612974187E-02  0.55307746431E+01  0.11428528542E+02  0.10570000000E+00 0.  1.
         13    1    3    3    0    0  0.10000529583E+02 -0.56612974187E-02  0.52647345484E+01  0.11302177947E+02  0.10570000000E+00 0. -1.
<mgrwt>
<rscale>  0 0.20003550E+02</rscale>
<asrwt>0</asrwt>
<pdfrwt beam="2">  1        4 0.91809212E-03 0.20003550E+02</pdfrwt>
<pdfrwt beam="1">  1       -4 0.25789396E-02 0.20003550E+02</pdfrwt>
<totfact> 0.12849370E+06</totfact>
</mgrwt>
</event>
<event>
 5    1  0.4970786E-007  0.2000317E+02  0.7818608E-02  0.1745265E+00
          4   -1    0    0  501    0  0.00000000000E+00  0.00000000000E+00  0.68929533679E+01  0.70376989231E+01  0.14200000000E+01 0. -1.
         -4   -1    0    0    0  501 -0.00000000000E+00 -0.00000000000E+00 -0.14180800461E+02  0.14251719254E+02  0.14200000000E+01 0.  1.
       1023    2    1    2    0    0  0.00000000000E+00  0.00000000000E+00 -0.72878470928E+01  0.21289418178E+02  0.20003165027E+02 0.  0.
        -13    1    3    3    0    0 -0.43178406161E+01  0.90209021969E+01 -0.36519058437E+01  0.10647441609E+02  0.10570000000E+00 0.  1.
         13    1    3    3    0    0  0.43178406161E+01 -0.90209021969E+01 -0.36359412491E+01  0.10641976569E+02  0.10570000000E+00 0. -1.
<mgrwt>
<rscale>  0 0.20003165E+02</rscale>
<asrwt>0</asrwt>
<pdfrwt beam="1">  1        4 0.10770439E-02 0.20003165E+02</pdfrwt>
<pdfrwt beam="2">  1       -4 0.21982512E-02 0.20003165E+02</pdfrwt>
<totfact> 0.12933534E+06</totfact>
</mgrwt>
</event>
<event>
 5    1  0.4710515E-007  0.2000292E+02  0.7818608E-02  0.1745270E+00
         -4   -1    0    0    0  501 -0.00000000000E+00  0.00000000000E+00  0.14686641782E+01  0.20428838607E+01  0.14200000000E+01 0.  1.
          4   -1    0    0  501    0  0.00000000000E+00 -0.00000000000E+00 -0.56386939940E+02  0.56404817133E+02  0.14200000000E+01 0. -1.
       1023    2    1    2    0    0  0.00000000000E+00  0.00000000000E+00 -0.54918275762E+02  0.58447700994E+02  0.20002918257E+02 0.  0.
        -13    1    3    3    0    0 -0.73539516297E+01 -0.67775919664E+01 -0.27340275755E+02  0.29112165984E+02  0.10570000000E+00 0.  1.
         13    1    3    3    0    0  0.73539516297E+01  0.67775919664E+01 -0.27578000006E+02  0.29335535009E+02  0.10570000000E+00 0. -1.
<mgrwt>
<rscale>  0 0.20002918E+02</rscale>
<asrwt>0</asrwt>
<pdfrwt beam="2">  1        4 0.87204584E-02 0.20002918E+02</pdfrwt>
<pdfrwt beam="1">  1       -4 0.27149429E-03 0.20002918E+02</pdfrwt>
<totfact> 0.11175518E+06</totfact>
</mgrwt>
</event>
<event>
 5    1  0.5131801E-007  0.2000231E+02  0.7818608E-02  0.1745282E+00
         -4   -1    0    0    0  501 -0.00000000000E+00  0.00000000000E+00  0.10694034120E+02  0.10787899043E+02  0.14200000000E+01 0.  1.
          4   -1    0    0  501    0  0.00000000000E+00 -0.00000000000E+00 -0.91635085988E+01  0.92728792637E+01  0.14200000000E+01 0. -1.
       1023    2    1    2    0    0  0.00000000000E+00  0.00000000000E+00  0.15305255217E+01  0.20060778307E+02  0.20002307815E+02 0.  0.
        -13    1    3    3    0    0  0.17534901170E+01 -0.98455286609E+01  0.81780661265E+00  0.10034397956E+02  0.10570000000E+00 0.  1.
         13    1    3    3    0    0 -0.17534901170E+01  0.98455286609E+01  0.71271890908E+00  0.10026380351E+02  0.10570000000E+00 0. -1.
<mgrwt>
<rscale>  0 0.20002308E+02</rscale>
<asrwt>0</asrwt>
<pdfrwt beam="2">  1        4 0.14254041E-02 0.20002308E+02</pdfrwt>
<pdfrwt beam="1">  1       -4 0.16608695E-02 0.20002308E+02</pdfrwt>
<totfact> 0.13007373E+06</totfact>
</mgrwt>
</event>
<event>
 5    1  0.4710515E-007  0.2000735E+02  0.7818608E-02  0.1745182E+00
          4   -1    0    0  501    0  0.00000000000E+00  0.00000000000E+00  0.27437769059E+02  0.27474489457E+02  0.14200000000E+01 0.  1.
         -4   -1    0    0    0  501 -0.00000000000E+00 -0.00000000000E+00 -0.34683200489E+01  0.37477518544E+01  0.14200000000E+01 0. -1.
       1023    2    1    2    0    0  0.00000000000E+00  0.00000000000E+00  0.23969449010E+02  0.31222241312E+02  0.20007345318E+02 0.  0.
        -13    1    3    3    0    0  0.99958904142E+01 -0.37278183741E+00  0.12100485652E+02  0.15699990986E+02  0.10570000000E+00 0.  1.
         13    1    3    3    0    0 -0.99958904142E+01  0.37278183741E+00  0.11868963358E+02  0.15522250325E+02  0.10570000000E+00 0. -1.
<mgrwt>
<rscale>  0 0.20007345E+02</rscale>
<asrwt>0</asrwt>
<pdfrwt beam="1">  1        4 0.42455148E-02 0.20007345E+02</pdfrwt>
<pdfrwt beam="2">  1       -4 0.55790708E-03 0.20007345E+02</pdfrwt>
<totfact> 0.12383138E+06</totfact>
</mgrwt>
</event>
<event>
 5    1  0.4795729E-007  0.2000125E+02  0.7818608E-02  0.1745303E+00
          4   -1    0    0  501    0  0.00000000000E+00  0.00000000000E+00  0.73973081074E+01  0.75323679701E+01  0.14200000000E+01 0. -1.
         -4   -1    0    0    0  501 -0.00000000000E+00 -0.00000000000E+00 -0.13224401889E+02  0.13300421246E+02  0.14200000000E+01 0.  1.
       1023    2    1    2    0    0  0.00000000000E+00  0.00000000000E+00 -0.58270937811E+01  0.20832789216E+02  0.20001252075E+02 0.  0.
        -13    1    3    3    0    0  0.84156380717E+01 -0.54016352314E+01 -0.29415209747E+01  0.10424219178E+02  0.10570000000E+00 0.  1.
         13    1    3    3    0    0 -0.84156380717E+01  0.54016352314E+01 -0.28855728064E+01  0.10408570038E+02  0.10570000000E+00 0. -1.
<mgrwt>
<rscale>  0 0.20001252E+02</rscale>
<asrwt>0</asrwt>
<pdfrwt beam="1">  1        4 0.11542843E-02 0.20001252E+02</pdfrwt>
<pdfrwt beam="2">  1       -4 0.20507602E-02 0.20001252E+02</pdfrwt>
<totfact> 0.12962979E+06</totfact>
</mgrwt>
</event>
<event>
 5    1  0.4710515E-007  0.2001191E+02  0.7818608E-02  0.1745091E+00
          4   -1    0    0  501    0  0.00000000000E+00  0.00000000000E+00  0.32718619221E+02  0.32749418983E+02  0.14200000000E+01 0.  1.
         -4   -1    0    0    0  501 -0.00000000000E+00 -0.00000000000E+00 -0.28611918987E+01  0.31941851983E+01  0.14200000000E+01 0. -1.
       1023    2    1    2    0    0  0.00000000000E+00  0.00000000000E+00  0.29857427322E+02  0.35943604181E+02  0.20011914332E+02 0.  0.
        -13    1    3    3    0    0  0.91123198160E+01  0.41202932097E+01  0.14369844048E+02  0.17507563480E+02  0.10570000000E+00 0.  1.
         13    1    3    3    0    0 -0.91123198160E+01 -0.41202932097E+01  0.15487583274E+02  0.18436040701E+02  0.10570000000E+00 0. -1.
<mgrwt>
<rscale>  0 0.20011914E+02</rscale>
<asrwt>0</asrwt>
<pdfrwt beam="1">  1        4 0.50616180E-02 0.20011914E+02</pdfrwt>
<pdfrwt beam="2">  1       -4 0.46816743E-03 0.20011914E+02</pdfrwt>
<totfact> 0.12141090E+06</totfact>
</mgrwt>
</event>
<event>
 5    1  0.4710515E-007  0.2000197E+02  0.7818608E-02  0.1745289E+00
          4   -1    0    0  501    0  0.00000000000E+00  0.00000000000E+00  0.47077372021E+01  0.49172339343E+01  0.14200000000E+01 0.  1.
         -4   -1    0    0    0  501 -0.00000000000E+00 -0.00000000000E+00 -0.20548848191E+02  0.20597853335E+02  0.14200000000E+01 0. -1.
       1023    2    1    2    0    0  0.00000000000E+00  0.00000000000E+00 -0.15841110989E+02  0.25515087269E+02  0.20001971927E+02 0.  0.
        -13    1    3    3    0    0 -0.90782176666E+01  0.41935715037E+01 -0.80379534667E+01  0.12830430483E+02  0.10570000000E+00 0.  1.
         13    1    3    3    0    0  0.90782176666E+01 -0.41935715037E+01 -0.78031575226E+01  0.12684656786E+02  0.10570000000E+00 0. -1.
<mgrwt>
<rscale>  0 0.20001972E+02</rscale>
<asrwt>0</asrwt>
<pdfrwt beam="1">  1        4 0.74415203E-03 0.20001972E+02</pdfrwt>
<pdfrwt beam="2">  1       -4 0.31812460E-02 0.20001972E+02</pdfrwt>
<totfact> 0.12694402E+06</totfact>
</mgrwt>
</event>
<event>
 5    1  0.4710515E-007  0.2000911E+02  0.7818608E-02  0.1745147E+00
         -4   -1    0    0    0  501 -0.00000000000E+00  0.00000000000E+00  0.14739030789E+02  0.14807276204E+02  0.14200000000E+01 0. -1.
          4   -1    0    0  501    0  0.00000000000E+00 -0.00000000000E+00 -0.66316211830E+01  0.67819465874E+01  0.14200000000E+01 0.  1.
       1023    2    1    2    0    0  0.00000000000E+00  0.00000000000E+00  0.81074096059E+01  0.21589222792E+02  0.20009109182E+02 0.  0.
        -13    1    3    3    0    0  0.29217273572E+01 -0.95661605312E+01  0.42467831440E+01  0.10867118184E+02  0.10570000000E+00 0.  1.
         13    1    3    3    0    0 -0.29217273572E+01  0.95661605312E+01  0.38606264619E+01  0.10722104608E+02  0.10570000000E+00 0. -1.
<mgrwt>
<rscale>  0 0.20009109E+02</rscale>
<asrwt>0</asrwt>
<pdfrwt beam="2">  1        4 0.10370626E-02 0.20009109E+02</pdfrwt>
<pdfrwt beam="1">  1       -4 0.22843563E-02 0.20009109E+02</pdfrwt>
<totfact> 0.12908152E+06</totfact>
</mgrwt>
</event>
<event>
 4    1  0.4710515E-007  0.2027347E+02  0.7818608E-02  0.1739944E+00
         -4   -1    0    0    0  501 -0.00000000000E+00  0.00000000000E+00  0.11768384003E+03  0.11769240674E+03  0.14200000000E+01 0. -1.
          4   -1    0    0  501    0  0.00000000000E+00 -0.00000000000E+00 -0.28140739981E+00  0.14476153234E+01  0.14200000000E+01 0.  1.
        -13    1    1    2    0    0  0.10099385868E+02  0.86291096598E+00  0.58735833555E+02  0.59604123399E+02  0.10570000000E+00 0.  1.
         13    1    1    2    0    0 -0.10099385868E+02 -0.86291096598E+00  0.58666599080E+02  0.59535898669E+02  0.10570000000E+00 0. -1.
<mgrwt>
<rscale>  0 0.20273472E+02</rscale>
<asrwt>0</asrwt>
<pdfrwt beam="2">  1        4 0.13366068E-03 0.20273472E+02</pdfrwt>
<pdfrwt beam="1">  1       -4 0.18195580E-01 0.20273472E+02</pdfrwt>
<totfact> 0.90393884E+05</totfact>
</mgrwt>
</event>
<event>
 4    1  0.4710515E-007  0.2006349E+02  0.7818608E-02  0.1744068E+00
          4   -1    0    0  501    0  0.00000000000E+00  0.00000000000E+00  0.39861885805E+01  0.42315599251E+01  0.14200000000E+01 0. -1.
         -4   -1    0    0    0  501 -0.00000000000E+00 -0.00000000000E+00 -0.24225559127E+02  0.24267140644E+02  0.14200000000E+01 0.  1.
        -13    1    1    2    0    0  0.31618741516E+01  0.95133282261E+01 -0.96196653744E+01  0.13894243286E+02  0.10570000000E+00 0. -1.
         13    1    1    2    0    0 -0.31618741516E+01 -0.95133282261E+01 -0.10619705172E+02  0.14604457283E+02  0.10570000000E+00 0.  1.
<mgrwt>
<rscale>  0 0.20063495E+02</rscale>
<asrwt>0</asrwt>
<pdfrwt beam="1">  1        4 0.63533309E-03 0.20063495E+02</pdfrwt>
<pdfrwt beam="2">  1       -4 0.37490823E-02 0.20063495E+02</pdfrwt>
<totfact> 0.12454351E+06</totfact>
</mgrwt>
</event>
<event>
 5    1  0.4710515E-007  0.2000168E+02  0.7818608E-02  0.1745295E+00
         -4   -1    0    0    0  501 -0.00000000000E+00  0.00000000000E+00  0.60495751748E+02  0.60512415086E+02  0.14200000000E+01 0.  1.
          4   -1    0    0  501    0  0.00000000000E+00 -0.00000000000E+00 -0.13282905309E+01  0.19444165537E+01  0.14200000000E+01 0. -1.
       1023    2    1    2    0    0  0.00000000000E+00  0.00000000000E+00  0.59167461217E+02  0.62456831640E+02  0.20001683719E+02 0.  0.
        -13    1    3    3    0    0 -0.91903423826E+01 -0.39422203679E+01  0.29729219784E+02  0.31366242619E+02  0.10570000000E+00 0. -1.
         13    1    3    3    0    0  0.91903423826E+01  0.39422203679E+01  0.29438241433E+02  0.31090589022E+02  0.10570000000E+00 0.  1.
<mgrwt>
<rscale>  0 0.20001684E+02</rscale>
<asrwt>0</asrwt>
<pdfrwt beam="2">  1        4 0.25302852E-03 0.20001684E+02</pdfrwt>
<pdfrwt beam="1">  1       -4 0.93557139E-02 0.20001684E+02</pdfrwt>
<totfact> 0.11023661E+06</totfact>
</mgrwt>
</event>
<event>
 5    1  0.4710515E-007  0.2000324E+02  0.7818608E-02  0.1745264E+00
         -4   -1    0    0    0  501 -0.00000000000E+00  0.00000000000E+00  0.75418397903E+02  0.75431764809E+02  0.14200000000E+01 0. -1.
          4   -1    0    0  501    0  0.00000000000E+00 -0.00000000000E+00 -0.92887374877E+00  0.16968224542E+01  0.14200000000E+01 0.  1.
       1023    2    1    2    0    0  0.00000000000E+00  0.00000000000E+00  0.74489524154E+02  0.77128587263E+02  0.20003243851E+02 0.  0.
        -13    1    3    3    0    0 -0.18864596124E+00 -0.99989665005E+01  0.36937498490E+02  0.38267543501E+02  0.10570000000E+00 0. -1.
         13    1    3    3    0    0  0.18864596124E+00  0.99989665005E+01  0.37552025664E+02  0.38861043763E+02  0.10570000000E+00 0.  1.
<mgrwt>
<rscale>  0 0.20003244E+02</rscale>
<asrwt>0</asrwt>
<pdfrwt beam="2">  1        4 0.20300492E-03 0.20003244E+02</pdfrwt>
<pdfrwt beam="1">  1       -4 0.11662928E-01 0.20003244E+02</pdfrwt>
<totfact> 0.10502622E+06</totfact>
</mgrwt>
</event>
<event>
 5    1  0.4710515E-007  0.2001015E+02  0.7818608E-02  0.1745126E+00
          4   -1    0    0  501    0  0.00000000000E+00  0.00000000000E+00  0.19405104642E+02  0.19456990676E+02  0.14200000000E+01 0. -1.
         -4   -1    0    0    0  501 -0.00000000000E+00 -0.00000000000E+00 -0.50007592882E+01  0.51984606817E+01  0.14200000000E+01 0.  1.
       1023    2    1    2    0    0  0.00000000000E+00  0.00000000000E+00  0.14404345354E+02  0.24655451358E+02  0.20010150339E+02 0.  0.
        -13    1    3    3    0    0  0.57901443984E+01  0.81586579242E+01  0.72388355944E+01  0.12349145093E+02  0.10570000000E+00 0. -1.
         13    1    3    3    0    0 -0.57901443984E+01 -0.81586579242E+01  0.71655097596E+01  0.12306306265E+02  0.10570000000E+00 0.  1.
<mgrwt>
<rscale>  0 0.20010150E+02</rscale>
<asrwt>0</asrwt>
<pdfrwt beam="1">  1        4 0.30045997E-02 0.20010150E+02</pdfrwt>
<pdfrwt beam="2">  1       -4 0.78854662E-03 0.20010150E+02</pdfrwt>
<totfact> 0.12731708E+06</totfact>
</mgrwt>
</event>
<event>
 4    1  0.4710515E-007  0.2004241E+02  0.7818608E-02  0.1744486E+00
          4   -1    0    0  501    0  0.00000000000E+00  0.00000000000E+00  0.26865098759E+01  0.30387061907E+01  0.14200000000E+01 0. -1.
         -4   -1    0    0    0  501 -0.00000000000E+00 -0.00000000000E+00 -0.34713873240E+02  0.34742904244E+02  0.14200000000E+01 0.  1.
        -13    1    1    2    0    0  0.63744344060E+01  0.77183784978E+01 -0.15156916681E+02  0.18164527971E+02  0.10570000000E+00 0.  1.
         13    1    1    2    0    0 -0.63744344060E+01 -0.77183784978E+01 -0.16870446683E+02  0.19617082464E+02  0.10570000000E+00 0. -1.
<mgrwt>
<rscale>  0 0.20042407E+02</rscale>
<asrwt>0</asrwt>
<pdfrwt beam="1">  1        4 0.44263441E-03 0.20042407E+02</pdfrwt>
<pdfrwt beam="2">  1       -4 0.53699208E-02 0.20042407E+02</pdfrwt>
<totfact> 0.12015461E+06</totfact>
</mgrwt>
</event>
<event>
 4    1  0.4710515E-007  0.2006735E+02  0.7818608E-02  0.1743992E+00
          4   -1    0    0  501    0  0.00000000000E+00  0.00000000000E+00  0.17192283182E+02  0.17250826097E+02  0.14200000000E+01 0. -1.
         -4   -1    0    0    0  501 -0.00000000000E+00 -0.00000000000E+00 -0.57000515386E+01  0.58742648513E+01  0.14200000000E+01 0.  1.
        -13    1    1    2    0    0 -0.81426364054E+01  0.58565464537E+01  0.60325319300E+01  0.11704882655E+02  0.10570000000E+00 0. -1.
         13    1    1    2    0    0  0.81426364054E+01 -0.58565464537E+01  0.54596997134E+01  0.11420208293E+02  0.10570000000E+00 0.  1.
<mgrwt>
<rscale>  0 0.20067348E+02</rscale>
<asrwt>0</asrwt>
<pdfrwt beam="1">  1        4 0.26628710E-02 0.20067348E+02</pdfrwt>
<pdfrwt beam="2">  1       -4 0.89483533E-03 0.20067348E+02</pdfrwt>
<totfact> 0.12743764E+06</totfact>
</mgrwt>
</event>
<event>
 4    1  0.4710515E-007  0.2021598E+02  0.7818608E-02  0.1741067E+00
         -4   -1    0    0    0  501 -0.00000000000E+00  0.00000000000E+00  0.10741872120E+02  0.10835322637E+02  0.14200000000E+01 0. -1.
          4   -1    0    0  501    0  0.00000000000E+00 -0.00000000000E+00 -0.93228757028E+01  0.94303982614E+01  0.14200000000E+01 0.  1.
        -13    1    1    2    0    0  0.68532377010E+01 -0.74129995191E+01  0.12014926994E+01  0.10167309676E+02  0.10570000000E+00 0.  1.
         13    1    1    2    0    0 -0.68532377010E+01  0.74129995191E+01  0.21750371820E+00  0.10098411222E+02  0.10570000000E+00 0. -1.
<mgrwt>
<rscale>  0 0.20215981E+02</rscale>
<asrwt>0</asrwt>
<pdfrwt beam="2">  1        4 0.14497480E-02 0.20215981E+02</pdfrwt>
<pdfrwt beam="1">  1       -4 0.16680552E-02 0.20215981E+02</pdfrwt>
<totfact> 0.12715938E+06</totfact>
</mgrwt>
</event>
<event>
 5    1  0.4710515E-007  0.2000636E+02  0.7818608E-02  0.1745202E+00
          4   -1    0    0  501    0  0.00000000000E+00  0.00000000000E+00  0.22527018417E+02  0.22571729192E+02  0.14200000000E+01 0. -1.
         -4   -1    0    0    0  501 -0.00000000000E+00 -0.00000000000E+00 -0.42779507367E+01  0.45074674159E+01  0.14200000000E+01 0.  1.
       1023    2    1    2    0    0  0.00000000000E+00  0.00000000000E+00  0.18249067680E+02  0.27079196608E+02  0.20006359433E+02 0.  0.
        -13    1    3    3    0    0 -0.98741777744E+01  0.15960297952E+01  0.92270285080E+01  0.13608670964E+02  0.10570000000E+00 0. -1.
         13    1    3    3    0    0  0.98741777744E+01 -0.15960297952E+01  0.90220391719E+01  0.13470525644E+02  0.10570000000E+00 0.  1.
<mgrwt>
<rscale>  0 0.20006359E+02</rscale>
<asrwt>0</asrwt>
<pdfrwt beam="1">  1        4 0.34867896E-02 0.20006359E+02</pdfrwt>
<pdfrwt beam="2">  1       -4 0.67924069E-03 0.20006359E+02</pdfrwt>
<totfact> 0.12603043E+06</totfact>
</mgrwt>
</event>
<event>
 5    1  0.4710515E-007  0.2000254E+02  0.7818608E-02  0.1745278E+00
          4   -1    0    0  501    0  0.00000000000E+00  0.00000000000E+00  0.43529665832E+02  0.43552820889E+02  0.14200000000E+01 0. -1.
         -4   -1    0    0    0  501 -0.00000000000E+00 -0.00000000000E+00 -0.20523675288E+01  0.24957188290E+01  0.14200000000E+01 0.  1.
       1023    2    1    2    0    0  0.00000000000E+00  0.00000000000E+00  0.41477298303E+02  0.46048539718E+02  0.20002543230E+02 0.  0.
        -13    1    3    3    0    0  0.46296643762E+01 -0.88644035378E+01  0.20860881712E+02  0.23134368385E+02  0.10570000000E+00 0.  1.
         13    1    3    3    0    0 -0.46296643762E+01  0.88644035378E+01  0.20616416591E+02  0.22914171333E+02  0.10570000000E+00 0. -1.
<mgrwt>
<rscale>  0 0.20002543E+02</rscale>
<asrwt>0</asrwt>
<pdfrwt beam="1">  1        4 0.67327560E-02 0.20002543E+02</pdfrwt>
<pdfrwt beam="2">  1       -4 0.35163399E-03 0.20002543E+02</pdfrwt>
<totfact> 0.11686690E+06</totfact>
</mgrwt>
</event>
<event>
 4    1  0.4710515E-007  0.2006188E+02  0.7818608E-02  0.1744100E+00
          4   -1    0    0  501    0  0.00000000000E+00  0.00000000000E+00  0.13027854727E+02  0.13105014261E+02  0.14200000000E+01 0. -1.
         -4   -1    0    0    0  501 -0.00000000000E+00 -0.00000000000E+00 -0.75571451247E+01  0.76893980542E+01  0.14200000000E+01 0.  1.
        -13    1    1    2    0    0 -0.67097153777E+01  0.74232577384E+01  0.34561021003E+01  0.10586824364E+02  0.10570000000E+00 0. -1.
         13    1    1    2    0    0  0.67097153777E+01 -0.74232577384E+01  0.20146075017E+01  0.10207587951E+02  0.10570000000E+00 0.  1.
<mgrwt>
<rscale>  0 0.20061877E+02</rscale>
<asrwt>0</asrwt>
<pdfrwt beam="1">  1        4 0.20203940E-02 0.20061877E+02</pdfrwt>
<pdfrwt beam="2">  1       -4 0.11787464E-02 0.20061877E+02</pdfrwt>
<totfact> 0.12885403E+06</totfact>
</mgrwt>
</event>
<event>
 4    1  0.4710515E-007  0.2001819E+02  0.7818608E-02  0.1744967E+00
          4   -1    0    0  501    0  0.00000000000E+00  0.00000000000E+00  0.63251615890E+01  0.64825974059E+01  0.14200000000E+01 0. -1.
         -4   -1    0    0    0  501 -0.00000000000E+00 -0.00000000000E+00 -0.15453559315E+02  0.15518662813E+02  0.14200000000E+01 0.  1.
        -13    1    1    2    0    0  0.82162834070E+00 -0.99725732900E+01 -0.47933948548E+01  0.11095724306E+02  0.10570000000E+00 0. -1.
         13    1    1    2    0    0 -0.82162834070E+00  0.99725732900E+01 -0.43350028707E+01  0.10905535912E+02  0.10570000000E+00 0.  1.
<mgrwt>
<rscale>  0 0.20018187E+02</rscale>
<asrwt>0</asrwt>
<pdfrwt beam="1">  1        4 0.99022020E-03 0.20018187E+02</pdfrwt>
<pdfrwt beam="2">  1       -4 0.23945891E-02 0.20018187E+02</pdfrwt>
<totfact> 0.12872264E+06</totfact>
</mgrwt>
</event>
<event>
 4    1  0.4710515E-007  0.2005882E+02  0.7818608E-02  0.1744161E+00
          4   -1    0    0  501    0  0.00000000000E+00  0.00000000000E+00  0.53744700009E+00  0.15183047382E+01  0.14200000000E+01 0. -1.
         -4   -1    0    0    0  501 -0.00000000000E+00 -0.00000000000E+00 -0.96872569831E+02  0.96882976759E+02  0.14200000000E+01 0.  1.
        -13    1    1    2    0    0 -0.85155863407E+01  0.52723186778E+01 -0.50694558889E+02  0.51674578164E+02  0.10570000000E+00 0.  1.
         13    1    1    2    0    0  0.85155863407E+01 -0.52723186778E+01 -0.45640563942E+02  0.46726703334E+02  0.10570000000E+00 0. -1.
<mgrwt>
<rscale>  0 0.20058821E+02</rscale>
<asrwt>0</asrwt>
<pdfrwt beam="1">  1        4 0.15893536E-03 0.20058821E+02</pdfrwt>
<pdfrwt beam="2">  1       -4 0.14979716E-01 0.20058821E+02</pdfrwt>
<totfact> 0.97894514E+05</totfact>
</mgrwt>
</event>
<event>
 5    1  0.4710515E-007  0.2000302E+02  0.7818608E-02  0.1745268E+00
          4   -1    0    0  501    0  0.00000000000E+00  0.00000000000E+00  0.24149540586E+02  0.24191252768E+02  0.14200000000E+01 0.  1.
         -4   -1    0    0    0  501 -0.00000000000E+00 -0.00000000000E+00 -0.39736722746E+01  0.42197714803E+01  0.14200000000E+01 0. -1.
       1023    2    1    2    0    0  0.00000000000E+00  0.00000000000E+00  0.20175868311E+02  0.28411024249E+02  0.20003015691E+02 0.  0.
        -13    1    3    3    0    0 -0.18060416941E+01 -0.98362145015E+01  0.99771444281E+01  0.14126835659E+02  0.10570000000E+00 0.  1.
         13    1    3    3    0    0  0.18060416941E+01  0.98362145015E+01  0.10198723883E+02  0.14284188589E+02  0.10570000000E+00 0. -1.
<mgrwt>
<rscale>  0 0.20003016E+02</rscale>
<asrwt>0</asrwt>
<pdfrwt beam="1">  1        4 0.37374532E-02 0.20003016E+02</pdfrwt>
<pdfrwt beam="2">  1       -4 0.63347354E-03 0.20003016E+02</pdfrwt>
<totfact> 0.12535737E+06</totfact>
</mgrwt>
</event>
<event>
 5    1  0.4710515E-007  0.2000929E+02  0.7818608E-02  0.1745143E+00
         -4   -1    0    0    0  501 -0.00000000000E+00  0.00000000000E+00  0.42988619414E+01  0.45273186315E+01  0.14200000000E+01 0.  1.
          4   -1    0    0  501    0  0.00000000000E+00 -0.00000000000E+00 -0.22429431733E+02  0.22474336650E+02  0.14200000000E+01 0. -1.
       1023    2    1    2    0    0  0.00000000000E+00  0.00000000000E+00 -0.18130569792E+02  0.27001655282E+02  0.20009293515E+02 0.  0.
        -13    1    3    3    0    0 -0.39321127617E+01  0.91966977163E+01 -0.93386108106E+01  0.13684355448E+02  0.10570000000E+00 0.  1.
         13    1    3    3    0    0  0.39321127617E+01 -0.91966977163E+01 -0.87919589810E+01  0.13317299834E+02  0.10570000000E+00 0. -1.
<mgrwt>
<rscale>  0 0.20009294E+02</rscale>
<asrwt>0</asrwt>
<pdfrwt beam="2">  1        4 0.34717096E-02 0.20009294E+02</pdfrwt>
<pdfrwt beam="1">  1       -4 0.68239121E-03 0.20009294E+02</pdfrwt>
<totfact> 0.12603487E+06</totfact>
</mgrwt>
</event>
<event>
 5    1  0.4710515E-007  0.2000131E+02  0.7818608E-02  0.1745302E+00
          4   -1    0    0  501    0  0.00000000000E+00  0.00000000000E+00  0.24247088795E+01  0.28099133706E+01  0.14200000000E+01 0. -1.
         -4   -1    0    0    0  501 -0.00000000000E+00 -0.00000000000E+00 -0.37812627326E+02  0.37839280983E+02  0.14200000000E+01 0.  1.
       1023    2    1    2    0    0  0.00000000000E+00  0.00000000000E+00 -0.35387918447E+02  0.40649194354E+02  0.20001305698E+02 0.  0.
        -13    1    3    3    0    0  0.95005836449E+01  0.31210114681E+01 -0.17712445067E+02  0.20340690375E+02  0.10570000000E+00 0.  1.
         13    1    3    3    0    0 -0.95005836449E+01 -0.31210114681E+01 -0.17675473379E+02  0.20308503978E+02  0.10570000000E+00 0. -1.
<mgrwt>
<rscale>  0 0.20001306E+02</rscale>
<asrwt>0</asrwt>
<pdfrwt beam="1">  1        4 0.40471356E-03 0.20001306E+02</pdfrwt>
<pdfrwt beam="2">  1       -4 0.58490083E-02 0.20001306E+02</pdfrwt>
<totfact> 0.11930924E+06</totfact>
</mgrwt>
</event>
<event>
 4    1  0.4710515E-007  0.2032497E+02  0.7818608E-02  0.1738942E+00
         -4   -1    0    0    0  501 -0.00000000000E+00  0.00000000000E+00  0.71488853533E+01  0.72885500475E+01  0.14200000000E+01 0.  1.
          4   -1    0    0  501    0  0.00000000000E+00 -0.00000000000E+00 -0.14131123881E+02  0.14202290736E+02  0.14200000000E+01 0. -1.
        -13    1    1    2    0    0 -0.32375949945E+01  0.95831505123E+01 -0.24626061199E+01  0.10411262963E+02  0.10570000000E+00 0. -1.
         13    1    1    2    0    0  0.32375949945E+01 -0.95831505123E+01 -0.45196324080E+01  0.11079577821E+02  0.10570000000E+00 0.  1.
<mgrwt>
<rscale>  0 0.20324974E+02</rscale>
<asrwt>0</asrwt>
<pdfrwt beam="2">  1        4 0.21902369E-02 0.20324974E+02</pdfrwt>
<pdfrwt beam="1">  1       -4 0.11160463E-02 0.20324974E+02</pdfrwt>
<totfact> 0.12506341E+06</totfact>
</mgrwt>
</event>
<event>
 4    1  0.4710515E-007  0.2001749E+02  0.7818608E-02  0.1744981E+00
          4   -1    0    0  501    0  0.00000000000E+00  0.00000000000E+00  0.15208130813E+01  0.20806903730E+01  0.14200000000E+01 0.  1.
         -4   -1    0    0    0  501 -0.00000000000E+00 -0.00000000000E+00 -0.55059050329E+02  0.55077358534E+02  0.14200000000E+01 0. -1.
        -13    1    1    2    0    0 -0.28325809102E+01  0.95989550187E+01 -0.26818762705E+02  0.28625524582E+02  0.10570000000E+00 0. -1.
         13    1    1    2    0    0  0.28325809102E+01 -0.95989550187E+01 -0.26719474542E+02  0.28532524325E+02  0.10570000000E+00 0.  1.
<mgrwt>
<rscale>  0 0.20017485E+02</rscale>
<asrwt>0</asrwt>
<pdfrwt beam="1">  1        4 0.27844709E-03 0.20017485E+02</pdfrwt>
<pdfrwt beam="2">  1       -4 0.85150977E-02 0.20017485E+02</pdfrwt>
<totfact> 0.11209476E+06</totfact>
</mgrwt>
</event>
<event>
 5    1  0.4748857E-007  0.2000187E+02  0.7818608E-02  0.1745291E+00
          4   -1    0    0  501    0  0.00000000000E+00  0.00000000000E+00  0.26493863708E+02  0.26531890513E+02  0.14200000000E+01 0. -1.
         -4   -1    0    0    0  501 -0.00000000000E+00 -0.00000000000E+00 -0.35993414771E+01  0.38693228178E+01  0.14200000000E+01 0.  1.
       1023    2    1    2    0    0  0.00000000000E+00  0.00000000000E+00  0.22894522231E+02  0.30401213331E+02  0.20001865508E+02 0.  0.
        -13    1    3    3    0    0  0.99258017601E+01  0.12189050798E+01  0.11469458301E+02  0.15217322904E+02  0.10570000000E+00 0. -1.
         13    1    3    3    0    0 -0.99258017601E+01 -0.12189050798E+01  0.11425063931E+02  0.15183890426E+02  0.10570000000E+00 0.  1.
<mgrwt>
<rscale>  0 0.20001866E+02</rscale>
<asrwt>0</asrwt>
<pdfrwt beam="1">  1        4 0.40996721E-02 0.20001866E+02</pdfrwt>
<pdfrwt beam="2">  1       -4 0.57743776E-03 0.20001866E+02</pdfrwt>
<totfact> 0.12432481E+06</totfact>
</mgrwt>
</event>
<event>
 5    1  0.4710515E-007  0.2001118E+02  0.7818608E-02  0.1745106E+00
         -4   -1    0    0    0  501 -0.00000000000E+00  0.00000000000E+00  0.42651274679E+00  0.14826709423E+01  0.14200000000E+01 0. -1.
          4   -1    0    0  501    0  0.00000000000E+00 -0.00000000000E+00 -0.10381027526E+03  0.10381998676E+03  0.14200000000E+01 0.  1.
       1023    2    1    2    0    0  0.00000000000E+00  0.00000000000E+00 -0.10338376252E+03  0.10530265770E+03  0.20011181037E+02 0.  0.
        -13    1    3    3    0    0  0.39103682761E+01 -0.92080025349E+01 -0.50904688552E+02  0.51878480894E+02  0.10570000000E+00 0. -1.
         13    1    3    3    0    0 -0.39103682761E+01  0.92080025349E+01 -0.52479073963E+02  0.53424176805E+02  0.10570000000E+00 0.  1.
<mgrwt>
<rscale>  0 0.20011181E+02</rscale>
<asrwt>0</asrwt>
<pdfrwt beam="2">  1        4 0.16052793E-01 0.20011181E+02</pdfrwt>
<pdfrwt beam="1">  1       -4 0.14760740E-03 0.20011181E+02</pdfrwt>
<totfact> 0.96420509E+05</totfact>
</mgrwt>
</event>
<event>
 5    1  0.4710515E-007  0.2000284E+02  0.7818608E-02  0.1745272E+00
         -4   -1    0    0    0  501 -0.00000000000E+00  0.00000000000E+00  0.20115815070E+01  0.24622875866E+01  0.14200000000E+01 0.  1.
          4   -1    0    0  501    0  0.00000000000E+00 -0.00000000000E+00 -0.44253503035E+02  0.44276279551E+02  0.14200000000E+01 0. -1.
       1023    2    1    2    0    0  0.00000000000E+00  0.00000000000E+00 -0.42241921528E+02  0.46738567138E+02  0.20002842890E+02 0.  0.
        -13    1    3    3    0    0 -0.46663113978E+01  0.88454383114E+01 -0.21046429207E+02  0.23301922578E+02  0.10570000000E+00 0. -1.
         13    1    3    3    0    0  0.46663113978E+01 -0.88454383114E+01 -0.21195492321E+02  0.23436644560E+02  0.10570000000E+00 0.  1.
<mgrwt>
<rscale>  0 0.20002843E+02</rscale>
<asrwt>0</asrwt>
<pdfrwt beam="2">  1        4 0.68446523E-02 0.20002843E+02</pdfrwt>
<pdfrwt beam="1">  1       -4 0.34589585E-03 0.20002843E+02</pdfrwt>
<totfact> 0.11656265E+06</totfact>
</mgrwt>
</event>
<event>
 5    1  0.4710515E-007  0.2000541E+02  0.7818608E-02  0.1745221E+00
         -4   -1    0    0    0  501 -0.00000000000E+00  0.00000000000E+00  0.23819988983E+01  0.27731423965E+01  0.14200000000E+01 0.  1.
          4   -1    0    0  501    0  0.00000000000E+00 -0.00000000000E+00 -0.38411940770E+02  0.38438178855E+02  0.14200000000E+01 0. -1.
       1023    2    1    2    0    0  0.00000000000E+00  0.00000000000E+00 -0.36029941872E+02  0.41211321252E+02  0.20005406470E+02 0.  0.
        -13    1    3    3    0    0  0.60630775209E+01  0.79531196453E+01 -0.18371051165E+02  0.20916971925E+02  0.10570000000E+00 0.  1.
         13    1    3    3    0    0 -0.60630775209E+01 -0.79531196453E+01 -0.17658890706E+02  0.20294349326E+02  0.10570000000E+00 0. -1.
<mgrwt>
<rscale>  0 0.20005406E+02</rscale>
<asrwt>0</asrwt>
<pdfrwt beam="2">  1        4 0.59416352E-02 0.20005406E+02</pdfrwt>
<pdfrwt beam="1">  1       -4 0.39856767E-03 0.20005406E+02</pdfrwt>
<totfact> 0.11900090E+06</totfact>
</mgrwt>
</event>
<event>
 5    1  0.4710515E-007  0.2000266E+02  0.7818608E-02  0.1745275E+00
         -4   -1    0    0    0  501 -0.00000000000E+00  0.00000000000E+00  0.28070257978E+02  0.28106152048E+02  0.14200000000E+01 0.  1.
          4   -1    0    0  501    0  0.00000000000E+00 -0.00000000000E+00 -0.33821748116E+01  0.36681748126E+01  0.14200000000E+01 0. -1.
       1023    2    1    2    0    0  0.00000000000E+00  0.00000000000E+00  0.24688083166E+02  0.31774326861E+02  0.20002659749E+02 0.  0.
        -13    1    3    3    0    0  0.93429634719E+01 -0.35666013565E+01  0.12245925294E+02  0.15810928830E+02  0.10570000000E+00 0.  1.
         13    1    3    3    0    0 -0.93429634719E+01  0.35666013565E+01  0.12442157872E+02  0.15963398030E+02  0.10570000000E+00 0. -1.
<mgrwt>
<rscale>  0 0.20002660E+02</rscale>
<asrwt>0</asrwt>
<pdfrwt beam="2">  1        4 0.54509569E-03 0.20002660E+02</pdfrwt>
<pdfrwt beam="1">  1       -4 0.43432621E-02 0.20002660E+02</pdfrwt>
<totfact> 0.12360668E+06</totfact>
</mgrwt>
</event>
<event>
 5    1  0.4710515E-007  0.2000240E+02  0.7818608E-02  0.1745280E+00
          4   -1    0    0  501    0  0.00000000000E+00  0.00000000000E+00  0.56130771099E+02  0.56148729853E+02  0.14200000000E+01 0. -1.
         -4   -1    0    0    0  501 -0.00000000000E+00 -0.00000000000E+00 -0.14778705296E+01  0.20495124547E+01  0.14200000000E+01 0.  1.
       1023    2    1    2    0    0  0.00000000000E+00  0.00000000000E+00  0.54652900569E+02  0.58198242308E+02  0.20002396534E+02 0.  0.
        -13    1    3    3    0    0 -0.67006943363E+01 -0.74237955391E+01  0.27406105184E+02  0.29173923607E+02  0.10570000000E+00 0.  1.
         13    1    3    3    0    0  0.67006943363E+01  0.74237955391E+01  0.27246795385E+02  0.29024318701E+02  0.10570000000E+00 0. -1.
<mgrwt>
<rscale>  0 0.20002397E+02</rscale>
<asrwt>0</asrwt>
<pdfrwt beam="1">  1        4 0.86808573E-02 0.20002397E+02</pdfrwt>
<pdfrwt beam="2">  1       -4 0.27271859E-03 0.20002397E+02</pdfrwt>
<totfact> 0.11185809E+06</totfact>
</mgrwt>
</event>
<event>
 5    1  0.4710515E-007  0.2000729E+02  0.7818608E-02  0.1745183E+00
         -4   -1    0    0    0  501 -0.00000000000E+00  0.00000000000E+00  0.28311179746E+02  0.28346768751E+02  0.14200000000E+01 0.  1.
          4   -1    0    0  501    0  0.00000000000E+00 -0.00000000000E+00 -0.33526910554E+01  0.36410077332E+01  0.14200000000E+01 0. -1.
       1023    2    1    2    0    0  0.00000000000E+00  0.00000000000E+00  0.24958488691E+02  0.31987776484E+02  0.20007290838E+02 0.  0.
        -13    1    3    3    0    0 -0.51543035678E+01  0.85723878050E+01  0.12326969249E+02  0.15875075474E+02  0.10570000000E+00 0.  1.
         13    1    3    3    0    0  0.51543035678E+01 -0.85723878050E+01  0.12631519442E+02  0.16112701010E+02  0.10570000000E+00 0. -1.
<mgrwt>
<rscale>  0 0.20007291E+02</rscale>
<asrwt>0</asrwt>
<pdfrwt beam="2">  1        4 0.54071448E-03 0.20007291E+02</pdfrwt>
<pdfrwt beam="1">  1       -4 0.43804817E-02 0.20007291E+02</pdfrwt>
<totfact> 0.12343950E+06</totfact>
</mgrwt>
</event>
<event>
 4    1  0.4710515E-007  0.2006622E+02  0.7818608E-02  0.1744014E+00
          4   -1    0    0  501    0  0.00000000000E+00  0.00000000000E+00  0.42549638378E+01  0.44856568372E+01  0.14200000000E+01 0. -1.
         -4   -1    0    0    0  501 -0.00000000000E+00 -0.00000000000E+00 -0.22780063641E+02  0.22824278729E+02  0.14200000000E+01 0.  1.
        -13    1    1    2    0    0  0.30563325547E+01  0.95556642601E+01 -0.92408656626E+01  0.13640258752E+02  0.10570000000E+00 0. -1.
         13    1    1    2    0    0 -0.30563325547E+01 -0.95556642601E+01 -0.92842341410E+01  0.13669676814E+02  0.10570000000E+00 0.  1.
<mgrwt>
<rscale>  0 0.20066222E+02</rscale>
<asrwt>0</asrwt>
<pdfrwt beam="1">  1        4 0.67575661E-03 0.20066222E+02</pdfrwt>
<pdfrwt beam="2">  1       -4 0.35257719E-02 0.20066222E+02</pdfrwt>
<totfact> 0.12514225E+06</totfact>
</mgrwt>
</event>
<event>
 5    1  0.4710515E-007  0.2000151E+02  0.7818608E-02  0.1745298E+00
          4   -1    0    0  501    0  0.00000000000E+00  0.00000000000E+00  0.27840643531E+02  0.27876833253E+02  0.14200000000E+01 0.  1.
         -4   -1    0    0    0  501 -0.00000000000E+00 -0.00000000000E+00 -0.34119505464E+01  0.36956469705E+01  0.14200000000E+01 0. -1.
       1023    2    1    2    0    0  0.00000000000E+00  0.00000000000E+00  0.24428692985E+02  0.31572480224E+02  0.20001511606E+02 0.  0.
        -13    1    3    3    0    0  0.96978697436E+01  0.24403200012E+01  0.12198181527E+02  0.15773732733E+02  0.10570000000E+00 0. -1.
         13    1    3    3    0    0 -0.96978697436E+01 -0.24403200012E+01  0.12230511458E+02  0.15798747491E+02  0.10570000000E+00 0.  1.
<mgrwt>
<rscale>  0 0.20001512E+02</rscale>
<asrwt>0</asrwt>
<pdfrwt beam="1">  1        4 0.43077824E-02 0.20001512E+02</pdfrwt>
<pdfrwt beam="2">  1       -4 0.54952211E-03 0.20001512E+02</pdfrwt>
<totfact> 0.12372457E+06</totfact>
</mgrwt>
</event>
<event>
 5    1  0.4710515E-007  0.2000583E+02  0.7818608E-02  0.1745212E+00
          4   -1    0    0  501    0  0.00000000000E+00  0.00000000000E+00  0.78908340277E+02  0.78921116092E+02  0.14200000000E+01 0. -1.
         -4   -1    0    0    0  501 -0.00000000000E+00 -0.00000000000E+00 -0.85348664593E+00  0.16567557016E+01  0.14200000000E+01 0.  1.
       1023    2    1    2    0    0  0.00000000000E+00  0.00000000000E+00  0.78054853631E+02  0.80577871794E+02  0.20005830337E+02 0.  0.
        -13    1    3    3    0    0 -0.66762326554E+01  0.74455884900E+01  0.38239506174E+02  0.39525686273E+02  0.10570000000E+00 0.  1.
         13    1    3    3    0    0  0.66762326554E+01 -0.74455884900E+01  0.39815347457E+02  0.41052185521E+02  0.10570000000E+00 0. -1.
<mgrwt>
<rscale>  0 0.20005830E+02</rscale>
<asrwt>0</asrwt>
<pdfrwt beam="1">  1        4 0.12202518E-01 0.20005830E+02</pdfrwt>
<pdfrwt beam="2">  1       -4 0.19407831E-03 0.20005830E+02</pdfrwt>
<totfact> 0.10386250E+06</totfact>
</mgrwt>
</event>
<event>
 5    1  0.4817871E-007  0.2000138E+02  0.7818608E-02  0.1745301E+00
          4   -1    0    0  501    0  0.00000000000E+00  0.00000000000E+00  0.19452339320E+02  0.19504099697E+02  0.14200000000E+01 0.  1.
         -4   -1    0    0    0  501 -0.00000000000E+00 -0.00000000000E+00 -0.49835781248E+01  0.51819350561E+01  0.14200000000E+01 0. -1.
       1023    2    1    2    0    0  0.00000000000E+00  0.00000000000E+00  0.14468761195E+02  0.24686034753E+02  0.20001381486E+02 0.  0.
        -13    1    3    3    0    0 -0.91791053384E+01  0.39680489794E+01  0.71906515648E+01  0.12317387301E+02  0.10570000000E+00 0. -1.
         13    1    3    3    0    0  0.91791053384E+01 -0.39680489794E+01  0.72781096300E+01  0.12368647452E+02  0.10570000000E+00 0.  1.
<mgrwt>
<rscale>  0 0.20001381E+02</rscale>
<asrwt>0</asrwt>
<pdfrwt beam="1">  1        4 0.30119074E-02 0.20001381E+02</pdfrwt>
<pdfrwt beam="2">  1       -4 0.78594411E-03 0.20001381E+02</pdfrwt>
<totfact> 0.12741365E+06</totfact>
</mgrwt>
</event>
<event>
 5    1  0.4710515E-007  0.2000251E+02  0.7818608E-02  0.1745278E+00
          4   -1    0    0  501    0  0.00000000000E+00  0.00000000000E+00  0.10927386419E+03  0.10928309016E+03  0.14200000000E+01 0. -1.
         -4   -1    0    0    0  501 -0.00000000000E+00 -0.00000000000E+00 -0.34971719162E+00  0.14624302083E+01  0.14200000000E+01 0.  1.
       1023    2    1    2    0    0  0.00000000000E+00  0.00000000000E+00  0.10892414700E+03  0.11074552037E+03  0.20002511903E+02 0.  0.
        -13    1    3    3    0    0  0.99628455819E+01  0.86490396215E+00  0.54944651326E+02  0.55847401307E+02  0.10570000000E+00 0.  1.
         13    1    3    3    0    0 -0.99628455819E+01 -0.86490396215E+00  0.53979495675E+02  0.54898119064E+02  0.10570000000E+00 0. -1.
<mgrwt>
<rscale>  0 0.20002512E+02</rscale>
<asrwt>0</asrwt>
<pdfrwt beam="1">  1        4 0.16897665E-01 0.20002512E+02</pdfrwt>
<pdfrwt beam="2">  1       -4 0.14010566E-03 0.20002512E+02</pdfrwt>
<totfact> 0.95030290E+05</totfact>
</mgrwt>
</event>
<event>
 5    1  0.4710515E-007  0.2000192E+02  0.7818608E-02  0.1745290E+00
          4   -1    0    0  501    0  0.00000000000E+00  0.00000000000E+00  0.26222093747E+02  0.26260514094E+02  0.14200000000E+01 0.  1.
         -4   -1    0    0    0  501 -0.00000000000E+00 -0.00000000000E+00 -0.36393909654E+01  0.39066055085E+01  0.14200000000E+01 0. -1.
       1023    2    1    2    0    0  0.00000000000E+00  0.00000000000E+00  0.22582702782E+02  0.30167119602E+02  0.20001915913E+02 0.  0.
        -13    1    3    3    0    0 -0.30429005021E+01 -0.95259405031E+01  0.11400127021E+02  0.15164987785E+02  0.10570000000E+00 0.  1.
         13    1    3    3    0    0  0.30429005021E+01  0.95259405031E+01  0.11182575761E+02  0.15002131818E+02  0.10570000000E+00 0. -1.
<mgrwt>
<rscale>  0 0.20001916E+02</rscale>
<asrwt>0</asrwt>
<pdfrwt beam="1">  1        4 0.40576787E-02 0.20001916E+02</pdfrwt>
<pdfrwt beam="2">  1       -4 0.58341667E-03 0.20001916E+02</pdfrwt>
<totfact> 0.12444598E+06</totfact>
</mgrwt>
</event>
<event>
 4    1  0.4710515E-007  0.2017343E+02  0.7818608E-02  0.1741901E+00
         -4   -1    0    0    0  501 -0.00000000000E+00  0.00000000000E+00  0.36927773037E+02  0.36955064896E+02  0.14200000000E+01 0.  1.
          4   -1    0    0  501    0  0.00000000000E+00 -0.00000000000E+00 -0.25419088246E+01  0.29116490985E+01  0.14200000000E+01 0. -1.
        -13    1    1    2    0    0 -0.14290718901E+01  0.99813689861E+01  0.16706205125E+02  0.19513544923E+02  0.10570000000E+00 0.  1.
         13    1    1    2    0    0  0.14290718901E+01 -0.99813689861E+01  0.17679659087E+02  0.20353169071E+02  0.10570000000E+00 0. -1.
<mgrwt>
<rscale>  0 0.20173429E+02</rscale>
<asrwt>0</asrwt>
<pdfrwt beam="2">  1        4 0.42160383E-03 0.20173429E+02</pdfrwt>
<pdfrwt beam="1">  1       -4 0.57117368E-02 0.20173429E+02</pdfrwt>
<totfact> 0.11761213E+06</totfact>
</mgrwt>
</event>
<event>
 4    1  0.4710515E-007  0.2007893E+02  0.7818608E-02  0.1743763E+00
          4   -1    0    0  501    0  0.00000000000E+00  0.00000000000E+00  0.21247111815E+02  0.21294510102E+02  0.14200000000E+01 0. -1.
         -4   -1    0    0    0  501 -0.00000000000E+00 -0.00000000000E+00 -0.45834769886E+01  0.47984019532E+01  0.14200000000E+01 0.  1.
        -13    1    1    2    0    0  0.99569570937E+01 -0.12704902158E+01  0.81283235285E+01  0.12916499364E+02  0.10570000000E+00 0. -1.
         13    1    1    2    0    0 -0.99569570937E+01  0.12704902158E+01  0.85353112977E+01  0.13176412691E+02  0.10570000000E+00 0.  1.
<mgrwt>
<rscale>  0 0.20078928E+02</rscale>
<asrwt>0</asrwt>
<pdfrwt beam="1">  1        4 0.32889652E-02 0.20078928E+02</pdfrwt>
<pdfrwt beam="2">  1       -4 0.72532901E-03 0.20078928E+02</pdfrwt>
<totfact> 0.12563879E+06</totfact>
</mgrwt>
</event>
<event>
 5    1  0.4710515E-007  0.2000232E+02  0.7818608E-02  0.1745282E+00
         -4   -1    0    0    0  501 -0.00000000000E+00  0.00000000000E+00  0.22421053765E+02  0.22465975428E+02  0.14200000000E+01 0.  1.
          4   -1    0    0  501    0  0.00000000000E+00 -0.00000000000E+00 -0.42973634634E+01  0.45258957938E+01  0.14200000000E+01 0. -1.
       1023    2    1    2    0    0  0.00000000000E+00  0.00000000000E+00  0.18123690301E+02  0.26991871221E+02  0.20002323913E+02 0.  0.
        -13    1    3    3    0    0  0.41544590613E+01  0.90966291630E+01  0.89778351043E+01  0.13439527070E+02  0.10570000000E+00 0. -1.
         13    1    3    3    0    0 -0.41544590613E+01 -0.90966291630E+01  0.91458551969E+01  0.13552344151E+02  0.10570000000E+00 0.  1.
<mgrwt>
<rscale>  0 0.20002324E+02</rscale>
<asrwt>0</asrwt>
<pdfrwt beam="2">  1        4 0.68216778E-03 0.20002324E+02</pdfrwt>
<pdfrwt beam="1">  1       -4 0.34704277E-02 0.20002324E+02</pdfrwt>
<totfact> 0.12612955E+06</totfact>
</mgrwt>
</event>
<event>
 5    1  0.4891071E-007  0.2000157E+02  0.7818608E-02  0.1745297E+00
         -4   -1    0    0    0  501 -0.00000000000E+00  0.00000000000E+00  0.27765217440E+01  0.31185690621E+01  0.14200000000E+01 0.  1.
          4   -1    0    0  501    0  0.00000000000E+00 -0.00000000000E+00 -0.33573925546E+02  0.33603941384E+02  0.14200000000E+01 0. -1.
       1023    2    1    2    0    0  0.00000000000E+00  0.00000000000E+00 -0.30797403802E+02  0.36722510447E+02  0.20001567252E+02 0.  0.
        -13    1    3    3    0    0 -0.99031300932E+01  0.13901475097E+01 -0.15394635701E+02  0.18357845096E+02  0.10570000000E+00 0.  1.
         13    1    3    3    0    0  0.99031300932E+01 -0.13901475097E+01 -0.15402768101E+02  0.18364665350E+02  0.10570000000E+00 0. -1.
<mgrwt>
<rscale>  0 0.20001567E+02</rscale>
<asrwt>0</asrwt>
<pdfrwt beam="2">  1        4 0.51938393E-02 0.20001567E+02</pdfrwt>
<pdfrwt beam="1">  1       -4 0.45577746E-03 0.20001567E+02</pdfrwt>
<totfact> 0.12116051E+06</totfact>
</mgrwt>
</event>
<event>
 5    1  0.4710515E-007  0.2000134E+02  0.7818608E-02  0.1745301E+00
          4   -1    0    0  501    0  0.00000000000E+00  0.00000000000E+00  0.24407913966E+01  0.28238028688E+01  0.14200000000E+01 0.  1.
         -4   -1    0    0    0  501 -0.00000000000E+00 -0.00000000000E+00 -0.37597326214E+02  0.37624132394E+02  0.14200000000E+01 0. -1.
       1023    2    1    2    0    0  0.00000000000E+00  0.00000000000E+00 -0.35156534817E+02  0.40447935263E+02  0.20001338123E+02 0.  0.
        -13    1    3    3    0    0 -0.88939366660E+01  0.45715113653E+01 -0.17653489120E+02  0.20289348835E+02  0.10570000000E+00 0. -1.
         13    1    3    3    0    0  0.88939366660E+01 -0.45715113653E+01 -0.17503045697E+02  0.20158586427E+02  0.10570000000E+00 0.  1.
<mgrwt>
<rscale>  0 0.20001338E+02</rscale>
<asrwt>0</asrwt>
<pdfrwt beam="1">  1        4 0.40703083E-03 0.20001338E+02</pdfrwt>
<pdfrwt beam="2">  1       -4 0.58157281E-02 0.20001338E+02</pdfrwt>
<totfact> 0.11940195E+06</totfact>
</mgrwt>
</event>
<event>
 5    1  0.4710515E-007  0.2000611E+02  0.7818608E-02  0.1745207E+00
         -4   -1    0    0    0  501 -0.00000000000E+00  0.00000000000E+00  0.74531865752E+01  0.75872518164E+01  0.14200000000E+01 0.  1.
          4   -1    0    0  501    0  0.00000000000E+00 -0.00000000000E+00 -0.13132928725E+02  0.13209474512E+02  0.14200000000E+01 0. -1.
       1023    2    1    2    0    0  0.00000000000E+00  0.00000000000E+00 -0.56797421496E+01  0.20796726329E+02  0.20006107945E+02 0.  0.
        -13    1    3    3    0    0 -0.41424341935E+01 -0.91043375096E+01 -0.28757871430E+01  0.10408172112E+02  0.10570000000E+00 0.  1.
         13    1    3    3    0    0  0.41424341935E+01  0.91043375096E+01 -0.28039550066E+01  0.10388554216E+02  0.10570000000E+00 0. -1.
<mgrwt>
<rscale>  0 0.20006108E+02</rscale>
<asrwt>0</asrwt>
<pdfrwt beam="2">  1        4 0.20366514E-02 0.20006108E+02</pdfrwt>
<pdfrwt beam="1">  1       -4 0.11628449E-02 0.20006108E+02</pdfrwt>
<totfact> 0.12958694E+06</totfact>
</mgrwt>
</event>
<event>
 5    1  0.4710515E-007  0.2000585E+02  0.7818608E-02  0.1745212E+00
         -4   -1    0    0    0  501 -0.00000000000E+00  0.00000000000E+00  0.14510369443E+02  0.14579685229E+02  0.14200000000E+01 0.  1.
          4   -1    0    0  501    0  0.00000000000E+00 -0.00000000000E+00 -0.67357071845E+01  0.68837599664E+01  0.14200000000E+01 0. -1.
       1023    2    1    2    0    0  0.00000000000E+00  0.00000000000E+00  0.77746622588E+01  0.21463445195E+02  0.20005851804E+02 0.  0.
        -13    1    3    3    0    0 -0.83357647013E+01 -0.55278016797E+01  0.39689639452E+01  0.10761292295E+02  0.10570000000E+00 0.  1.
         13    1    3    3    0    0  0.83357647013E+01  0.55278016797E+01  0.38056983136E+01  0.10702152901E+02  0.10570000000E+00 0. -1.
<mgrwt>
<rscale>  0 0.20005852E+02</rscale>
<asrwt>0</asrwt>
<pdfrwt beam="2">  1        4 0.10529833E-02 0.20005852E+02</pdfrwt>
<pdfrwt beam="1">  1       -4 0.22490852E-02 0.20005852E+02</pdfrwt>
<totfact> 0.12919792E+06</totfact>
</mgrwt>
</event>
<event>
 5    1  0.5012183E-007  0.2000790E+02  0.7818608E-02  0.1745171E+00
         -4   -1    0    0    0  501 -0.00000000000E+00  0.00000000000E+00  0.28489016725E+01  0.31831809153E+01  0.14200000000E+01 0. -1.
          4   -1    0    0  501    0  0.00000000000E+00 -0.00000000000E+00 -0.32831772639E+02  0.32862466351E+02  0.14200000000E+01 0.  1.
       1023    2    1    2    0    0  0.00000000000E+00  0.00000000000E+00 -0.29982870967E+02  0.36045647266E+02  0.20007901824E+02 0.  0.
        -13    1    3    3    0    0 -0.99869440363E+01  0.57326441228E+00 -0.14967393323E+02  0.18002825296E+02  0.10570000000E+00 0.  1.
         13    1    3    3    0    0  0.99869440363E+01 -0.57326441228E+00 -0.15015477644E+02  0.18042821970E+02  0.10570000000E+00 0. -1.
<mgrwt>
<rscale>  0 0.20007902E+02</rscale>
<asrwt>0</asrwt>
<pdfrwt beam="2">  1        4 0.50791165E-02 0.20007902E+02</pdfrwt>
<pdfrwt beam="1">  1       -4 0.46636743E-03 0.20007902E+02</pdfrwt>
<totfact> 0.12141062E+06</totfact>
</mgrwt>
</event>
<event>
 5    1  0.4710515E-007  0.2000299E+02  0.7818608E-02  0.1745269E+00
         -4   -1    0    0    0  501 -0.00000000000E+00  0.00000000000E+00  0.15179274316E+01  0.20785821340E+01  0.14200000000E+01 0. -1.
          4   -1    0    0  501    0  0.00000000000E+00 -0.00000000000E+00 -0.55054869475E+02  0.55073179071E+02  0.14200000000E+01 0.  1.
       1023    2    1    2    0    0  0.00000000000E+00  0.00000000000E+00 -0.53536942044E+02  0.57151761205E+02  0.20002990911E+02 0.  0.
        -13    1    3    3    0    0  0.87817291935E+01 -0.47848050415E+01 -0.26982509251E+02  0.28776381024E+02  0.10570000000E+00 0.  1.
         13    1    3    3    0    0 -0.87817291935E+01  0.47848050415E+01 -0.26554432793E+02  0.28375380180E+02  0.10570000000E+00 0. -1.
<mgrwt>
<rscale>  0 0.20002991E+02</rscale>
<asrwt>0</asrwt>
<pdfrwt beam="2">  1        4 0.85145143E-02 0.20002991E+02</pdfrwt>
<pdfrwt beam="1">  1       -4 0.27806306E-03 0.20002991E+02</pdfrwt>
<totfact> 0.11226084E+06</totfact>
</mgrwt>
</event>
<event>
 5    1  0.4858618E-007  0.2000170E+02  0.7818608E-02  0.1745294E+00
         -4   -1    0    0    0  501 -0.00000000000E+00  0.00000000000E+00  0.80255004561E+01  0.81501569046E+01  0.14200000000E+01 0.  1.
          4   -1    0    0  501    0  0.00000000000E+00 -0.00000000000E+00 -0.12200200025E+02  0.12282560021E+02  0.14200000000E+01 0. -1.
       1023    2    1    2    0    0  0.00000000000E+00  0.00000000000E+00 -0.41746995694E+01  0.20432716925E+02  0.20001695040E+02 0.  0.
        -13    1    3    3    0    0 -0.71252479040E+01  0.70168808557E+01 -0.20893894696E+01  0.10216775200E+02  0.10570000000E+00 0.  1.
         13    1    3    3    0    0  0.71252479040E+01 -0.70168808557E+01 -0.20853100998E+01  0.10215941726E+02  0.10570000000E+00 0. -1.
<mgrwt>
<rscale>  0 0.20001695E+02</rscale>
<asrwt>0</asrwt>
<pdfrwt beam="2">  1        4 0.18928782E-02 0.20001695E+02</pdfrwt>
<pdfrwt beam="1">  1       -4 0.12506167E-02 0.20001695E+02</pdfrwt>
<totfact> 0.12986062E+06</totfact>
</mgrwt>
</event>
<event>
 5    1  0.4710515E-007  0.2000165E+02  0.7818608E-02  0.1745295E+00
         -4   -1    0    0    0  501 -0.00000000000E+00  0.00000000000E+00  0.81448716439E+02  0.81461093839E+02  0.14200000000E+01 0.  1.
          4   -1    0    0  501    0  0.00000000000E+00 -0.00000000000E+00 -0.80072839359E+00  0.16302042695E+01  0.14200000000E+01 0. -1.
       1023    2    1    2    0    0  0.00000000000E+00  0.00000000000E+00  0.80647988045E+02  0.83091298109E+02  0.20001646075E+02 0.  0.
        -13    1    3    3    0    0  0.87998954688E+01  0.47504508009E+01  0.40401251432E+02  0.41620634700E+02  0.10570000000E+00 0.  1.
         13    1    3    3    0    0 -0.87998954688E+01 -0.47504508009E+01  0.40246736613E+02  0.41470663409E+02  0.10570000000E+00 0. -1.
<mgrwt>
<rscale>  0 0.20001646E+02</rscale>
<asrwt>0</asrwt>
<pdfrwt beam="2">  1        4 0.18794685E-03 0.20001646E+02</pdfrwt>
<pdfrwt beam="1">  1       -4 0.12595335E-01 0.20001646E+02</pdfrwt>
<totfact> 0.10309565E+06</totfact>
</mgrwt>
</event>
<event>
 4    1  0.4710515E-007  0.2007525E+02  0.7818608E-02  0.1743836E+00
         -4   -1    0    0    0  501 -0.00000000000E+00  0.00000000000E+00  0.85476955726E+02  0.85488749904E+02  0.14200000000E+01 0.  1.
          4   -1    0    0  501    0  0.00000000000E+00 -0.00000000000E+00 -0.73479159290E+00  0.15988491752E+01  0.14200000000E+01 0. -1.
        -13    1    1    2    0    0  0.58343375084E+01 -0.81621713011E+01  0.41127519719E+02  0.42333728696E+02  0.10570000000E+00 0. -1.
         13    1    1    2    0    0 -0.58343375084E+01  0.81621713011E+01  0.43614644414E+02  0.44753870384E+02  0.10570000000E+00 0.  1.
<mgrwt>
<rscale>  0 0.20075247E+02</rscale>
<asrwt>0</asrwt>
<pdfrwt beam="2">  1        4 0.18041805E-03 0.20075247E+02</pdfrwt>
<pdfrwt beam="1">  1       -4 0.13217676E-01 0.20075247E+02</pdfrwt>
<totfact> 0.10109094E+06</totfact>
</mgrwt>
</event>
<event>
 4    1  0.4710515E-007  0.2019163E+02  0.7818608E-02  0.1741544E+00
         -4   -1    0    0    0  501 -0.00000000000E+00  0.00000000000E+00  0.48498106599E+02  0.48518890586E+02  0.14200000000E+01 0.  1.
          4   -1    0    0  501    0  0.00000000000E+00 -0.00000000000E+00 -0.18380365455E+01  0.23226662142E+01  0.14200000000E+01 0. -1.
        -13    1    1    2    0    0 -0.77296521297E+01  0.64216295969E+01  0.25757501817E+02  0.27648597090E+02  0.10570000000E+00 0.  1.
         13    1    1    2    0    0  0.77296521297E+01 -0.64216295969E+01  0.20902568237E+02  0.23192959711E+02  0.10570000000E+00 0. -1.
<mgrwt>
<rscale>  0 0.20191626E+02</rscale>
<asrwt>0</asrwt>
<pdfrwt beam="2">  1        4 0.32165284E-03 0.20191626E+02</pdfrwt>
<pdfrwt beam="1">  1       -4 0.75001249E-02 0.20191626E+02</pdfrwt>
<totfact> 0.11265902E+06</totfact>
</mgrwt>
</event>
<event>
 5    1  0.4714885E-007  0.2000459E+02  0.7818608E-02  0.1745237E+00
         -4   -1    0    0    0  501 -0.00000000000E+00  0.00000000000E+00  0.79545704044E+01  0.80803211767E+01  0.14200000000E+01 0.  1.
          4   -1    0    0  501    0  0.00000000000E+00 -0.00000000000E+00 -0.12311642937E+02  0.12393262356E+02  0.14200000000E+01 0. -1.
       1023    2    1    2    0    0  0.00000000000E+00  0.00000000000E+00 -0.43570725328E+01  0.20473583532E+02  0.20004588014E+02 0.  0.
        -13    1    3    3    0    0  0.15066556741E+01 -0.98869130874E+01 -0.20589587563E+01  0.10211343955E+02  0.10570000000E+00 0. -1.
         13    1    3    3    0    0 -0.15066556741E+01  0.98869130874E+01 -0.22981137765E+01  0.10262239577E+02  0.10570000000E+00 0.  1.
<mgrwt>
<rscale>  0 0.20004588E+02</rscale>
<asrwt>0</asrwt>
<pdfrwt beam="2">  1        4 0.19100505E-02 0.20004588E+02</pdfrwt>
<pdfrwt beam="1">  1       -4 0.12397316E-02 0.20004588E+02</pdfrwt>
<totfact> 0.12979808E+06</totfact>
</mgrwt>
</event>
<event>
 5    1  0.4710515E-007  0.2001036E+02  0.7818608E-02  0.1745122E+00
          4   -1    0    0  501    0  0.00000000000E+00  0.00000000000E+00  0.94192973702E+02  0.94203676652E+02  0.14200000000E+01 0. -1.
         -4   -1    0    0    0  501 -0.00000000000E+00 -0.00000000000E+00 -0.57275838572E+00  0.15311603993E+01  0.14200000000E+01 0.  1.
       1023    2    1    2    0    0  0.00000000000E+00  0.00000000000E+00  0.93620215316E+02  0.95734837052E+02  0.20010355055E+02 0.  0.
        -13    1    3    3    0    0  0.61387932982E+01 -0.78986555052E+01  0.46153025462E+02  0.47224850171E+02  0.10570000000E+00 0.  1.
         13    1    3    3    0    0 -0.61387932982E+01  0.78986555052E+01  0.47467189854E+02  0.48509986880E+02  0.10570000000E+00 0. -1.
<mgrwt>
<rscale>  0 0.20010355E+02</rscale>
<asrwt>0</asrwt>
<pdfrwt beam="1">  1        4 0.14565772E-01 0.20010355E+02</pdfrwt>
<pdfrwt beam="2">  1       -4 0.16266322E-03 0.20010355E+02</pdfrwt>
<totfact> 0.99141711E+05</totfact>
</mgrwt>
</event>
<event>
 5    1  0.4710515E-007  0.2000225E+02  0.7818608E-02  0.1745283E+00
          4   -1    0    0  501    0  0.00000000000E+00  0.00000000000E+00  0.19374111169E+01  0.24020744859E+01  0.14200000000E+01 0.  1.
         -4   -1    0    0    0  501 -0.00000000000E+00 -0.00000000000E+00 -0.45621900067E+02  0.45643993753E+02  0.14200000000E+01 0. -1.
       1023    2    1    2    0    0  0.00000000000E+00  0.00000000000E+00 -0.43684488950E+02  0.48046068238E+02  0.20002252333E+02 0.  0.
        -13    1    3    3    0    0  0.25302339480E+01 -0.96748660372E+01 -0.21652568479E+02  0.23850576742E+02  0.10570000000E+00 0. -1.
         13    1    3    3    0    0 -0.25302339480E+01  0.96748660372E+01 -0.22031920470E+02  0.24195491497E+02  0.10570000000E+00 0.  1.
<mgrwt>
<rscale>  0 0.20002252E+02</rscale>
<asrwt>0</asrwt>
<pdfrwt beam="1">  1        4 0.33550613E-03 0.20002252E+02</pdfrwt>
<pdfrwt beam="2">  1       -4 0.70561960E-02 0.20002252E+02</pdfrwt>
<totfact> 0.11600547E+06</totfact>
</mgrwt>
</event>
<event>
 5    1  0.4710515E-007  0.2000366E+02  0.7818608E-02  0.1745255E+00
          4   -1    0    0  501    0  0.00000000000E+00  0.00000000000E+00  0.41481105569E+01  0.43844294033E+01  0.14200000000E+01 0.  1.
         -4   -1    0    0    0  501 -0.00000000000E+00 -0.00000000000E+00 -0.23189628483E+02  0.23233064137E+02  0.14200000000E+01 0. -1.
       1023    2    1    2    0    0  0.00000000000E+00  0.00000000000E+00 -0.19041517926E+02  0.27617493540E+02  0.20003663277E+02 0.  0.
        -13    1    3    3    0    0  0.97507613903E+01 -0.22197084070E+01 -0.97208802358E+01  0.13946724997E+02  0.10570000000E+00 0.  1.
         13    1    3    3    0    0 -0.97507613903E+01  0.22197084070E+01 -0.93206376905E+01  0.13670768543E+02  0.10570000000E+00 0. -1.
<mgrwt>
<rscale>  0 0.20003663E+02</rscale>
<asrwt>0</asrwt>
<pdfrwt beam="1">  1        4 0.65969045E-03 0.20003663E+02</pdfrwt>
<pdfrwt beam="2">  1       -4 0.35891547E-02 0.20003663E+02</pdfrwt>
<totfact> 0.12577416E+06</totfact>
</mgrwt>
</event>
<event>
 4    1  0.4710515E-007  0.2015611E+02  0.7818608E-02  0.1742241E+00
          4   -1    0    0  501    0  0.00000000000E+00  0.00000000000E+00  0.13390448295E+02  0.13465530273E+02  0.14200000000E+01 0.  1.
         -4   -1    0    0    0  501 -0.00000000000E+00 -0.00000000000E+00 -0.74212581664E+01  0.75558899392E+01  0.14200000000E+01 0. -1.
        -13    1    1    2    0    0  0.99990733843E+01  0.11179690245E+01  0.35789037974E+01  0.10679468534E+02  0.10570000000E+00 0.  1.
         13    1    1    2    0    0 -0.99990733843E+01 -0.11179690245E+01  0.23902863308E+01  0.10341951678E+02  0.10570000000E+00 0. -1.
<mgrwt>
<rscale>  0 0.20156113E+02</rscale>
<asrwt>0</asrwt>
<pdfrwt beam="1">  1        4 0.20762008E-02 0.20156113E+02</pdfrwt>
<pdfrwt beam="2">  1       -4 0.11578639E-02 0.20156113E+02</pdfrwt>
<totfact> 0.12749414E+06</totfact>
</mgrwt>
</event>
<event>
 5    1  0.4710515E-007  0.2000511E+02  0.7818608E-02  0.1745227E+00
          4   -1    0    0  501    0  0.00000000000E+00  0.00000000000E+00  0.54649999289E+01  0.56464700675E+01  0.14200000000E+01 0. -1.
         -4   -1    0    0    0  501 -0.00000000000E+00 -0.00000000000E+00 -0.17798404441E+02  0.17854960114E+02  0.14200000000E+01 0.  1.
       1023    2    1    2    0    0  0.00000000000E+00  0.00000000000E+00 -0.12333404512E+02  0.23501430181E+02  0.20005108190E+02 0.  0.
        -13    1    3    3    0    0 -0.77305801347E+01 -0.63443521164E+01 -0.59728011238E+01  0.11648956981E+02  0.10570000000E+00 0. -1.
         13    1    3    3    0    0  0.77305801347E+01  0.63443521164E+01 -0.63606033887E+01  0.11852473200E+02  0.10570000000E+00 0.  1.
<mgrwt>
<rscale>  0 0.20005108E+02</rscale>
<asrwt>0</asrwt>
<pdfrwt beam="1">  1        4 0.85907890E-03 0.20005108E+02</pdfrwt>
<pdfrwt beam="2">  1       -4 0.27565257E-02 0.20005108E+02</pdfrwt>
<totfact> 0.12803319E+06</totfact>
</mgrwt>
</event>
<event>
 5    1  0.4710515E-007  0.2000191E+02  0.7818608E-02  0.1745290E+00
         -4   -1    0    0    0  501 -0.00000000000E+00  0.00000000000E+00  0.23875590253E+02  0.23917780205E+02  0.14200000000E+01 0. -1.
          4   -1    0    0  501    0  0.00000000000E+00 -0.00000000000E+00 -0.40215134248E+01  0.42648528962E+01  0.14200000000E+01 0.  1.
       1023    2    1    2    0    0  0.00000000000E+00  0.00000000000E+00  0.19854076828E+02  0.28182633101E+02  0.20001910954E+02 0.  0.
        -13    1    3    3    0    0 -0.73805855231E+01 -0.67478917615E+01  0.99681674658E+01  0.14120291109E+02  0.10570000000E+00 0.  1.
         13    1    3    3    0    0  0.73805855231E+01  0.67478917615E+01  0.98859093627E+01  0.14062341992E+02  0.10570000000E+00 0. -1.
<mgrwt>
<rscale>  0 0.20001911E+02</rscale>
<asrwt>0</asrwt>
<pdfrwt beam="2">  1        4 0.64065818E-03 0.20001911E+02</pdfrwt>
<pdfrwt beam="1">  1       -4 0.36951315E-02 0.20001911E+02</pdfrwt>
<totfact> 0.12549335E+06</totfact>
</mgrwt>
</event>
<event>
 5    1  0.4834618E-007  0.2000170E+02  0.7818608E-02  0.1745294E+00
          4   -1    0    0  501    0  0.00000000000E+00  0.00000000000E+00  0.63731763255E+01  0.65294545313E+01  0.14200000000E+01 0.  1.
         -4   -1    0    0    0  501 -0.00000000000E+00 -0.00000000000E+00 -0.15313830667E+02  0.15379525665E+02  0.14200000000E+01 0. -1.
       1023    2    1    2    0    0  0.00000000000E+00  0.00000000000E+00 -0.89406543412E+01  0.21908980197E+02  0.20001702758E+02 0.  0.
        -13    1    3    3    0    0  0.26601985898E+01 -0.96399705358E+01 -0.44561575361E+01  0.10948707729E+02  0.10570000000E+00 0. -1.
         13    1    3    3    0    0 -0.26601985898E+01  0.96399705358E+01 -0.44844968051E+01  0.10960272467E+02  0.10570000000E+00 0.  1.
<mgrwt>
<rscale>  0 0.20001703E+02</rscale>
<asrwt>0</asrwt>
<pdfrwt beam="1">  1        4 0.99756353E-03 0.20001703E+02</pdfrwt>
<pdfrwt beam="2">  1       -4 0.23730488E-02 0.20001703E+02</pdfrwt>
<totfact> 0.12899271E+06</totfact>
</mgrwt>
</event>
<event>
 5    1  0.4710515E-007  0.2000806E+02  0.7818608E-02  0.1745168E+00
         -4   -1    0    0    0  501 -0.00000000000E+00  0.00000000000E+00  0.36043574888E+00  0.14650303509E+01  0.14200000000E+01 0.  1.
          4   -1    0    0  501    0  0.00000000000E+00 -0.00000000000E+00 -0.10853733321E+03  0.10854662178E+03  0.14200000000E+01 0. -1.
       1023    2    1    2    0    0  0.00000000000E+00  0.00000000000E+00 -0.10817689746E+03  0.11001165214E+03  0.20008059895E+02 0.  0.
        -13    1    3    3    0    0  0.99576816395E+01  0.94638856456E+00 -0.53343267829E+02  0.54273073159E+02  0.10570000000E+00 0. -1.
         13    1    3    3    0    0 -0.99576816395E+01 -0.94638856456E+00 -0.54833629635E+02  0.55738578977E+02  0.10570000000E+00 0.  1.
<mgrwt>
<rscale>  0 0.20008060E+02</rscale>
<asrwt>0</asrwt>
<pdfrwt beam="2">  1        4 0.16783724E-01 0.20008060E+02</pdfrwt>
<pdfrwt beam="1">  1       -4 0.14113506E-03 0.20008060E+02</pdfrwt>
<totfact> 0.95173495E+05</totfact>
</mgrwt>
</event>
<event>
 4    1  0.4710515E-007  0.2001439E+02  0.7818608E-02  0.1745042E+00
         -4   -1    0    0    0  501 -0.00000000000E+00  0.00000000000E+00  0.37115742635E+01  0.39739380359E+01  0.14200000000E+01 0.  1.
          4   -1    0    0  501    0  0.00000000000E+00 -0.00000000000E+00 -0.25777875232E+02  0.25816956666E+02  0.14200000000E+01 0. -1.
        -13    1    1    2    0    0 -0.78331145539E+01  0.62269460070E+01 -0.11055699454E+02  0.14912149513E+02  0.10570000000E+00 0.  1.
         13    1    1    2    0    0  0.78331145539E+01 -0.62269460070E+01 -0.11010601515E+02  0.14878745189E+02  0.10570000000E+00 0. -1.
<mgrwt>
<rscale>  0 0.20014389E+02</rscale>
<asrwt>0</asrwt>
<pdfrwt beam="2">  1        4 0.39890149E-02 0.20014389E+02</pdfrwt>
<pdfrwt beam="1">  1       -4 0.59419953E-03 0.20014389E+02</pdfrwt>
<totfact> 0.12448468E+06</totfact>
</mgrwt>
</event>
<event>
 5    1  0.4710515E-007  0.2000153E+02  0.7818608E-02  0.1745298E+00
          4   -1    0    0  501    0  0.00000000000E+00  0.00000000000E+00  0.47166740257E+02  0.47188110647E+02  0.14200000000E+01 0.  1.
         -4   -1    0    0    0  501 -0.00000000000E+00 -0.00000000000E+00 -0.18583452979E+01  0.23387704561E+01  0.14200000000E+01 0. -1.
       1023    2    1    2    0    0  0.00000000000E+00  0.00000000000E+00  0.45308394959E+02  0.49526881103E+02  0.20001532393E+02 0.  0.
        -13    1    3    3    0    0 -0.40287843811E+01 -0.91527084670E+01  0.22731561079E+02  0.24834214654E+02  0.10570000000E+00 0. -1.
         13    1    3    3    0    0  0.40287843811E+01  0.91527084670E+01  0.22576833880E+02  0.24692666450E+02  0.10570000000E+00 0.  1.
<mgrwt>
<rscale>  0 0.20001532E+02</rscale>
<asrwt>0</asrwt>
<pdfrwt beam="1">  1        4 0.72950203E-02 0.20001532E+02</pdfrwt>
<pdfrwt beam="2">  1       -4 0.32449898E-03 0.20001532E+02</pdfrwt>
<totfact> 0.11538376E+06</totfact>
</mgrwt>
</event>
<event>
 5    1  0.4880926E-007  0.2000253E+02  0.7818608E-02  0.1745278E+00
         -4   -1    0    0    0  501 -0.00000000000E+00  0.00000000000E+00  0.34400749551E+01  0.37216280976E+01  0.14200000000E+01 0. -1.
          4   -1    0    0  501    0  0.00000000000E+00 -0.00000000000E+00 -0.27632891224E+02  0.27669352674E+02  0.14200000000E+01 0.  1.
       1023    2    1    2    0    0  0.00000000000E+00  0.00000000000E+00 -0.24192816269E+02  0.31390980771E+02  0.20002532709E+02 0.  0.
        -13    1    3    3    0    0  0.19004554669E+01 -0.98184672491E+01 -0.12114031057E+02  0.15709072253E+02  0.10570000000E+00 0. -1.
         13    1    3    3    0    0 -0.19004554669E+01  0.98184672491E+01 -0.12078785212E+02  0.15681908519E+02  0.10570000000E+00 0.  1.
<mgrwt>
<rscale>  0 0.20002533E+02</rscale>
<asrwt>0</asrwt>
<pdfrwt beam="2">  1        4 0.42756765E-02 0.20002533E+02</pdfrwt>
<pdfrwt beam="1">  1       -4 0.55370498E-03 0.20002533E+02</pdfrwt>
<totfact> 0.12380500E+06</totfact>
</mgrwt>
</event>
<event>
 5    1  0.4710515E-007  0.2000432E+02  0.7818608E-02  0.1745242E+00
         -4   -1    0    0    0  501 -0.00000000000E+00  0.00000000000E+00  0.39389407285E+01  0.41870818075E+01  0.14200000000E+01 0. -1.
          4   -1    0    0  501    0  0.00000000000E+00 -0.00000000000E+00 -0.24353469370E+02  0.24394832862E+02  0.14200000000E+01 0. -1.
       1023    2    1    2    0    0  0.00000000000E+00  0.00000000000E+00 -0.20414528642E+02  0.28581914669E+02  0.20004321196E+02 0.  0.
        -13    1    3    3    0    0 -0.73019642112E+01  0.68345189569E+01 -0.10132838036E+02  0.14237798631E+02  0.10570000000E+00 0.  1.
         13    1    3    3    0    0  0.73019642112E+01 -0.68345189569E+01 -0.10281690605E+02  0.14344116038E+02  0.10570000000E+00 0. -1.
<mgrwt>
<rscale>  0 0.20004321E+02</rscale>
<asrwt>0</asrwt>
<pdfrwt beam="2">  1        4 0.37689571E-02 0.20004321E+02</pdfrwt>
<pdfrwt beam="1">  1       -4 0.62826048E-03 0.20004321E+02</pdfrwt>
<totfact> 0.12524978E+06</totfact>
</mgrwt>
</event>
<event>
 5    1  0.4710515E-007  0.2001085E+02  0.7818608E-02  0.1745112E+00
         -4   -1    0    0    0  501 -0.00000000000E+00  0.00000000000E+00  0.67862340216E+02  0.67877195136E+02  0.14200000000E+01 0.  1.
          4   -1    0    0  501    0  0.00000000000E+00 -0.00000000000E+00 -0.11148699657E+01  0.18053628556E+01  0.14200000000E+01 0. -1.
       1023    2    1    2    0    0  0.00000000000E+00  0.00000000000E+00  0.66747470250E+02  0.69682557992E+02  0.20010849645E+02 0.  0.
        -13    1    3    3    0    0 -0.19163817710E+01 -0.98184951666E+01  0.32857388776E+02  0.34346681588E+02  0.10570000000E+00 0.  1.
         13    1    3    3    0    0  0.19163817710E+01  0.98184951666E+01  0.33890081474E+02  0.35335876404E+02  0.10570000000E+00 0. -1.
<mgrwt>
<rscale>  0 0.20010850E+02</rscale>
<asrwt>0</asrwt>
<pdfrwt beam="2">  1        4 0.22577596E-03 0.20010850E+02</pdfrwt>
<pdfrwt beam="1">  1       -4 0.10494618E-01 0.20010850E+02</pdfrwt>
<totfact> 0.10750313E+06</totfact>
</mgrwt>
</event>
<event>
 4    1  0.4710515E-007  0.2002832E+02  0.7818608E-02  0.1744765E+00
          4   -1    0    0  501    0  0.00000000000E+00  0.00000000000E+00  0.32951857436E+02  0.32982439395E+02  0.14200000000E+01 0. -1.
         -4   -1    0    0    0  501 -0.00000000000E+00 -0.00000000000E+00 -0.28438548588E+01  0.31786648861E+01  0.14200000000E+01 0.  1.
        -13    1    1    2    0    0 -0.83949932156E+01 -0.54380205369E+01  0.15909014901E+02  0.18792442791E+02  0.10570000000E+00 0.  1.
         13    1    1    2    0    0  0.83949932156E+01  0.54380205369E+01  0.14198987676E+02  0.17368661490E+02  0.10570000000E+00 0. -1.
<mgrwt>
<rscale>  0 0.20028321E+02</rscale>
<asrwt>0</asrwt>
<pdfrwt beam="1">  1        4 0.50976235E-02 0.20028321E+02</pdfrwt>
<pdfrwt beam="2">  1       -4 0.46562322E-03 0.20028321E+02</pdfrwt>
<totfact> 0.12110381E+06</totfact>
</mgrwt>
</event>
<event>
 5    1  0.4710515E-007  0.2000212E+02  0.7818608E-02  0.1745286E+00
          4   -1    0    0  501    0  0.00000000000E+00  0.00000000000E+00  0.20318564905E+02  0.20368124111E+02  0.14200000000E+01 0. -1.
         -4   -1    0    0    0  501 -0.00000000000E+00 -0.00000000000E+00 -0.47633913931E+01  0.49705429848E+01  0.14200000000E+01 0.  1.
       1023    2    1    2    0    0  0.00000000000E+00  0.00000000000E+00  0.15555173512E+02  0.25338667096E+02  0.20002115569E+02 0.  0.
        -13    1    3    3    0    0  0.18418872661E+01 -0.98292831558E+01  0.78425311640E+01  0.12709202320E+02  0.10570000000E+00 0. -1.
         13    1    3    3    0    0 -0.18418872661E+01  0.98292831558E+01  0.77126423484E+01  0.12629464776E+02  0.10570000000E+00 0.  1.
<mgrwt>
<rscale>  0 0.20002116E+02</rscale>
<asrwt>0</asrwt>
<pdfrwt beam="1">  1        4 0.31456801E-02 0.20002116E+02</pdfrwt>
<pdfrwt beam="2">  1       -4 0.75257641E-03 0.20002116E+02</pdfrwt>
<totfact> 0.12704002E+06</totfact>
</mgrwt>
</event>
<event>
 4    1  0.4710515E-007  0.2006670E+02  0.7818608E-02  0.1744005E+00
         -4   -1    0    0    0  501 -0.00000000000E+00  0.00000000000E+00  0.11609738036E+03  0.11610606413E+03  0.14200000000E+01 0.  1.
          4   -1    0    0  501    0  0.00000000000E+00 -0.00000000000E+00 -0.27108162533E+00  0.14456435410E+01  0.14200000000E+01 0. -1.
        -13    1    1    2    0    0 -0.59292839279E+01  0.80928916781E+01  0.58353401052E+02  0.59209643559E+02  0.10570000000E+00 0. -1.
         13    1    1    2    0    0  0.59292839279E+01 -0.80928916781E+01  0.57472897686E+02  0.58342064109E+02  0.10570000000E+00 0.  1.
<mgrwt>
<rscale>  0 0.20066701E+02</rscale>
<asrwt>0</asrwt>
<pdfrwt beam="2">  1        4 0.13272385E-03 0.20066701E+02</pdfrwt>
<pdfrwt beam="1">  1       -4 0.17952143E-01 0.20066701E+02</pdfrwt>
<totfact> 0.92662964E+05</totfact>
</mgrwt>
</event>
<event>
 4    1  0.4710515E-007  0.2002274E+02  0.7818608E-02  0.1744876E+00
         -4   -1    0    0    0  501 -0.00000000000E+00  0.00000000000E+00  0.78639066103E+02  0.78651885658E+02  0.14200000000E+01 0. -1.
          4   -1    0    0  501    0  0.00000000000E+00 -0.00000000000E+00 -0.86198844154E+00  0.16611514300E+01  0.14200000000E+01 0.  1.
        -13    1    1    2    0    0 -0.77610163481E+01 -0.63180341892E+01  0.39914515461E+02  0.41150099000E+02  0.10570000000E+00 0. -1.
         13    1    1    2    0    0  0.77610163481E+01  0.63180341892E+01  0.37862562201E+02  0.39162938088E+02  0.10570000000E+00 0.  1.
<mgrwt>
<rscale>  0 0.20022740E+02</rscale>
<asrwt>0</asrwt>
<pdfrwt beam="2">  1        4 0.19507384E-03 0.20022740E+02</pdfrwt>
<pdfrwt beam="1">  1       -4 0.12160776E-01 0.20022740E+02</pdfrwt>
<totfact> 0.10377301E+06</totfact>
</mgrwt>
</event>
<event>
 5    1  0.4715801E-007  0.2000212E+02  0.7818608E-02  0.1745286E+00
         -4   -1    0    0    0  501 -0.00000000000E+00  0.00000000000E+00  0.24315117252E+02  0.24356545876E+02  0.14200000000E+01 0.  1.
          4   -1    0    0  501    0  0.00000000000E+00 -0.00000000000E+00 -0.39446019661E+01  0.41924079800E+01  0.14200000000E+01 0. -1.
       1023    2    1    2    0    0  0.00000000000E+00  0.00000000000E+00  0.20370515286E+02  0.28548953856E+02  0.20002121718E+02 0.  0.
        -13    1    3    3    0    0 -0.98288138839E+01  0.18446143728E+01  0.10246834639E+02  0.14318413919E+02  0.10570000000E+00 0.  1.
         13    1    3    3    0    0  0.98288138839E+01 -0.18446143728E+01  0.10123680647E+02  0.14230539937E+02  0.10570000000E+00 0. -1.
<mgrwt>
<rscale>  0 0.20002122E+02</rscale>
<asrwt>0</asrwt>
<pdfrwt beam="2">  1        4 0.62911065E-03 0.20002122E+02</pdfrwt>
<pdfrwt beam="1">  1       -4 0.37630361E-02 0.20002122E+02</pdfrwt>
<totfact> 0.12529532E+06</totfact>
</mgrwt>
</event>
<event>
 5    1  0.4710515E-007  0.2000979E+02  0.7818608E-02  0.1745133E+00
         -4   -1    0    0    0  501 -0.00000000000E+00  0.00000000000E+00  0.28210197815E+01  0.31582515112E+01  0.14200000000E+01 0. -1.
          4   -1    0    0  501    0  0.00000000000E+00 -0.00000000000E+00 -0.33128363356E+02  0.33158782526E+02  0.14200000000E+01 0.  1.
       1023    2    1    2    0    0  0.00000000000E+00  0.00000000000E+00 -0.30307343574E+02  0.36317034038E+02  0.20009794771E+02 0.  0.
        -13    1    3    3    0    0 -0.36211004311E+01 -0.93254801479E+01 -0.14973533836E+02  0.18008188036E+02  0.10570000000E+00 0.  1.
         13    1    3    3    0    0  0.36211004311E+01  0.93254801479E+01 -0.15333809738E+02  0.18308846001E+02  0.10570000000E+00 0. -1.
<mgrwt>
<rscale>  0 0.20009795E+02</rscale>
<asrwt>0</asrwt>
<pdfrwt beam="2">  1        4 0.51249519E-02 0.20009795E+02</pdfrwt>
<pdfrwt beam="1">  1       -4 0.46228390E-03 0.20009795E+02</pdfrwt>
<totfact> 0.12125561E+06</totfact>
</mgrwt>
</event>
<event>
 5    1  0.4710515E-007  0.2000146E+02  0.7818608E-02  0.1745299E+00
          4   -1    0    0  501    0  0.00000000000E+00  0.00000000000E+00  0.54972713123E+01  0.56777100913E+01  0.14200000000E+01 0. -1.
         -4   -1    0    0    0  501 -0.00000000000E+00 -0.00000000000E+00 -0.17690379293E+02  0.17747279215E+02  0.14200000000E+01 0.  1.
       1023    2    1    2    0    0  0.00000000000E+00  0.00000000000E+00 -0.12193107980E+02  0.23424989306E+02  0.20001455991E+02 0.  0.
        -13    1    3    3    0    0  0.77518869402E+01 -0.63175626664E+01 -0.60892613938E+01  0.11708698732E+02  0.10570000000E+00 0.  1.
         13    1    3    3    0    0 -0.77518869402E+01  0.63175626664E+01 -0.61038465867E+01  0.11716290574E+02  0.10570000000E+00 0. -1.
<mgrwt>
<rscale>  0 0.20001456E+02</rscale>
<asrwt>0</asrwt>
<pdfrwt beam="1">  1        4 0.86399088E-03 0.20001456E+02</pdfrwt>
<pdfrwt beam="2">  1       -4 0.27398536E-02 0.20001456E+02</pdfrwt>
<totfact> 0.12812429E+06</totfact>
</mgrwt>
</event>
<event>
 4    1  0.4710515E-007  0.2003854E+02  0.7818608E-02  0.1744563E+00
         -4   -1    0    0    0  501 -0.00000000000E+00  0.00000000000E+00  0.20966789341E+02  0.21014819897E+02  0.14200000000E+01 0. -1.
          4   -1    0    0  501    0  0.00000000000E+00 -0.00000000000E+00 -0.46277355916E+01  0.48406958907E+01  0.14200000000E+01 0.  1.
        -13    1    1    2    0    0 -0.93778629530E+01 -0.34978065566E+01  0.75988482423E+01  0.12567125024E+02  0.10570000000E+00 0. -1.
         13    1    1    2    0    0  0.93778629530E+01  0.34978065566E+01  0.87402055075E+01  0.13288390763E+02  0.10570000000E+00 0.  1.
<mgrwt>
<rscale>  0 0.20038538E+02</rscale>
<asrwt>0</asrwt>
<pdfrwt beam="2">  1        4 0.73203554E-03 0.20038538E+02</pdfrwt>
<pdfrwt beam="1">  1       -4 0.32457361E-02 0.20038538E+02</pdfrwt>
<totfact> 0.12628533E+06</totfact>
</mgrwt>
</event>
<event>
 5    1  0.4710515E-007  0.2000163E+02  0.7818608E-02  0.1745296E+00
         -4   -1    0    0    0  501 -0.00000000000E+00  0.00000000000E+00  0.47848142815E+02  0.47869209006E+02  0.14200000000E+01 0. -1.
          4   -1    0    0  501    0  0.00000000000E+00 -0.00000000000E+00 -0.18250278373E+01  0.23123854798E+01  0.14200000000E+01 0.  1.
       1023    2    1    2    0    0  0.00000000000E+00  0.00000000000E+00  0.46023114978E+02  0.50181594486E+02  0.20001632755E+02 0.  0.
        -13    1    3    3    0    0  0.46977674295E+01  0.88279681345E+01  0.22871519987E+02  0.24962364456E+02  0.10570000000E+00 0.  1.
         13    1    3    3    0    0 -0.46977674295E+01 -0.88279681345E+01  0.23151594991E+02  0.25219230030E+02  0.10570000000E+00 0. -1.
<mgrwt>
<rscale>  0 0.20001633E+02</rscale>
<asrwt>0</asrwt>
<pdfrwt beam="2">  1        4 0.31988304E-03 0.20001633E+02</pdfrwt>
<pdfrwt beam="1">  1       -4 0.74003623E-02 0.20001633E+02</pdfrwt>
<totfact> 0.11510690E+06</totfact>
</mgrwt>
</event>
<event>
 4    1  0.4710515E-007  0.2032839E+02  0.7818608E-02  0.1738875E+00
          4   -1    0    0  501    0  0.00000000000E+00  0.00000000000E+00  0.40201953973E+02  0.40227024539E+02  0.14200000000E+01 0. -1.
         -4   -1    0    0    0  501 -0.00000000000E+00 -0.00000000000E+00 -0.23457003503E+01  0.27420266471E+01  0.14200000000E+01 0.  1.
        -13    1    1    2    0    0  0.95735620885E+01 -0.33580448898E+01  0.17642165858E+02  0.20351578445E+02  0.10570000000E+00 0.  1.
         13    1    1    2    0    0 -0.95735620885E+01  0.33580448898E+01  0.20214087765E+02  0.22617472741E+02  0.10570000000E+00 0. -1.
<mgrwt>
<rscale>  0 0.20328390E+02</rscale>
<asrwt>0</asrwt>
<pdfrwt beam="1">  1        4 0.62173311E-02 0.20328390E+02</pdfrwt>
<pdfrwt beam="2">  1       -4 0.39329212E-03 0.20328390E+02</pdfrwt>
<totfact> 0.11442091E+06</totfact>
</mgrwt>
</event>
<event>
 5    1  0.4710515E-007  0.2000989E+02  0.7818608E-02  0.1745132E+00
         -4   -1    0    0    0  501 -0.00000000000E+00  0.00000000000E+00  0.54415315186E+01  0.56237589980E+01  0.14200000000E+01 0.  1.
          4   -1    0    0  501    0  0.00000000000E+00 -0.00000000000E+00 -0.17881572627E+02  0.17937866083E+02  0.14200000000E+01 0. -1.
       1023    2    1    2    0    0  0.00000000000E+00  0.00000000000E+00 -0.12440041108E+02  0.23561625081E+02  0.20009886399E+02 0.  0.
        -13    1    3    3    0    0 -0.93826231312E+01  0.34716961005E+01 -0.61755663634E+01  0.11757341665E+02  0.10570000000E+00 0.  1.
         13    1    3    3    0    0  0.93826231312E+01 -0.34716961005E+01 -0.62644747449E+01  0.11804283416E+02  0.10570000000E+00 0. -1.
<mgrwt>
<rscale>  0 0.20009886E+02</rscale>
<asrwt>0</asrwt>
<pdfrwt beam="2">  1        4 0.27693589E-02 0.20009886E+02</pdfrwt>
<pdfrwt beam="1">  1       -4 0.85550647E-03 0.20009886E+02</pdfrwt>
<totfact> 0.12793674E+06</totfact>
</mgrwt>
</event>
<event>
 5    1  0.4710515E-007  0.2000303E+02  0.7818608E-02  0.1745268E+00
          4   -1    0    0  501    0  0.00000000000E+00  0.00000000000E+00  0.89423349265E+01  0.90543776119E+01  0.14200000000E+01 0.  1.
         -4   -1    0    0    0  501 -0.00000000000E+00 -0.00000000000E+00 -0.10958368877E+02  0.11049988617E+02  0.14200000000E+01 0. -1.
       1023    2    1    2    0    0  0.00000000000E+00  0.00000000000E+00 -0.20160339501E+01  0.20104366229E+02  0.20003028485E+02 0.  0.
        -13    1    3    3    0    0  0.99272432519E+00  0.99514568596E+01 -0.10542875803E+01  0.10056823057E+02  0.10570000000E+00 0.  1.
         13    1    3    3    0    0 -0.99272432519E+00 -0.99514568596E+01 -0.96174636976E+00  0.10047543172E+02  0.10570000000E+00 0. -1.
<mgrwt>
<rscale>  0 0.20003028E+02</rscale>
<asrwt>0</asrwt>
<pdfrwt beam="1">  1        4 0.13914102E-02 0.20003028E+02</pdfrwt>
<pdfrwt beam="2">  1       -4 0.17015692E-02 0.20003028E+02</pdfrwt>
<totfact> 0.13003832E+06</totfact>
</mgrwt>
</event>
<event>
 5    1  0.4710515E-007  0.2000367E+02  0.7818608E-02  0.1745255E+00
          4   -1    0    0  501    0  0.00000000000E+00  0.00000000000E+00  0.57179568904E+01  0.58916407732E+01  0.14200000000E+01 0.  1.
         -4   -1    0    0    0  501 -0.00000000000E+00 -0.00000000000E+00 -0.17029769289E+02  0.17088868951E+02  0.14200000000E+01 0. -1.
       1023    2    1    2    0    0  0.00000000000E+00  0.00000000000E+00 -0.11311812399E+02  0.22980509725E+02  0.20003667850E+02 0.  0.
        -13    1    3    3    0    0  0.58497713700E+01  0.81105485522E+01 -0.54754052217E+01  0.11401405954E+02  0.10570000000E+00 0. -1.
         13    1    3    3    0    0 -0.58497713700E+01 -0.81105485522E+01 -0.58364071769E+01  0.11579103770E+02  0.10570000000E+00 0.  1.
<mgrwt>
<rscale>  0 0.20003668E+02</rscale>
<asrwt>0</asrwt>
<pdfrwt beam="1">  1        4 0.89759211E-03 0.20003668E+02</pdfrwt>
<pdfrwt beam="2">  1       -4 0.26378709E-02 0.20003668E+02</pdfrwt>
<totfact> 0.12834894E+06</totfact>
</mgrwt>
</event>
<event>
 5    1  0.4710515E-007  0.2000383E+02  0.7818608E-02  0.1745252E+00
          4   -1    0    0  501    0  0.00000000000E+00  0.00000000000E+00  0.60295838301E+02  0.60312556871E+02  0.14200000000E+01 0.  1.
         -4   -1    0    0    0  501 -0.00000000000E+00 -0.00000000000E+00 -0.13351553798E+01  0.19491125900E+01  0.14200000000E+01 0. -1.
       1023    2    1    2    0    0  0.00000000000E+00  0.00000000000E+00  0.58960682921E+02  0.62261669461E+02  0.20003833474E+02 0.  0.
        -13    1    3    3    0    0  0.97380835940E+01  0.22795313073E+01  0.29402165705E+02  0.31056803694E+02  0.10570000000E+00 0. -1.
         13    1    3    3    0    0 -0.97380835940E+01 -0.22795313073E+01  0.29558517216E+02  0.31204865767E+02  0.10570000000E+00 0.  1.
<mgrwt>
<rscale>  0 0.20003833E+02</rscale>
<asrwt>0</asrwt>
<pdfrwt beam="1">  1        4 0.93247956E-02 0.20003833E+02</pdfrwt>
<pdfrwt beam="2">  1       -4 0.25392206E-03 0.20003833E+02</pdfrwt>
<totfact> 0.11028617E+06</totfact>
</mgrwt>
</event>
<event>
 5    1  0.4710515E-007  0.2000499E+02  0.7818608E-02  0.1745229E+00
          4   -1    0    0  501    0  0.00000000000E+00  0.00000000000E+00  0.57840505345E+00  0.15332815807E+01  0.14200000000E+01 0.  1.
         -4   -1    0    0    0  501 -0.00000000000E+00 -0.00000000000E+00 -0.93795625586E+02  0.93806373872E+02  0.14200000000E+01 0. -1.
       1023    2    1    2    0    0  0.00000000000E+00  0.00000000000E+00 -0.93217220532E+02  0.95339655453E+02  0.20004991829E+02 0.  0.
        -13    1    3    3    0    0 -0.98943432340E+01  0.14566044815E+01 -0.47266002788E+02  0.48312585490E+02  0.10570000000E+00 0.  1.
         13    1    3    3    0    0  0.98943432340E+01 -0.14566044815E+01 -0.45951217744E+02  0.47027069963E+02  0.10570000000E+00 0. -1.
<mgrwt>
<rscale>  0 0.20004992E+02</rscale>
<asrwt>0</asrwt>
<pdfrwt beam="1">  1        4 0.16326430E-03 0.20004992E+02</pdfrwt>
<pdfrwt beam="2">  1       -4 0.14504368E-01 0.20004992E+02</pdfrwt>
<totfact> 0.99310638E+05</totfact>
</mgrwt>
</event>
<event>
 5    1  0.4710515E-007  0.2000150E+02  0.7818608E-02  0.1745298E+00
         -4   -1    0    0    0  501 -0.00000000000E+00  0.00000000000E+00  0.28639594358E+02  0.28674775762E+02  0.14200000000E+01 0.  1.
          4   -1    0    0  501    0  0.00000000000E+00 -0.00000000000E+00 -0.33088653587E+01  0.36006929836E+01  0.14200000000E+01 0. -1.
       1023    2    1    2    0    0  0.00000000000E+00  0.00000000000E+00  0.25330729000E+02  0.32275468746E+02  0.20001501221E+02 0.  0.
        -13    1    3    3    0    0 -0.57754828571E+00 -0.99833674328E+01  0.12582250171E+02  0.16072503824E+02  0.10570000000E+00 0.  1.
         13    1    3    3    0    0  0.57754828571E+00  0.99833674328E+01  0.12748478828E+02  0.16202964922E+02  0.10570000000E+00 0. -1.
<mgrwt>
<rscale>  0 0.20001501E+02</rscale>
<asrwt>0</asrwt>
<pdfrwt beam="2">  1        4 0.53421076E-03 0.20001501E+02</pdfrwt>
<pdfrwt beam="1">  1       -4 0.44312459E-02 0.20001501E+02</pdfrwt>
<totfact> 0.12336539E+06</totfact>
</mgrwt>
</event>
<event>
 5    1  0.4710515E-007  0.2001187E+02  0.7818608E-02  0.1745092E+00
          4   -1    0    0  501    0  0.00000000000E+00  0.00000000000E+00  0.10011946723E+02  0.10112145034E+02  0.14200000000E+01 0.  1.
         -4   -1    0    0    0  501 -0.00000000000E+00 -0.00000000000E+00 -0.97984999989E+01  0.99008586612E+01  0.14200000000E+01 0. -1.
       1023    2    1    2    0    0  0.00000000000E+00  0.00000000000E+00  0.21344672407E+00  0.20013003695E+02  0.20011865415E+02 0.  0.
        -13    1    3    3    0    0  0.40947278603E+01 -0.91237056748E+01  0.42093125028E+00  0.10009853001E+02  0.10570000000E+00 0.  1.
         13    1    3    3    0    0 -0.40947278603E+01  0.91237056748E+01 -0.20748452621E+00  0.10003150694E+02  0.10570000000E+00 0. -1.
<mgrwt>
<rscale>  0 0.20011865E+02</rscale>
<asrwt>0</asrwt>
<pdfrwt beam="1">  1        4 0.15558808E-02 0.20011865E+02</pdfrwt>
<pdfrwt beam="2">  1       -4 0.15230428E-02 0.20011865E+02</pdfrwt>
<totfact> 0.12997521E+06</totfact>
</mgrwt>
</event>
<event>
 4    1  0.4710515E-007  0.2004482E+02  0.7818608E-02  0.1744438E+00
         -4   -1    0    0    0  501 -0.00000000000E+00  0.00000000000E+00  0.23844056983E+02  0.23886302631E+02  0.14200000000E+01 0. -1.
          4   -1    0    0  501    0  0.00000000000E+00 -0.00000000000E+00 -0.40456697659E+01  0.42876384939E+01  0.14200000000E+01 0.  1.
        -13    1    1    2    0    0  0.89901001481E+01 -0.44272336648E+01  0.10072677362E+02  0.14208881037E+02  0.10570000000E+00 0. -1.
         13    1    1    2    0    0 -0.89901001481E+01  0.44272336648E+01  0.97257098551E+01  0.13965060088E+02  0.10570000000E+00 0.  1.
<mgrwt>
<rscale>  0 0.20044820E+02</rscale>
<asrwt>0</asrwt>
<pdfrwt beam="2">  1        4 0.64427339E-03 0.20044820E+02</pdfrwt>
<pdfrwt beam="1">  1       -4 0.36901790E-02 0.20044820E+02</pdfrwt>
<totfact> 0.12495213E+06</totfact>
</mgrwt>
</event>
<event>
 5    1  0.4710515E-007  0.2000148E+02  0.7818608E-02  0.1745299E+00
         -4   -1    0    0    0  501 -0.00000000000E+00  0.00000000000E+00  0.26278344827E+02  0.26316683052E+02  0.14200000000E+01 0. -1.
          4   -1    0    0  501    0  0.00000000000E+00 -0.00000000000E+00 -0.36308676913E+01  0.38986664633E+01  0.14200000000E+01 0.  1.
       1023    2    1    2    0    0  0.00000000000E+00  0.00000000000E+00  0.22647477136E+02  0.30215349515E+02  0.20001478088E+02 0.  0.
        -13    1    3    3    0    0  0.91778088842E+01  0.39711050853E+01  0.11260409379E+02  0.15060207282E+02  0.10570000000E+00 0.  1.
         13    1    3    3    0    0 -0.91778088842E+01 -0.39711050853E+01  0.11387067757E+02  0.15155142233E+02  0.10570000000E+00 0. -1.
<mgrwt>
<rscale>  0 0.20001478E+02</rscale>
<asrwt>0</asrwt>
<pdfrwt beam="2">  1        4 0.58214405E-03 0.20001478E+02</pdfrwt>
<pdfrwt beam="1">  1       -4 0.40663712E-02 0.20001478E+02</pdfrwt>
<totfact> 0.12442639E+06</totfact>
</mgrwt>
</event>
<event>
 5    1  0.4710515E-007  0.2000195E+02  0.7818608E-02  0.1745289E+00
          4   -1    0    0  501    0  0.00000000000E+00  0.00000000000E+00  0.27698002958E+00  0.14467611886E+01  0.14200000000E+01 0.  1.
         -4   -1    0    0    0  501 -0.00000000000E+00 -0.00000000000E+00 -0.11487217292E+03  0.11488094929E+03  0.14200000000E+01 0. -1.
       1023    2    1    2    0    0  0.00000000000E+00  0.00000000000E+00 -0.11459519289E+03  0.11632771048E+03  0.20001949735E+02 0.  0.
        -13    1    3    3    0    0  0.61892106535E+01  0.78549851101E+01 -0.57095609447E+02  0.57964876522E+02  0.10570000000E+00 0.  1.
         13    1    3    3    0    0 -0.61892106535E+01 -0.78549851101E+01 -0.57499583439E+02  0.58362833960E+02  0.10570000000E+00 0. -1.
<mgrwt>
<rscale>  0 0.20001950E+02</rscale>
<asrwt>0</asrwt>
<pdfrwt beam="1">  1        4 0.13327068E-03 0.20001950E+02</pdfrwt>
<pdfrwt beam="2">  1       -4 0.17763288E-01 0.20001950E+02</pdfrwt>
<totfact> 0.93574806E+05</totfact>
</mgrwt>
</event>
<event>
 5    1  0.5038714E-007  0.2000327E+02  0.7818608E-02  0.1745263E+00
          4   -1    0    0  501    0  0.00000000000E+00  0.00000000000E+00  0.18038570191E+02  0.18094375218E+02  0.14200000000E+01 0.  1.
         -4   -1    0    0    0  501 -0.00000000000E+00 -0.00000000000E+00 -0.53890077837E+01  0.55729529778E+01  0.14200000000E+01 0. -1.
       1023    2    1    2    0    0  0.00000000000E+00  0.00000000000E+00  0.12649562408E+02  0.23667328196E+02  0.20003274603E+02 0.  0.
        -13    1    3    3    0    0  0.28938321450E+01  0.95731544854E+01  0.63780231467E+01  0.11862120512E+02  0.10570000000E+00 0. -1.
         13    1    3    3    0    0 -0.28938321450E+01 -0.95731544854E+01  0.62715392609E+01  0.11805207685E+02  0.10570000000E+00 0.  1.
<mgrwt>
<rscale>  0 0.20003275E+02</rscale>
<asrwt>0</asrwt>
<pdfrwt beam="1">  1        4 0.27936070E-02 0.20003275E+02</pdfrwt>
<pdfrwt beam="2">  1       -4 0.84752045E-03 0.20003275E+02</pdfrwt>
<totfact> 0.12796301E+06</totfact>
</mgrwt>
</event>
<event>
 5    1  0.4710515E-007  0.2000115E+02  0.7818608E-02  0.1745305E+00
          4   -1    0    0  501    0  0.00000000000E+00  0.00000000000E+00  0.14540068484E+01  0.20323719923E+01  0.14200000000E+01 0.  1.
         -4   -1    0    0    0  501 -0.00000000000E+00 -0.00000000000E+00 -0.56783985258E+02  0.56801737489E+02  0.14200000000E+01 0. -1.
       1023    2    1    2    0    0  0.00000000000E+00  0.00000000000E+00 -0.55329978410E+02  0.58834109482E+02  0.20001148159E+02 0.  0.
        -13    1    3    3    0    0 -0.93092153868E+01 -0.36522249471E+01 -0.27640160273E+02  0.29393704608E+02  0.10570000000E+00 0. -1.
         13    1    3    3    0    0  0.93092153868E+01  0.36522249471E+01 -0.27689818137E+02  0.29440404874E+02  0.10570000000E+00 0.  1.
<mgrwt>
<rscale>  0 0.20001148E+02</rscale>
<asrwt>0</asrwt>
<pdfrwt beam="1">  1        4 0.26954859E-03 0.20001148E+02</pdfrwt>
<pdfrwt beam="2">  1       -4 0.87818515E-02 0.20001148E+02</pdfrwt>
<totfact> 0.11162517E+06</totfact>
</mgrwt>
</event>
<event>
 4    1  0.4710515E-007  0.2002739E+02  0.7818608E-02  0.1744784E+00
         -4   -1    0    0    0  501 -0.00000000000E+00  0.00000000000E+00  0.91181779617E+01  0.92280858980E+01  0.14200000000E+01 0. -1.
          4   -1    0    0  501    0  0.00000000000E+00 -0.00000000000E+00 -0.10774507048E+02  0.10867676943E+02  0.14200000000E+01 0.  1.
        -13    1    1    2    0    0  0.56231788020E+01  0.82840957397E+01 -0.95709436429E+00  0.10058508049E+02  0.10570000000E+00 0. -1.
         13    1    1    2    0    0 -0.56231788020E+01 -0.82840957397E+01 -0.69923472224E+00  0.10037254792E+02  0.10570000000E+00 0.  1.
<mgrwt>
<rscale>  0 0.20027388E+02</rscale>
<asrwt>0</asrwt>
<pdfrwt beam="2">  1        4 0.16732378E-02 0.20027388E+02</pdfrwt>
<pdfrwt beam="1">  1       -4 0.14184180E-02 0.20027388E+02</pdfrwt>
<totfact> 0.12972059E+06</totfact>
</mgrwt>
</event>
<event>
 5    1  0.4710515E-007  0.2000205E+02  0.7818608E-02  0.1745287E+00
         -4   -1    0    0    0  501 -0.00000000000E+00  0.00000000000E+00  0.69990146789E+00  0.15831178303E+01  0.14200000000E+01 0.  1.
          4   -1    0    0  501    0  0.00000000000E+00 -0.00000000000E+00 -0.86729976853E+02  0.86741600660E+02  0.14200000000E+01 0. -1.
       1023    2    1    2    0    0  0.00000000000E+00  0.00000000000E+00 -0.86030075385E+02  0.88324718490E+02  0.20002050532E+02 0.  0.
        -13    1    3    3    0    0 -0.59765904636E+01 -0.80180858256E+01 -0.43015401495E+02  0.44162713596E+02  0.10570000000E+00 0. -1.
         13    1    3    3    0    0  0.59765904636E+01  0.80180858256E+01 -0.43014673891E+02  0.44162004894E+02  0.10570000000E+00 0.  1.
<mgrwt>
<rscale>  0 0.20002051E+02</rscale>
<asrwt>0</asrwt>
<pdfrwt beam="2">  1        4 0.13411902E-01 0.20002051E+02</pdfrwt>
<pdfrwt beam="1">  1       -4 0.17651108E-03 0.20002051E+02</pdfrwt>
<totfact> 0.10144954E+06</totfact>
</mgrwt>
</event>
<event>
 5    1  0.4710515E-007  0.2000438E+02  0.7818608E-02  0.1745241E+00
          4   -1    0    0  501    0  0.00000000000E+00  0.00000000000E+00  0.78441890689E+00  0.16222555352E+01  0.14200000000E+01 0. -1.
         -4   -1    0    0    0  501 -0.00000000000E+00 -0.00000000000E+00 -0.82292500915E+02  0.82304751423E+02  0.14200000000E+01 0.  1.
       1023    2    1    2    0    0  0.00000000000E+00  0.00000000000E+00 -0.81508082008E+02  0.83927006959E+02  0.20004376130E+02 0.  0.
        -13    1    3    3    0    0 -0.87750865948E+01  0.47983993023E+01 -0.41073913237E+02  0.42274156428E+02  0.10570000000E+00 0.  1.
         13    1    3    3    0    0  0.87750865948E+01 -0.47983993023E+01 -0.40434168771E+02  0.41652850531E+02  0.10570000000E+00 0. -1.
<mgrwt>
<rscale>  0 0.20004376E+02</rscale>
<asrwt>0</asrwt>
<pdfrwt beam="1">  1        4 0.18607121E-03 0.20004376E+02</pdfrwt>
<pdfrwt beam="2">  1       -4 0.12725772E-01 0.20004376E+02</pdfrwt>
<totfact> 0.10280143E+06</totfact>
</mgrwt>
</event>
<event>
 4    1  0.4710515E-007  0.2001477E+02  0.7818608E-02  0.1745035E+00
         -4   -1    0    0    0  501 -0.00000000000E+00  0.00000000000E+00  0.26168294699E+01  0.29772800463E+01  0.14200000000E+01 0. -1.
          4   -1    0    0  501    0  0.00000000000E+00 -0.00000000000E+00 -0.35429111337E+02  0.35457556742E+02  0.14200000000E+01 0.  1.
        -13    1    1    2    0    0 -0.26937002516E+01 -0.96333339877E+01 -0.16947223234E+02  0.19679346854E+02  0.10570000000E+00 0. -1.
         13    1    1    2    0    0  0.26937002516E+01  0.96333339877E+01 -0.15865058633E+02  0.18755489935E+02  0.10570000000E+00 0.  1.
<mgrwt>
<rscale>  0 0.20014765E+02</rscale>
<asrwt>0</asrwt>
<pdfrwt beam="2">  1        4 0.54805473E-02 0.20014765E+02</pdfrwt>
<pdfrwt beam="1">  1       -4 0.43250425E-03 0.20014765E+02</pdfrwt>
<totfact> 0.12018114E+06</totfact>
</mgrwt>
</event>
<event>
 5    1  0.4710515E-007  0.2000296E+02  0.7818608E-02  0.1745269E+00
         -4   -1    0    0    0  501 -0.00000000000E+00  0.00000000000E+00  0.17954777989E+02  0.18010842641E+02  0.14200000000E+01 0. -1.
          4   -1    0    0  501    0  0.00000000000E+00 -0.00000000000E+00 -0.54147566612E+01  0.55978558127E+01  0.14200000000E+01 0.  1.
       1023    2    1    2    0    0  0.00000000000E+00  0.00000000000E+00  0.12540021328E+02  0.23608698454E+02  0.20002962475E+02 0.  0.
        -13    1    3    3    0    0 -0.59297398391E+01  0.80532423735E+01  0.63218235420E+01  0.11831870210E+02  0.10570000000E+00 0.  1.
         13    1    3    3    0    0  0.59297398391E+01 -0.80532423735E+01  0.62181977862E+01  0.11776828244E+02  0.10570000000E+00 0. -1.
<mgrwt>
<rscale>  0 0.20002962E+02</rscale>
<asrwt>0</asrwt>
<pdfrwt beam="2">  1        4 0.85143670E-03 0.20002962E+02</pdfrwt>
<pdfrwt beam="1">  1       -4 0.27806708E-02 0.20002962E+02</pdfrwt>
<totfact> 0.12800031E+06</totfact>
</mgrwt>
</event>
<event>
 5    1  0.4710515E-007  0.2000207E+02  0.7818608E-02  0.1745287E+00
         -4   -1    0    0    0  501 -0.00000000000E+00  0.00000000000E+00  0.86130848416E+02  0.86142553067E+02  0.14200000000E+01 0. -1.
          4   -1    0    0  501    0  0.00000000000E+00 -0.00000000000E+00 -0.71089423242E+00  0.15880083783E+01  0.14200000000E+01 0.  1.
       1023    2    1    2    0    0  0.00000000000E+00  0.00000000000E+00  0.85419954184E+02  0.87730561446E+02  0.20002070862E+02 0.  0.
        -13    1    3    3    0    0 -0.97663526411E+01 -0.21507108862E+01  0.42921964313E+02  0.44071684722E+02  0.10570000000E+00 0.  1.
         13    1    3    3    0    0  0.97663526411E+01  0.21507108862E+01  0.42497989871E+02  0.43658876724E+02  0.10570000000E+00 0. -1.
<mgrwt>
<rscale>  0 0.20002071E+02</rscale>
<asrwt>0</asrwt>
<pdfrwt beam="2">  1        4 0.17773898E-03 0.20002071E+02</pdfrwt>
<pdfrwt beam="1">  1       -4 0.13319273E-01 0.20002071E+02</pdfrwt>
<totfact> 0.10163277E+06</totfact>
</mgrwt>
</event>
<event>
 5    1  0.4710515E-007  0.2000316E+02  0.7818608E-02  0.1745265E+00
         -4   -1    0    0    0  501 -0.00000000000E+00  0.00000000000E+00  0.70477191299E+00  0.15852770891E+01  0.14200000000E+01 0.  1.
          4   -1    0    0  501    0  0.00000000000E+00 -0.00000000000E+00 -0.86473370668E+02  0.86485028962E+02  0.14200000000E+01 0. -1.
       1023    2    1    2    0    0  0.00000000000E+00  0.00000000000E+00 -0.85768598755E+02  0.88070306051E+02  0.20003156643E+02 0.  0.
        -13    1    3    3    0    0 -0.36884361527E+01 -0.92959714353E+01 -0.42763703069E+02  0.43917708489E+02  0.10570000000E+00 0. -1.
         13    1    3    3    0    0  0.36884361527E+01  0.92959714353E+01 -0.43004895685E+02  0.44152597563E+02  0.10570000000E+00 0.  1.
<mgrwt>
<rscale>  0 0.20003157E+02</rscale>
<asrwt>0</asrwt>
<pdfrwt beam="2">  1        4 0.13372218E-01 0.20003157E+02</pdfrwt>
<pdfrwt beam="1">  1       -4 0.17705448E-03 0.20003157E+02</pdfrwt>
<totfact> 0.10151678E+06</totfact>
</mgrwt>
</event>
<event>
 4    1  0.4710515E-007  0.2006261E+02  0.7818608E-02  0.1744086E+00
         -4   -1    0    0    0  501 -0.00000000000E+00  0.00000000000E+00  0.14213630977E+02  0.14284386776E+02  0.14200000000E+01 0.  1.
          4   -1    0    0  501    0  0.00000000000E+00 -0.00000000000E+00 -0.69190023578E+01  0.70632141145E+01  0.14200000000E+01 0. -1.
        -13    1    1    2    0    0  0.10009325679E+02  0.65328020141E+00  0.37012167188E+01  0.10692219286E+02  0.10570000000E+00 0. -1.
         13    1    1    2    0    0 -0.10009325679E+02 -0.65328020141E+00  0.35934119006E+01  0.10655381605E+02  0.10570000000E+00 0.  1.
<mgrwt>
<rscale>  0 0.20062613E+02</rscale>
<asrwt>0</asrwt>
<pdfrwt beam="2">  1        4 0.10809979E-02 0.20062613E+02</pdfrwt>
<pdfrwt beam="1">  1       -4 0.22032484E-02 0.20062613E+02</pdfrwt>
<totfact> 0.12852048E+06</totfact>
</mgrwt>
</event>
<event>
 5    1  0.4710515E-007  0.2000264E+02  0.7818608E-02  0.1745276E+00
          4   -1    0    0  501    0  0.00000000000E+00  0.00000000000E+00  0.65770982351E+02  0.65786309513E+02  0.14200000000E+01 0. -1.
         -4   -1    0    0    0  501 -0.00000000000E+00 -0.00000000000E+00 -0.11703991439E+01  0.18401723169E+01  0.14200000000E+01 0.  1.
       1023    2    1    2    0    0  0.00000000000E+00  0.00000000000E+00  0.64600583207E+02  0.67626481830E+02  0.20002642177E+02 0.  0.
        -13    1    3    3    0    0 -0.29112837138E+01  0.95676069402E+01  0.32219178603E+02  0.33735757258E+02  0.10570000000E+00 0. -1.
         13    1    3    3    0    0  0.29112837138E+01 -0.95676069402E+01  0.32381404604E+02  0.33890724572E+02  0.10570000000E+00 0.  1.
<mgrwt>
<rscale>  0 0.20002642E+02</rscale>
<asrwt>0</asrwt>
<pdfrwt beam="1">  1        4 0.10171313E-01 0.20002642E+02</pdfrwt>
<pdfrwt beam="2">  1       -4 0.23276142E-03 0.20002642E+02</pdfrwt>
<totfact> 0.10832529E+06</totfact>
</mgrwt>
</event>
<event>
 5    1  0.4710515E-007  0.2000234E+02  0.7818608E-02  0.1745282E+00
         -4   -1    0    0    0  501 -0.00000000000E+00  0.00000000000E+00  0.21722038862E+01  0.25951627547E+01  0.14200000000E+01 0.  1.
          4   -1    0    0  501    0  0.00000000000E+00 -0.00000000000E+00 -0.41525513981E+02  0.41549785936E+02  0.14200000000E+01 0. -1.
       1023    2    1    2    0    0  0.00000000000E+00  0.00000000000E+00 -0.39353310094E+02  0.44144948691E+02  0.20002336852E+02 0.  0.
        -13    1    3    3    0    0 -0.23728180914E+01 -0.97149467283E+01 -0.19768762650E+02  0.22154584285E+02  0.10570000000E+00 0.  1.
         13    1    3    3    0    0  0.23728180914E+01  0.97149467283E+01 -0.19584547445E+02  0.21990364406E+02  0.10570000000E+00 0. -1.
<mgrwt>
<rscale>  0 0.20002337E+02</rscale>
<asrwt>0</asrwt>
<pdfrwt beam="2">  1        4 0.64229424E-02 0.20002337E+02</pdfrwt>
<pdfrwt beam="1">  1       -4 0.36858762E-03 0.20002337E+02</pdfrwt>
<totfact> 0.11771004E+06</totfact>
</mgrwt>
</event>
<event>
 4    1  0.4978107E-007  0.2159301E+02  0.7818608E-02  0.1715387E+00
         -4   -1    0    0    0  501 -0.00000000000E+00  0.00000000000E+00  0.23314914820E+02  0.23358117498E+02  0.14200000000E+01 0. -1.
          4   -1    0    0  501    0  0.00000000000E+00 -0.00000000000E+00 -0.48498395791E+01  0.50534487178E+01  0.14200000000E+01 0.  1.
        -13    1    1    2    0    0 -0.10477156339E+02 -0.23578310637E+01  0.77773237668E+01  0.13260019221E+02  0.10570000000E+00 0.  1.
         13    1    1    2    0    0  0.10477156339E+02  0.23578310637E+01  0.10687751474E+02  0.15151546995E+02  0.10570000000E+00 0. -1.
<mgrwt>
<rscale>  0 0.21593010E+02</rscale>
<asrwt>0</asrwt>
<pdfrwt beam="2">  1        4 0.76511469E-03 0.21593010E+02</pdfrwt>
<pdfrwt beam="1">  1       -4 0.36058955E-02 0.21593010E+02</pdfrwt>
<totfact> 0.10705479E+06</totfact>
</mgrwt>
</event>
<event>
 5    1  0.4710515E-007  0.2000319E+02  0.7818608E-02  0.1745265E+00
         -4   -1    0    0    0  501 -0.00000000000E+00  0.00000000000E+00  0.13285144874E+01  0.19445695522E+01  0.14200000000E+01 0. -1.
          4   -1    0    0  501    0  0.00000000000E+00 -0.00000000000E+00 -0.60497981743E+02  0.60514644467E+02  0.14200000000E+01 0.  1.
       1023    2    1    2    0    0  0.00000000000E+00  0.00000000000E+00 -0.59169467256E+02  0.62459214019E+02  0.20003188761E+02 0.  0.
        -13    1    3    3    0    0  0.34537730351E+01 -0.93854013273E+01 -0.29334714102E+02  0.30992756092E+02  0.10570000000E+00 0. -1.
         13    1    3    3    0    0 -0.34537730351E+01  0.93854013273E+01 -0.29834753154E+02  0.31466457928E+02  0.10570000000E+00 0.  1.
<mgrwt>
<rscale>  0 0.20003189E+02</rscale>
<asrwt>0</asrwt>
<pdfrwt beam="2">  1        4 0.93560506E-02 0.20003189E+02</pdfrwt>
<pdfrwt beam="1">  1       -4 0.25305749E-03 0.20003189E+02</pdfrwt>
<totfact> 0.11021904E+06</totfact>
</mgrwt>
</event>
<event>
 5    1  0.4710515E-007  0.2000370E+02  0.7818608E-02  0.1745255E+00
         -4   -1    0    0    0  501 -0.00000000000E+00  0.00000000000E+00  0.21162331786E+02  0.21209919533E+02  0.14200000000E+01 0. -1.
          4   -1    0    0  501    0  0.00000000000E+00 -0.00000000000E+00 -0.45662572029E+01  0.47819561733E+01  0.14200000000E+01 0.  1.
       1023    2    1    2    0    0  0.00000000000E+00  0.00000000000E+00  0.16596074583E+02  0.25991875706E+02  0.20003697438E+02 0.  0.
        -13    1    3    3    0    0 -0.66344131509E+01  0.74829990968E+01  0.84576620484E+01  0.13097859869E+02  0.10570000000E+00 0.  1.
         13    1    3    3    0    0  0.66344131509E+01 -0.74829990968E+01  0.81384125342E+01  0.12894015837E+02  0.10570000000E+00 0. -1.
<mgrwt>
<rscale>  0 0.20003697E+02</rscale>
<asrwt>0</asrwt>
<pdfrwt beam="2">  1        4 0.72275392E-03 0.20003697E+02</pdfrwt>
<pdfrwt beam="1">  1       -4 0.32759962E-02 0.20003697E+02</pdfrwt>
<totfact> 0.12665849E+06</totfact>
</mgrwt>
</event>
<event>
 5    1  0.4710515E-007  0.2000801E+02  0.7818608E-02  0.1745169E+00
          4   -1    0    0  501    0  0.00000000000E+00  0.00000000000E+00  0.70090736117E+01  0.71514692822E+01  0.14200000000E+01 0.  1.
         -4   -1    0    0    0  501 -0.00000000000E+00 -0.00000000000E+00 -0.13956281673E+02  0.14028335544E+02  0.14200000000E+01 0. -1.
       1023    2    1    2    0    0  0.00000000000E+00  0.00000000000E+00 -0.69472080610E+01  0.21179804826E+02  0.20008009212E+02 0.  0.
        -13    1    3    3    0    0  0.71203576979E+01  0.70242898173E+01 -0.36532314882E+01  0.10648822187E+02  0.10570000000E+00 0.  1.
         13    1    3    3    0    0 -0.71203576979E+01 -0.70242898173E+01 -0.32939765728E+01  0.10530982639E+02  0.10570000000E+00 0. -1.
<mgrwt>
<rscale>  0 0.20008009E+02</rscale>
<asrwt>0</asrwt>
<pdfrwt beam="1">  1        4 0.10948151E-02 0.20008009E+02</pdfrwt>
<pdfrwt beam="2">  1       -4 0.21636164E-02 0.20008009E+02</pdfrwt>
<totfact> 0.12933584E+06</totfact>
</mgrwt>
</event>
<event>
 5    1  0.4902543E-007  0.2000156E+02  0.7818608E-02  0.1745297E+00
          4   -1    0    0  501    0  0.00000000000E+00  0.00000000000E+00  0.26382344679E+02  0.26420531993E+02  0.14200000000E+01 0.  1.
         -4   -1    0    0    0  501 -0.00000000000E+00 -0.00000000000E+00 -0.36155519708E+01  0.38844067827E+01  0.14200000000E+01 0. -1.
       1023    2    1    2    0    0  0.00000000000E+00  0.00000000000E+00  0.22766792708E+02  0.30304938775E+02  0.20001561538E+02 0.  0.
        -13    1    3    3    0    0 -0.92689484063E+01  0.37534716684E+01  0.11307801079E+02  0.15095677919E+02  0.10570000000E+00 0. -1.
         13    1    3    3    0    0  0.92689484063E+01 -0.37534716684E+01  0.11458991630E+02  0.15209260856E+02  0.10570000000E+00 0.  1.
<mgrwt>
<rscale>  0 0.20001562E+02</rscale>
<asrwt>0</asrwt>
<pdfrwt beam="1">  1        4 0.40824408E-02 0.20001562E+02</pdfrwt>
<pdfrwt beam="2">  1       -4 0.57985740E-03 0.20001562E+02</pdfrwt>
<totfact> 0.12437871E+06</totfact>
</mgrwt>
</event>
<event>
 4    1  0.4710515E-007  0.2031564E+02  0.7818608E-02  0.1739123E+00
         -4   -1    0    0    0  501 -0.00000000000E+00  0.00000000000E+00  0.16012708373E+01  0.21402028629E+01  0.14200000000E+01 0.  1.
          4   -1    0    0  501    0  0.00000000000E+00 -0.00000000000E+00 -0.54605965291E+02  0.54624425355E+02  0.14200000000E+01 0. -1.
        -13    1    1    2    0    0 -0.68020037322E+01  0.74510579622E+01 -0.23214453418E+02  0.25312201396E+02  0.10570000000E+00 0.  1.
         13    1    1    2    0    0  0.68020037322E+01 -0.74510579622E+01 -0.29790241035E+02  0.31452426822E+02  0.10570000000E+00 0. -1.
<mgrwt>
<rscale>  0 0.20315644E+02</rscale>
<asrwt>0</asrwt>
<pdfrwt beam="2">  1        4 0.84437928E-02 0.20315644E+02</pdfrwt>
<pdfrwt beam="1">  1       -4 0.28922572E-03 0.20315644E+02</pdfrwt>
<totfact> 0.10894546E+06</totfact>
</mgrwt>
</event>
<event>
 5    1  0.4922354E-007  0.2000175E+02  0.7818608E-02  0.1745293E+00
         -4   -1    0    0    0  501 -0.00000000000E+00  0.00000000000E+00  0.10742091376E+02  0.10835540002E+02  0.14200000000E+01 0.  1.
          4   -1    0    0  501    0  0.00000000000E+00 -0.00000000000E+00 -0.91218642973E+01  0.92317283463E+01  0.14200000000E+01 0. -1.
       1023    2    1    2    0    0  0.00000000000E+00  0.00000000000E+00  0.16202270790E+01  0.20067268348E+02  0.20001753003E+02 0.  0.
        -13    1    3    3    0    0  0.54614836653E+01  0.83772625328E+01  0.80490666346E+00  0.10033213772E+02  0.10570000000E+00 0. -1.
         13    1    3    3    0    0 -0.54614836653E+01 -0.83772625328E+01  0.81532041551E+00  0.10034054576E+02  0.10570000000E+00 0.  1.
<mgrwt>
<rscale>  0 0.20001753E+02</rscale>
<asrwt>0</asrwt>
<pdfrwt beam="2">  1        4 0.14190032E-02 0.20001753E+02</pdfrwt>
<pdfrwt beam="1">  1       -4 0.16682689E-02 0.20001753E+02</pdfrwt>
<totfact> 0.13007725E+06</totfact>
</mgrwt>
</event>
<event>
 5    1  0.4710515E-007  0.2000383E+02  0.7818608E-02  0.1745252E+00
         -4   -1    0    0    0  501 -0.00000000000E+00  0.00000000000E+00  0.12696280952E+01  0.19048242702E+01  0.14200000000E+01 0. -1.
          4   -1    0    0  501    0  0.00000000000E+00 -0.00000000000E+00 -0.62382246901E+02  0.62398406457E+02  0.14200000000E+01 0.  1.
       1023    2    1    2    0    0  0.00000000000E+00  0.00000000000E+00 -0.61112618806E+02  0.64303230728E+02  0.20003832250E+02 0.  0.
        -13    1    3    3    0    0 -0.85254929973E+01  0.52290558228E+01 -0.30524480609E+02  0.32121365858E+02  0.10570000000E+00 0.  1.
         13    1    3    3    0    0  0.85254929973E+01 -0.52290558228E+01 -0.30588138196E+02  0.32181864869E+02  0.10570000000E+00 0. -1.
<mgrwt>
<rscale>  0 0.20003832E+02</rscale>
<asrwt>0</asrwt>
<pdfrwt beam="2">  1        4 0.96473711E-02 0.20003832E+02</pdfrwt>
<pdfrwt beam="1">  1       -4 0.24543173E-03 0.20003832E+02</pdfrwt>
<totfact> 0.10952454E+06</totfact>
</mgrwt>
</event>
<event>
 4    1  0.4710515E-007  0.2001485E+02  0.7818608E-02  0.1745033E+00
          4   -1    0    0  501    0  0.00000000000E+00  0.00000000000E+00  0.49753020591E+02  0.49773280563E+02  0.14200000000E+01 0. -1.
         -4   -1    0    0    0  501 -0.00000000000E+00 -0.00000000000E+00 -0.17391540222E+01  0.22452297684E+01  0.14200000000E+01 0.  1.
        -13    1    1    2    0    0 -0.74201123887E+01  0.67115868710E+01  0.23528620095E+02  0.25567764905E+02  0.10570000000E+00 0.  1.
         13    1    1    2    0    0  0.74201123887E+01 -0.67115868710E+01  0.24485246475E+02  0.26450745426E+02  0.10570000000E+00 0. -1.
<mgrwt>
<rscale>  0 0.20014845E+02</rscale>
<asrwt>0</asrwt>
<pdfrwt beam="1">  1        4 0.76947977E-02 0.20014845E+02</pdfrwt>
<pdfrwt beam="2">  1       -4 0.30804954E-03 0.20014845E+02</pdfrwt>
<totfact> 0.11419056E+06</totfact>
</mgrwt>
</event>
<event>
 5    1  0.4895535E-007  0.2000142E+02  0.7818608E-02  0.1745300E+00
          4   -1    0    0  501    0  0.00000000000E+00  0.00000000000E+00  0.27958435422E+02  0.27994472870E+02  0.14200000000E+01 0. -1.
         -4   -1    0    0    0  501 -0.00000000000E+00 -0.00000000000E+00 -0.33963647751E+01  0.36812625124E+01  0.14200000000E+01 0.  1.
       1023    2    1    2    0    0  0.00000000000E+00  0.00000000000E+00  0.24562070647E+02  0.31675735382E+02  0.20001422388E+02 0.  0.
        -13    1    3    3    0    0  0.30710321278E+01 -0.95169057037E+01  0.12309337930E+02  0.15859814163E+02  0.10570000000E+00 0. -1.
         13    1    3    3    0    0 -0.30710321278E+01  0.95169057037E+01  0.12252732717E+02  0.15815921220E+02  0.10570000000E+00 0.  1.
<mgrwt>
<rscale>  0 0.20001422E+02</rscale>
<asrwt>0</asrwt>
<pdfrwt beam="1">  1        4 0.43259850E-02 0.20001422E+02</pdfrwt>
<pdfrwt beam="2">  1       -4 0.54720498E-03 0.20001422E+02</pdfrwt>
<totfact> 0.12367272E+06</totfact>
</mgrwt>
</event>
<event>
 5    1  0.4710515E-007  0.2000256E+02  0.7818608E-02  0.1745277E+00
          4   -1    0    0  501    0  0.00000000000E+00  0.00000000000E+00  0.19811855064E+01  0.24375184124E+01  0.14200000000E+01 0. -1.
         -4   -1    0    0    0  501 -0.00000000000E+00 -0.00000000000E+00 -0.44804971744E+02  0.44827468063E+02  0.14200000000E+01 0.  1.
       1023    2    1    2    0    0  0.00000000000E+00  0.00000000000E+00 -0.42823786237E+02  0.47264986476E+02  0.20002556808E+02 0.  0.
        -13    1    3    3    0    0  0.74372100728E+01 -0.66850734165E+01 -0.21152001488E+02  0.23397022026E+02  0.10570000000E+00 0.  1.
         13    1    3    3    0    0 -0.74372100728E+01  0.66850734165E+01 -0.21671784749E+02  0.23867964449E+02  0.10570000000E+00 0. -1.
<mgrwt>
<rscale>  0 0.20002557E+02</rscale>
<asrwt>0</asrwt>
<pdfrwt beam="1">  1        4 0.34163082E-03 0.20002557E+02</pdfrwt>
<pdfrwt beam="2">  1       -4 0.69299050E-02 0.20002557E+02</pdfrwt>
<totfact> 0.11633801E+06</totfact>
</mgrwt>
</event>
<event>
 4    1  0.4710515E-007  0.2006235E+02  0.7818608E-02  0.1744091E+00
          4   -1    0    0  501    0  0.00000000000E+00  0.00000000000E+00  0.92523371005E+00  0.16948325635E+01  0.14200000000E+01 0. -1.
         -4   -1    0    0    0  501 -0.00000000000E+00 -0.00000000000E+00 -0.76032483882E+02  0.76045742848E+02  0.14200000000E+01 0.  1.
        -13    1    1    2    0    0 -0.52263393318E+01  0.85590403138E+01 -0.36763830998E+02  0.38107246503E+02  0.10570000000E+00 0.  1.
         13    1    1    2    0    0  0.52263393318E+01 -0.85590403138E+01 -0.38343419174E+02  0.39633328908E+02  0.10570000000E+00 0. -1.
<mgrwt>
<rscale>  0 0.20062354E+02</rscale>
<asrwt>0</asrwt>
<pdfrwt beam="1">  1        4 0.20256354E-03 0.20062354E+02</pdfrwt>
<pdfrwt beam="2">  1       -4 0.11757522E-01 0.20062354E+02</pdfrwt>
<totfact> 0.10420434E+06</totfact>
</mgrwt>
</event>
<event>
 5    1  0.4710515E-007  0.2000489E+02  0.7818608E-02  0.1745231E+00
          4   -1    0    0  501    0  0.00000000000E+00  0.00000000000E+00  0.53843235697E+02  0.53861957172E+02  0.14200000000E+01 0. -1.
         -4   -1    0    0    0  501 -0.00000000000E+00 -0.00000000000E+00 -0.15649523812E+01  0.21131672805E+01  0.14200000000E+01 0.  1.
       1023    2    1    2    0    0  0.00000000000E+00  0.00000000000E+00  0.52278283316E+02  0.55975124452E+02  0.20004890676E+02 0.  0.
        -13    1    3    3    0    0  0.51104056739E+01  0.85971256869E+01  0.26431590670E+02  0.28260696631E+02  0.10570000000E+00 0. -1.
         13    1    3    3    0    0 -0.51104056739E+01 -0.85971256869E+01  0.25846692646E+02  0.27714427821E+02  0.10570000000E+00 0.  1.
<mgrwt>
<rscale>  0 0.20004891E+02</rscale>
<asrwt>0</asrwt>
<pdfrwt beam="1">  1        4 0.83271849E-02 0.20004891E+02</pdfrwt>
<pdfrwt beam="2">  1       -4 0.28437240E-03 0.20004891E+02</pdfrwt>
<totfact> 0.11270428E+06</totfact>
</mgrwt>
</event>
<event>
 5    1  0.4710515E-007  0.2000202E+02  0.7818608E-02  0.1745288E+00
         -4   -1    0    0    0  501 -0.00000000000E+00  0.00000000000E+00  0.39482904528E+02  0.39508431379E+02  0.14200000000E+01 0. -1.
          4   -1    0    0  501    0  0.00000000000E+00 -0.00000000000E+00 -0.23057545478E+01  0.27079335359E+01  0.14200000000E+01 0.  1.
       1023    2    1    2    0    0  0.00000000000E+00  0.00000000000E+00  0.37177149981E+02  0.42216364914E+02  0.20002024545E+02 0.  0.
        -13    1    3    3    0    0  0.68693657749E+01  0.72674017003E+01  0.18428386285E+02  0.20967114899E+02  0.10570000000E+00 0. -1.
         13    1    3    3    0    0 -0.68693657749E+01 -0.72674017003E+01  0.18748763696E+02  0.21249250016E+02  0.10570000000E+00 0.  1.
<mgrwt>
<rscale>  0 0.20002025E+02</rscale>
<asrwt>0</asrwt>
<pdfrwt beam="2">  1        4 0.38763192E-03 0.20002025E+02</pdfrwt>
<pdfrwt beam="1">  1       -4 0.61071934E-02 0.20002025E+02</pdfrwt>
<totfact> 0.11858252E+06</totfact>
</mgrwt>
</event>
<event>
 5    1  0.5052272E-007  0.2000433E+02  0.7818608E-02  0.1745242E+00
         -4   -1    0    0    0  501 -0.00000000000E+00  0.00000000000E+00  0.11111860369E+02  0.11202224818E+02  0.14200000000E+01 0.  1.
          4   -1    0    0  501    0  0.00000000000E+00 -0.00000000000E+00 -0.88194402889E+01  0.89330245163E+01  0.14200000000E+01 0. -1.
       1023    2    1    2    0    0  0.00000000000E+00  0.00000000000E+00  0.22924200806E+01  0.20135249334E+02  0.20004326430E+02 0.  0.
        -13    1    3    3    0    0 -0.99976344827E+01 -0.27606851244E+00  0.12030367561E+01  0.10074094451E+02  0.10570000000E+00 0. -1.
         13    1    3    3    0    0  0.99976344827E+01  0.27606851244E+00  0.10893833245E+01  0.10061154884E+02  0.10570000000E+00 0.  1.
<mgrwt>
<rscale>  0 0.20004326E+02</rscale>
<asrwt>0</asrwt>
<pdfrwt beam="2">  1        4 0.13725253E-02 0.20004326E+02</pdfrwt>
<pdfrwt beam="1">  1       -4 0.17252053E-02 0.20004326E+02</pdfrwt>
<totfact> 0.13000269E+06</totfact>
</mgrwt>
</event>
<event>
 4    1  0.4710515E-007  0.2183869E+02  0.7818608E-02  0.1711057E+00
          4   -1    0    0  501    0  0.00000000000E+00  0.00000000000E+00  0.20325426256E+01  0.24794413735E+01  0.14200000000E+01 0.  1.
         -4   -1    0    0    0  501 -0.00000000000E+00 -0.00000000000E+00 -0.52393806881E+02  0.52413046081E+02  0.14200000000E+01 0. -1.
        -13    1    1    2    0    0  0.10996500709E+01 -0.10766005266E+02 -0.28827252845E+02  0.30791845978E+02  0.10570000000E+00 0.  1.
         13    1    1    2    0    0 -0.10996500709E+01  0.10766005266E+02 -0.21534011411E+02  0.24100641477E+02  0.10570000000E+00 0. -1.
<mgrwt>
<rscale>  0 0.21838687E+02</rscale>
<asrwt>0</asrwt>
<pdfrwt beam="1">  1        4 0.34855567E-03 0.21838687E+02</pdfrwt>
<pdfrwt beam="2">  1       -4 0.80964415E-02 0.21838687E+02</pdfrwt>
<totfact> 0.94539134E+05</totfact>
</mgrwt>
</event>
<event>
 5    1  0.4710515E-007  0.2000236E+02  0.7818608E-02  0.1745281E+00
          4   -1    0    0  501    0  0.00000000000E+00  0.00000000000E+00  0.39482979431E+02  0.39508506233E+02  0.14200000000E+01 0. -1.
         -4   -1    0    0    0  501 -0.00000000000E+00 -0.00000000000E+00 -0.23058417487E+01  0.27080077862E+01  0.14200000000E+01 0.  1.
       1023    2    1    2    0    0  0.00000000000E+00  0.00000000000E+00  0.37177137682E+02  0.42216514019E+02  0.20002362102E+02 0.  0.
        -13    1    3    3    0    0  0.79249061621E+01 -0.60998375643E+01  0.18552383888E+02  0.21076391447E+02  0.10570000000E+00 0.  1.
         13    1    3    3    0    0 -0.79249061621E+01  0.60998375643E+01  0.18624753794E+02  0.21140122572E+02  0.10570000000E+00 0. -1.
<mgrwt>
<rscale>  0 0.20002362E+02</rscale>
<asrwt>0</asrwt>
<pdfrwt beam="1">  1        4 0.61072042E-02 0.20002362E+02</pdfrwt>
<pdfrwt beam="2">  1       -4 0.38764432E-03 0.20002362E+02</pdfrwt>
<totfact> 0.11857840E+06</totfact>
</mgrwt>
</event>
<event>
 5    1  0.4710515E-007  0.2000848E+02  0.7818608E-02  0.1745160E+00
         -4   -1    0    0    0  501 -0.00000000000E+00  0.00000000000E+00  0.53011978515E+01  0.54880869764E+01  0.14200000000E+01 0.  1.
          4   -1    0    0  501    0  0.00000000000E+00 -0.00000000000E+00 -0.18337811426E+02  0.18392708553E+02  0.14200000000E+01 0. -1.
       1023    2    1    2    0    0  0.00000000000E+00  0.00000000000E+00 -0.13036613575E+02  0.23880795529E+02  0.20008475744E+02 0.  0.
        -13    1    3    3    0    0  0.26741559085E+01 -0.96388185570E+01 -0.63689007630E+01  0.11858836470E+02  0.10570000000E+00 0. -1.
         13    1    3    3    0    0 -0.26741559085E+01  0.96388185570E+01 -0.66677128120E+01  0.12021959060E+02  0.10570000000E+00 0.  1.
<mgrwt>
<rscale>  0 0.20008476E+02</rscale>
<asrwt>0</asrwt>
<pdfrwt beam="2">  1        4 0.28398007E-02 0.20008476E+02</pdfrwt>
<pdfrwt beam="1">  1       -4 0.83416785E-03 0.20008476E+02</pdfrwt>
<totfact> 0.12777454E+06</totfact>
</mgrwt>
</event>
<event>
 5    1  0.4710515E-007  0.2000260E+02  0.7818608E-02  0.1745276E+00
          4   -1    0    0  501    0  0.00000000000E+00  0.00000000000E+00  0.37696741069E+01  0.40282555620E+01  0.14200000000E+01 0. -1.
         -4   -1    0    0    0  501 -0.00000000000E+00 -0.00000000000E+00 -0.25375399720E+02  0.25415100058E+02  0.14200000000E+01 0.  1.
       1023    2    1    2    0    0  0.00000000000E+00  0.00000000000E+00 -0.21605725613E+02  0.29443355620E+02  0.20002595104E+02 0.  0.
        -13    1    3    3    0    0  0.99209032221E+01  0.12610988847E+01 -0.10788969130E+02  0.14711482540E+02  0.10570000000E+00 0. -1.
         13    1    3    3    0    0 -0.99209032221E+01 -0.12610988847E+01 -0.10816756482E+02  0.14731873080E+02  0.10570000000E+00 0.  1.
<mgrwt>
<rscale>  0 0.20002595E+02</rscale>
<asrwt>0</asrwt>
<pdfrwt beam="1">  1        4 0.60289463E-03 0.20002595E+02</pdfrwt>
<pdfrwt beam="2">  1       -4 0.39268523E-02 0.20002595E+02</pdfrwt>
<totfact> 0.12481625E+06</totfact>
</mgrwt>
</event>
<event>
 5    1  0.4710515E-007  0.2000117E+02  0.7818608E-02  0.1745305E+00
         -4   -1    0    0    0  501 -0.00000000000E+00  0.00000000000E+00  0.23701631713E+01  0.27629827105E+01  0.14200000000E+01 0. -1.
          4   -1    0    0  501    0  0.00000000000E+00 -0.00000000000E+00 -0.38560144111E+02  0.38586281421E+02  0.14200000000E+01 0.  1.
       1023    2    1    2    0    0  0.00000000000E+00  0.00000000000E+00 -0.36189980940E+02  0.41349264131E+02  0.20001173060E+02 0.  0.
        -13    1    3    3    0    0 -0.97312492060E+01  0.23028754164E+01 -0.18116884685E+02  0.20693794468E+02  0.10570000000E+00 0. -1.
         13    1    3    3    0    0  0.97312492060E+01 -0.23028754164E+01 -0.18073096255E+02  0.20655469663E+02  0.10570000000E+00 0.  1.
<mgrwt>
<rscale>  0 0.20001173E+02</rscale>
<asrwt>0</asrwt>
<pdfrwt beam="2">  1        4 0.59645569E-02 0.20001173E+02</pdfrwt>
<pdfrwt beam="1">  1       -4 0.39686797E-03 0.20001173E+02</pdfrwt>
<totfact> 0.11898856E+06</totfact>
</mgrwt>
</event>
<event>
 5    1  0.4710515E-007  0.2000366E+02  0.7818608E-02  0.1745255E+00
          4   -1    0    0  501    0  0.00000000000E+00  0.00000000000E+00  0.39250565443E+01  0.41740231043E+01  0.14200000000E+01 0. -1.
         -4   -1    0    0    0  501 -0.00000000000E+00 -0.00000000000E+00 -0.24432984962E+02  0.24474214066E+02  0.14200000000E+01 0.  1.
       1023    2    1    2    0    0  0.00000000000E+00  0.00000000000E+00 -0.20507928418E+02  0.28648237170E+02  0.20003658790E+02 0.  0.
        -13    1    3    3    0    0  0.79455567796E+01 -0.60728453161E+01 -0.10083930046E+02  0.14202399109E+02  0.10570000000E+00 0. -1.
         13    1    3    3    0    0 -0.79455567796E+01  0.60728453161E+01 -0.10423998371E+02  0.14445838062E+02  0.10570000000E+00 0.  1.
<mgrwt>
<rscale>  0 0.20003659E+02</rscale>
<asrwt>0</asrwt>
<pdfrwt beam="1">  1        4 0.62617761E-03 0.20003659E+02</pdfrwt>
<pdfrwt beam="2">  1       -4 0.37812434E-02 0.20003659E+02</pdfrwt>
<totfact> 0.12522297E+06</totfact>
</mgrwt>
</event>
<event>
 4    1  0.5052020E-007  0.2015831E+02  0.7818608E-02  0.1742198E+00
          4   -1    0    0  501    0  0.00000000000E+00  0.00000000000E+00  0.52898916954E+02  0.52917972513E+02  0.14200000000E+01 0. -1.
         -4   -1    0    0    0  501 -0.00000000000E+00 -0.00000000000E+00 -0.16358176454E+01  0.21661715927E+01  0.14200000000E+01 0.  1.
        -13    1    1    2    0    0  0.39456682838E+00 -0.99945045670E+01  0.29014230962E+02  0.30690105496E+02  0.10570000000E+00 0. -1.
         13    1    1    2    0    0 -0.39456682838E+00  0.99945045670E+01  0.22248868346E+02  0.24394038610E+02  0.10570000000E+00 0.  1.
<mgrwt>
<rscale>  0 0.20158313E+02</rscale>
<asrwt>0</asrwt>
<pdfrwt beam="1">  1        4 0.81805573E-02 0.20158313E+02</pdfrwt>
<pdfrwt beam="2">  1       -4 0.29392652E-03 0.20158313E+02</pdfrwt>
<totfact> 0.11133097E+06</totfact>
</mgrwt>
</event>
<event>
 5    1  0.4922816E-007  0.2000130E+02  0.7818608E-02  0.1745302E+00
         -4   -1    0    0    0  501 -0.00000000000E+00  0.00000000000E+00  0.99670463765E+01  0.10067691566E+02  0.14200000000E+01 0. -1.
          4   -1    0    0  501    0  0.00000000000E+00 -0.00000000000E+00 -0.98320496313E+01  0.99340626106E+01  0.14200000000E+01 0.  1.
       1023    2    1    2    0    0  0.00000000000E+00  0.00000000000E+00  0.13499674521E+00  0.20001754177E+02  0.20001298608E+02 0.  0.
        -13    1    3    3    0    0 -0.57488433841E+01  0.81824332746E+01  0.87485511898E-01  0.10001011986E+02  0.10570000000E+00 0.  1.
         13    1    3    3    0    0  0.57488433841E+01 -0.81824332746E+01  0.47511233311E-01  0.10000742190E+02  0.10570000000E+00 0. -1.
<mgrwt>
<rscale>  0 0.20001299E+02</rscale>
<asrwt>0</asrwt>
<pdfrwt beam="2">  1        4 0.15282121E-02 0.20001299E+02</pdfrwt>
<pdfrwt beam="1">  1       -4 0.15489808E-02 0.20001299E+02</pdfrwt>
<totfact> 0.13012215E+06</totfact>
</mgrwt>
</event>
<event>
 5    1  0.4710515E-007  0.2000523E+02  0.7818608E-02  0.1745224E+00
          4   -1    0    0  501    0  0.00000000000E+00  0.00000000000E+00  0.58667461307E+01  0.60361502767E+01  0.14200000000E+01 0.  1.
         -4   -1    0    0    0  501 -0.00000000000E+00 -0.00000000000E+00 -0.16611289004E+02  0.16671872192E+02  0.14200000000E+01 0. -1.
       1023    2    1    2    0    0  0.00000000000E+00  0.00000000000E+00 -0.10744542873E+02  0.22708022468E+02  0.20005226389E+02 0.  0.
        -13    1    3    3    0    0 -0.46489418799E+01 -0.88543780352E+01 -0.51808885253E+01  0.11263456370E+02  0.10570000000E+00 0. -1.
         13    1    3    3    0    0  0.46489418799E+01  0.88543780352E+01 -0.55636543481E+01  0.11444566099E+02  0.10570000000E+00 0.  1.
<mgrwt>
<rscale>  0 0.20005226E+02</rscale>
<asrwt>0</asrwt>
<pdfrwt beam="1">  1        4 0.92026767E-03 0.20005226E+02</pdfrwt>
<pdfrwt beam="2">  1       -4 0.25732742E-02 0.20005226E+02</pdfrwt>
<totfact> 0.12848477E+06</totfact>
</mgrwt>
</event>
<event>
 5    1  0.4841897E-007  0.2000137E+02  0.7818608E-02  0.1745301E+00
         -4   -1    0    0    0  501 -0.00000000000E+00  0.00000000000E+00  0.12337623542E+02  0.12419072214E+02  0.14200000000E+01 0. -1.
          4   -1    0    0  501    0  0.00000000000E+00 -0.00000000000E+00 -0.79350479891E+01  0.80611033109E+01  0.14200000000E+01 0.  1.
       1023    2    1    2    0    0  0.00000000000E+00  0.00000000000E+00  0.44025755529E+01  0.20480175525E+02  0.20001372904E+02 0.  0.
        -13    1    3    3    0    0 -0.70383381895E+01 -0.71037601881E+01  0.21698320121E+01  0.10233325790E+02  0.10570000000E+00 0.  1.
         13    1    3    3    0    0  0.70383381895E+01  0.71037601881E+01  0.22327435408E+01  0.10246849735E+02  0.10570000000E+00 0. -1.
<mgrwt>
<rscale>  0 0.20001373E+02</rscale>
<asrwt>0</asrwt>
<pdfrwt beam="2">  1        4 0.12367385E-02 0.20001373E+02</pdfrwt>
<pdfrwt beam="1">  1       -4 0.19140578E-02 0.20001373E+02</pdfrwt>
<totfact> 0.12983677E+06</totfact>
</mgrwt>
</event>
<event>
 4    1  0.4710515E-007  0.2006391E+02  0.7818608E-02  0.1744060E+00
         -4   -1    0    0    0  501 -0.00000000000E+00  0.00000000000E+00  0.25974633920E+02  0.26013419754E+02  0.14200000000E+01 0. -1.
          4   -1    0    0  501    0  0.00000000000E+00 -0.00000000000E+00 -0.37012571457E+01  0.39643037798E+01  0.14200000000E+01 0.  1.
        -13    1    1    2    0    0  0.73240037002E+01  0.68281468823E+01  0.12038562990E+02  0.15658952436E+02  0.10570000000E+00 0.  1.
         13    1    1    2    0    0 -0.73240037002E+01 -0.68281468823E+01  0.10234813785E+02  0.14318771098E+02  0.10570000000E+00 0. -1.
<mgrwt>
<rscale>  0 0.20063913E+02</rscale>
<asrwt>0</asrwt>
<pdfrwt beam="2">  1        4 0.59264207E-03 0.20063913E+02</pdfrwt>
<pdfrwt beam="1">  1       -4 0.40193153E-02 0.20063913E+02</pdfrwt>
<totfact> 0.12376372E+06</totfact>
</mgrwt>
</event>
<event>
 4    1  0.4710515E-007  0.2009210E+02  0.7818608E-02  0.1743503E+00
         -4   -1    0    0    0  501 -0.00000000000E+00  0.00000000000E+00  0.14919163786E+02  0.14986588941E+02  0.14200000000E+01 0.  1.
          4   -1    0    0  501    0  0.00000000000E+00 -0.00000000000E+00 -0.66063742330E+01  0.67572613170E+01  0.14200000000E+01 0. -1.
        -13    1    1    2    0    0 -0.86928252430E+01 -0.50255814474E+01  0.44815735775E+01  0.10996242713E+02  0.10570000000E+00 0.  1.
         13    1    1    2    0    0  0.86928252430E+01  0.50255814474E+01  0.38312159760E+01  0.10747607545E+02  0.10570000000E+00 0. -1.
<mgrwt>
<rscale>  0 0.20092102E+02</rscale>
<asrwt>0</asrwt>
<pdfrwt beam="2">  1        4 0.10331585E-02 0.20092102E+02</pdfrwt>
<pdfrwt beam="1">  1       -4 0.23120492E-02 0.20092102E+02</pdfrwt>
<totfact> 0.12790623E+06</totfact>
</mgrwt>
</event>
<event>
 5    1  0.4710515E-007  0.2000909E+02  0.7818608E-02  0.1745147E+00
         -4   -1    0    0    0  501 -0.00000000000E+00  0.00000000000E+00  0.85627986083E+00  0.16581963696E+01  0.14200000000E+01 0.  1.
          4   -1    0    0  501    0  0.00000000000E+00 -0.00000000000E+00 -0.78801382056E+02  0.78814175209E+02  0.14200000000E+01 0. -1.
       1023    2    1    2    0    0  0.00000000000E+00  0.00000000000E+00 -0.77945102195E+02  0.80472371579E+02  0.20009088718E+02 0.  0.
        -13    1    3    3    0    0  0.88778738508E+01  0.46053365122E+01 -0.38038258339E+02  0.39331234896E+02  0.10570000000E+00 0. -1.
         13    1    3    3    0    0 -0.88778738508E+01 -0.46053365122E+01 -0.39906843856E+02  0.41141136682E+02  0.10570000000E+00 0.  1.
<mgrwt>
<rscale>  0 0.20009089E+02</rscale>
<asrwt>0</asrwt>
<pdfrwt beam="2">  1        4 0.12185956E-01 0.20009089E+02</pdfrwt>
<pdfrwt beam="1">  1       -4 0.19440540E-03 0.20009089E+02</pdfrwt>
<totfact> 0.10386296E+06</totfact>
</mgrwt>
</event>
<event>
 4    1  0.4710515E-007  0.2005275E+02  0.7818608E-02  0.1744281E+00
         -4   -1    0    0    0  501 -0.00000000000E+00  0.00000000000E+00  0.51949629515E+01  0.53855399049E+01  0.14200000000E+01 0. -1.
          4   -1    0    0  501    0  0.00000000000E+00 -0.00000000000E+00 -0.18784675921E+02  0.18838270872E+02  0.14200000000E+01 0.  1.
        -13    1    1    2    0    0  0.84910345368E+01  0.53167502827E+01 -0.72650542016E+01  0.12375689319E+02  0.10570000000E+00 0. -1.
         13    1    1    2    0    0 -0.84910345368E+01 -0.53167502827E+01 -0.63246587681E+01  0.11848121459E+02  0.10570000000E+00 0.  1.
<mgrwt>
<rscale>  0 0.20052748E+02</rscale>
<asrwt>0</asrwt>
<pdfrwt beam="2">  1        4 0.29087326E-02 0.20052748E+02</pdfrwt>
<pdfrwt beam="1">  1       -4 0.81800753E-03 0.20052748E+02</pdfrwt>
<totfact> 0.12700795E+06</totfact>
</mgrwt>
</event>
<event>
 5    1  0.4710515E-007  0.2000264E+02  0.7818608E-02  0.1745276E+00
         -4   -1    0    0    0  501 -0.00000000000E+00  0.00000000000E+00  0.75514838375E+00  0.16083062773E+01  0.14200000000E+01 0.  1.
          4   -1    0    0  501    0  0.00000000000E+00 -0.00000000000E+00 -0.83782892996E+02  0.83794925615E+02  0.14200000000E+01 0. -1.
       1023    2    1    2    0    0  0.00000000000E+00  0.00000000000E+00 -0.83027744612E+02  0.85403231892E+02  0.20002640881E+02 0.  0.
        -13    1    3    3    0    0  0.15995080013E+01  0.98713741258E+01 -0.41031103996E+02  0.42232275816E+02  0.10570000000E+00 0. -1.
         13    1    3    3    0    0 -0.15995080013E+01 -0.98713741258E+01 -0.41996640616E+02  0.43170956076E+02  0.10570000000E+00 0.  1.
<mgrwt>
<rscale>  0 0.20002641E+02</rscale>
<asrwt>0</asrwt>
<pdfrwt beam="2">  1        4 0.12956224E-01 0.20002641E+02</pdfrwt>
<pdfrwt beam="1">  1       -4 0.18272986E-03 0.20002641E+02</pdfrwt>
<totfact> 0.10235298E+06</totfact>
</mgrwt>
</event>
<event>
 4    1  0.4710515E-007  0.2001484E+02  0.7818608E-02  0.1745033E+00
          4   -1    0    0  501    0  0.00000000000E+00  0.00000000000E+00  0.20955089398E+01  0.25313154123E+01  0.14200000000E+01 0. -1.
         -4   -1    0    0    0  501 -0.00000000000E+00 -0.00000000000E+00 -0.42841682674E+02  0.42865209370E+02  0.14200000000E+01 0.  1.
        -13    1    1    2    0    0  0.58094642412E+01  0.81442039164E+01 -0.19820560475E+02  0.22202335963E+02  0.10570000000E+00 0. -1.
         13    1    1    2    0    0 -0.58094642412E+01 -0.81442039164E+01 -0.20925613259E+02  0.23194188819E+02  0.10570000000E+00 0.  1.
<mgrwt>
<rscale>  0 0.20014839E+02</rscale>
<asrwt>0</asrwt>
<pdfrwt beam="1">  1        4 0.35771934E-03 0.20014839E+02</pdfrwt>
<pdfrwt beam="2">  1       -4 0.66263609E-02 0.20014839E+02</pdfrwt>
<totfact> 0.11700762E+06</totfact>
</mgrwt>
</event>
<event>
 5    1  0.4710515E-007  0.2000532E+02  0.7818608E-02  0.1745222E+00
         -4   -1    0    0    0  501 -0.00000000000E+00  0.00000000000E+00  0.88625868245E+01  0.89756250602E+01  0.14200000000E+01 0. -1.
          4   -1    0    0  501    0  0.00000000000E+00 -0.00000000000E+00 -0.11059127966E+02  0.11149919792E+02  0.14200000000E+01 0.  1.
       1023    2    1    2    0    0  0.00000000000E+00  0.00000000000E+00 -0.21965411413E+01  0.20125544852E+02  0.20005318358E+02 0.  0.
        -13    1    3    3    0    0 -0.60382869020E+01  0.79726308780E+01 -0.12342358056E+01  0.10077611936E+02  0.10570000000E+00 0.  1.
         13    1    3    3    0    0  0.60382869020E+01 -0.79726308780E+01 -0.96230533572E+00  0.10047932916E+02  0.10570000000E+00 0. -1.
<mgrwt>
<rscale>  0 0.20005318E+02</rscale>
<asrwt>0</asrwt>
<pdfrwt beam="2">  1        4 0.17170835E-02 0.20005318E+02</pdfrwt>
<pdfrwt beam="1">  1       -4 0.13791541E-02 0.20005318E+02</pdfrwt>
<totfact> 0.12999533E+06</totfact>
</mgrwt>
</event>
<event>
 5    1  0.4710515E-007  0.2000172E+02  0.7818608E-02  0.1745294E+00
          4   -1    0    0  501    0  0.00000000000E+00  0.00000000000E+00  0.34361155011E+01  0.37179684959E+01  0.14200000000E+01 0. -1.
         -4   -1    0    0    0  501 -0.00000000000E+00 -0.00000000000E+00 -0.27660088195E+02  0.27696513841E+02  0.14200000000E+01 0.  1.
       1023    2    1    2    0    0  0.00000000000E+00  0.00000000000E+00 -0.24223972694E+02  0.31414482337E+02  0.20001721112E+02 0.  0.
        -13    1    3    3    0    0  0.10723868197E+01  0.99425794109E+01 -0.12165027976E+02  0.15748142017E+02  0.10570000000E+00 0. -1.
         13    1    3    3    0    0 -0.10723868197E+01 -0.99425794109E+01 -0.12058944718E+02  0.15666340320E+02  0.10570000000E+00 0.  1.
<mgrwt>
<rscale>  0 0.20001721E+02</rscale>
<asrwt>0</asrwt>
<pdfrwt beam="1">  1        4 0.55311614E-03 0.20001721E+02</pdfrwt>
<pdfrwt beam="2">  1       -4 0.42798810E-02 0.20001721E+02</pdfrwt>
<totfact> 0.12380312E+06</totfact>
</mgrwt>
</event>
<event>
 5    1  0.4710515E-007  0.2000395E+02  0.7818608E-02  0.1745250E+00
         -4   -1    0    0    0  501 -0.00000000000E+00  0.00000000000E+00  0.38219416370E+02  0.38245786535E+02  0.14200000000E+01 0.  1.
          4   -1    0    0  501    0  0.00000000000E+00 -0.00000000000E+00 -0.23955438503E+01  0.27847855104E+01  0.14200000000E+01 0. -1.
       1023    2    1    2    0    0  0.00000000000E+00  0.00000000000E+00  0.35823872520E+02  0.41030572045E+02  0.20003949611E+02 0.  0.
        -13    1    3    3    0    0 -0.21094160270E+00 -0.99991723580E+01  0.17871778363E+02  0.20480224085E+02  0.10570000000E+00 0. -1.
         13    1    3    3    0    0  0.21094160270E+00  0.99991723580E+01  0.17952094157E+02  0.20550347961E+02  0.10570000000E+00 0.  1.
<mgrwt>
<rscale>  0 0.20003950E+02</rscale>
<asrwt>0</asrwt>
<pdfrwt beam="2">  1        4 0.40051540E-03 0.20003950E+02</pdfrwt>
<pdfrwt beam="1">  1       -4 0.59118796E-02 0.20003950E+02</pdfrwt>
<totfact> 0.11910151E+06</totfact>
</mgrwt>
</event>
<event>
 5    1  0.4710515E-007  0.2000171E+02  0.7818608E-02  0.1745294E+00
         -4   -1    0    0    0  501 -0.00000000000E+00  0.00000000000E+00  0.33530923539E+01  0.36413772578E+01  0.14200000000E+01 0.  1.
          4   -1    0    0  501    0  0.00000000000E+00 -0.00000000000E+00 -0.28292072314E+02  0.28327685324E+02  0.14200000000E+01 0. -1.
       1023    2    1    2    0    0  0.00000000000E+00  0.00000000000E+00 -0.24938979960E+02  0.31969062582E+02  0.20001705950E+02 0.  0.
        -13    1    3    3    0    0  0.74495136503E+01  0.66712467465E+01 -0.12355336580E+02  0.15895480530E+02  0.10570000000E+00 0.  1.
         13    1    3    3    0    0 -0.74495136503E+01 -0.66712467465E+01 -0.12583643380E+02  0.16073582052E+02  0.10570000000E+00 0. -1.
<mgrwt>
<rscale>  0 0.20001706E+02</rscale>
<asrwt>0</asrwt>
<pdfrwt beam="2">  1        4 0.43775416E-02 0.20001706E+02</pdfrwt>
<pdfrwt beam="1">  1       -4 0.54077560E-03 0.20001706E+02</pdfrwt>
<totfact> 0.12351905E+06</totfact>
</mgrwt>
</event>
<event>
 5    1  0.4710515E-007  0.2000596E+02  0.7818608E-02  0.1745210E+00
         -4   -1    0    0    0  501 -0.00000000000E+00  0.00000000000E+00  0.78638233277E+01  0.79910022731E+01  0.14200000000E+01 0.  1.
          4   -1    0    0  501    0  0.00000000000E+00 -0.00000000000E+00 -0.12454123975E+02  0.12534815674E+02  0.14200000000E+01 0. -1.
       1023    2    1    2    0    0  0.00000000000E+00  0.00000000000E+00 -0.45903006470E+01  0.20525817947E+02  0.20005957672E+02 0.  0.
        -13    1    3    3    0    0  0.68317633291E+00  0.99776564515E+01 -0.21233018223E+01  0.10224477556E+02  0.10570000000E+00 0.  1.
         13    1    3    3    0    0 -0.68317633291E+00 -0.99776564515E+01 -0.24669988247E+01  0.10301340391E+02  0.10570000000E+00 0. -1.
<mgrwt>
<rscale>  0 0.20005958E+02</rscale>
<asrwt>0</asrwt>
<pdfrwt beam="2">  1        4 0.19320091E-02 0.20005958E+02</pdfrwt>
<pdfrwt beam="1">  1       -4 0.12258090E-02 0.20005958E+02</pdfrwt>
<totfact> 0.12974904E+06</totfact>
</mgrwt>
</event>
<event>
 5    1  0.4710515E-007  0.2000439E+02  0.7818608E-02  0.1745241E+00
         -4   -1    0    0    0  501 -0.00000000000E+00  0.00000000000E+00  0.27698415424E+02  0.27734790733E+02  0.14200000000E+01 0. -1.
          4   -1    0    0  501    0  0.00000000000E+00 -0.00000000000E+00 -0.34319789499E+01  0.37141458658E+01  0.14200000000E+01 0.  1.
       1023    2    1    2    0    0  0.00000000000E+00  0.00000000000E+00  0.24266436474E+02  0.31448936599E+02  0.20004391369E+02 0.  0.
        -13    1    3    3    0    0  0.73504259278E+01  0.67826072149E+01  0.12156750967E+02  0.15742626481E+02  0.10570000000E+00 0.  1.
         13    1    3    3    0    0 -0.73504259278E+01 -0.67826072149E+01  0.12109685507E+02  0.15706310118E+02  0.10570000000E+00 0. -1.
<mgrwt>
<rscale>  0 0.20004391E+02</rscale>
<asrwt>0</asrwt>
<pdfrwt beam="2">  1        4 0.55250002E-03 0.20004391E+02</pdfrwt>
<pdfrwt beam="1">  1       -4 0.42857978E-02 0.20004391E+02</pdfrwt>
<totfact> 0.12375185E+06</totfact>
</mgrwt>
</event>
<event>
 4    1  0.4710515E-007  0.2001647E+02  0.7818608E-02  0.1745001E+00
         -4   -1    0    0    0  501 -0.00000000000E+00  0.00000000000E+00  0.64141465822E+02  0.64157182277E+02  0.14200000000E+01 0.  1.
          4   -1    0    0  501    0  0.00000000000E+00 -0.00000000000E+00 -0.12195400415E+01  0.18718113989E+01  0.14200000000E+01 0. -1.
        -13    1    1    2    0    0  0.24248128184E+00 -0.10004552060E+02  0.31258046156E+02  0.32821128578E+02  0.10570000000E+00 0. -1.
         13    1    1    2    0    0 -0.24248128184E+00  0.10004552060E+02  0.31663879624E+02  0.33207865099E+02  0.10570000000E+00 0.  1.
<mgrwt>
<rscale>  0 0.20016475E+02</rscale>
<asrwt>0</asrwt>
<pdfrwt beam="2">  1        4 0.23900519E-03 0.20016475E+02</pdfrwt>
<pdfrwt beam="1">  1       -4 0.99193028E-02 0.20016475E+02</pdfrwt>
<totfact> 0.10875274E+06</totfact>
</mgrwt>
</event>
<event>
 4    1  0.4710515E-007  0.2005749E+02  0.7818608E-02  0.1744187E+00
          4   -1    0    0  501    0  0.00000000000E+00  0.00000000000E+00  0.50021696080E+01  0.51998173801E+01  0.14200000000E+01 0. -1.
         -4   -1    0    0    0  501 -0.00000000000E+00 -0.00000000000E+00 -0.19492907534E+02  0.19544560475E+02  0.14200000000E+01 0.  1.
        -13    1    1    2    0    0 -0.87948064688E+01  0.47952309852E+01 -0.78261838676E+01  0.12712324235E+02  0.10570000000E+00 0.  1.
         13    1    1    2    0    0  0.87948064688E+01 -0.47952309852E+01 -0.66645540588E+01  0.12032053620E+02  0.10570000000E+00 0. -1.
<mgrwt>
<rscale>  0 0.20057486E+02</rscale>
<asrwt>0</asrwt>
<pdfrwt beam="1">  1        4 0.78874154E-03 0.20057486E+02</pdfrwt>
<pdfrwt beam="2">  1       -4 0.30180858E-02 0.20057486E+02</pdfrwt>
<totfact> 0.12665608E+06</totfact>
</mgrwt>
</event>
<event>
 5    1  0.4710515E-007  0.2000248E+02  0.7818608E-02  0.1745279E+00
         -4   -1    0    0    0  501 -0.00000000000E+00  0.00000000000E+00  0.28833386540E+02  0.28868331773E+02  0.14200000000E+01 0. -1.
          4   -1    0    0  501    0  0.00000000000E+00 -0.00000000000E+00 -0.32850412934E+01  0.35788121352E+01  0.14200000000E+01 0.  1.
       1023    2    1    2    0    0  0.00000000000E+00  0.00000000000E+00  0.25548345247E+02  0.32447143908E+02  0.20002479920E+02 0.  0.
        -13    1    3    3    0    0  0.86802611445E+01  0.49659519108E+01  0.12648350039E+02  0.16124501330E+02  0.10570000000E+00 0.  1.
         13    1    3    3    0    0 -0.86802611445E+01 -0.49659519108E+01  0.12899995207E+02  0.16322642579E+02  0.10570000000E+00 0. -1.
<mgrwt>
<rscale>  0 0.20002480E+02</rscale>
<asrwt>0</asrwt>
<pdfrwt beam="2">  1        4 0.53067681E-03 0.20002480E+02</pdfrwt>
<pdfrwt beam="1">  1       -4 0.44611915E-02 0.20002480E+02</pdfrwt>
<totfact> 0.12326586E+06</totfact>
</mgrwt>
</event>
<event>
 4    1  0.4710515E-007  0.2023566E+02  0.7818608E-02  0.1740682E+00
         -4   -1    0    0    0  501 -0.00000000000E+00  0.00000000000E+00  0.15005892604E+02  0.15072929803E+02  0.14200000000E+01 0.  1.
          4   -1    0    0  501    0  0.00000000000E+00 -0.00000000000E+00 -0.66648114687E+01  0.68144047365E+01  0.14200000000E+01 0. -1.
        -13    1    1    2    0    0  0.77508708736E+01  0.64864716978E+01  0.36761104838E+01  0.10755244077E+02  0.10570000000E+00 0.  1.
         13    1    1    2    0    0 -0.77508708736E+01 -0.64864716978E+01  0.46649706515E+01  0.11132090462E+02  0.10570000000E+00 0. -1.
<mgrwt>
<rscale>  0 0.20235656E+02</rscale>
<asrwt>0</asrwt>
<pdfrwt beam="2">  1        4 0.10420195E-02 0.20235656E+02</pdfrwt>
<pdfrwt beam="1">  1       -4 0.23252627E-02 0.20235656E+02</pdfrwt>
<totfact> 0.12597696E+06</totfact>
</mgrwt>
</event>
<event>
 4    1  0.4710515E-007  0.2009513E+02  0.7818608E-02  0.1743443E+00
          4   -1    0    0  501    0  0.00000000000E+00  0.00000000000E+00  0.67656873068E+00  0.15729415906E+01  0.14200000000E+01 0.  1.
         -4   -1    0    0    0  501 -0.00000000000E+00 -0.00000000000E+00 -0.88851714974E+02  0.88863061245E+02  0.14200000000E+01 0. -1.
        -13    1    1    2    0    0  0.90449643046E+00 -0.99652917570E+01 -0.40019200783E+02  0.41251336432E+02  0.10570000000E+00 0.  1.
         13    1    1    2    0    0 -0.90449643046E+00  0.99652917570E+01 -0.48155945460E+02  0.49184666404E+02  0.10570000000E+00 0. -1.
<mgrwt>
<rscale>  0 0.20095129E+02</rscale>
<asrwt>0</asrwt>
<pdfrwt beam="1">  1        4 0.17391212E-03 0.20095129E+02</pdfrwt>
<pdfrwt beam="2">  1       -4 0.13739314E-01 0.20095129E+02</pdfrwt>
<totfact> 0.99872352E+05</totfact>
</mgrwt>
</event>
<event>
 5    1  0.4710515E-007  0.2000289E+02  0.7818608E-02  0.1745271E+00
         -4   -1    0    0    0  501 -0.00000000000E+00  0.00000000000E+00  0.44178100707E+02  0.44200916078E+02  0.14200000000E+01 0. -1.
          4   -1    0    0  501    0  0.00000000000E+00 -0.00000000000E+00 -0.20157941351E+01  0.24657303167E+01  0.14200000000E+01 0.  1.
       1023    2    1    2    0    0  0.00000000000E+00  0.00000000000E+00  0.42162306572E+02  0.46666646395E+02  0.20002894546E+02 0.  0.
        -13    1    3    3    0    0 -0.56408794015E+01  0.82577374713E+01  0.20872138640E+02  0.23144482981E+02  0.10570000000E+00 0.  1.
         13    1    3    3    0    0  0.56408794015E+01 -0.82577374713E+01  0.21290167932E+02  0.23522163413E+02  0.10570000000E+00 0. -1.
<mgrwt>
<rscale>  0 0.20002895E+02</rscale>
<asrwt>0</asrwt>
<pdfrwt beam="2">  1        4 0.34648767E-03 0.20002895E+02</pdfrwt>
<pdfrwt beam="1">  1       -4 0.68329966E-02 0.20002895E+02</pdfrwt>
<totfact> 0.11659328E+06</totfact>
</mgrwt>
</event>
<event>
 5    1  0.4710515E-007  0.2000886E+02  0.7818608E-02  0.1745152E+00
          4   -1    0    0  501    0  0.00000000000E+00  0.00000000000E+00  0.56834580546E+01  0.58581648541E+01  0.14200000000E+01 0. -1.
         -4   -1    0    0    0  501 -0.00000000000E+00 -0.00000000000E+00 -0.17139426024E+02  0.17198148866E+02  0.14200000000E+01 0.  1.
       1023    2    1    2    0    0  0.00000000000E+00  0.00000000000E+00 -0.11455967969E+02  0.23056313720E+02  0.20008858045E+02 0.  0.
        -13    1    3    3    0    0  0.58186689753E+01  0.81342855831E+01 -0.59955496354E+01  0.11661101942E+02  0.10570000000E+00 0.  1.
         13    1    3    3    0    0 -0.58186689753E+01 -0.81342855831E+01 -0.54604183336E+01  0.11395211778E+02  0.10570000000E+00 0. -1.
<mgrwt>
<rscale>  0 0.20008858E+02</rscale>
<asrwt>0</asrwt>
<pdfrwt beam="1">  1        4 0.89233429E-03 0.20008858E+02</pdfrwt>
<pdfrwt beam="2">  1       -4 0.26547909E-02 0.20008858E+02</pdfrwt>
<totfact> 0.12823775E+06</totfact>
</mgrwt>
</event>
<event>
 5    1  0.4710515E-007  0.2000459E+02  0.7818608E-02  0.1745237E+00
          4   -1    0    0  501    0  0.00000000000E+00  0.00000000000E+00  0.15402193959E+01  0.20949166541E+01  0.14200000000E+01 0. -1.
         -4   -1    0    0    0  501 -0.00000000000E+00 -0.00000000000E+00 -0.54478470265E+02  0.54496973516E+02  0.14200000000E+01 0.  1.
       1023    2    1    2    0    0  0.00000000000E+00  0.00000000000E+00 -0.52938250869E+02  0.56591890170E+02  0.20004590172E+02 0.  0.
        -13    1    3    3    0    0 -0.98792021737E+01  0.15528866300E+01 -0.26025043873E+02  0.27880533954E+02  0.10570000000E+00 0.  1.
         13    1    3    3    0    0  0.98792021737E+01 -0.15528866300E+01 -0.26913206996E+02  0.28711356216E+02  0.10570000000E+00 0. -1.
<mgrwt>
<rscale>  0 0.20004590E+02</rscale>
<asrwt>0</asrwt>
<pdfrwt beam="1">  1        4 0.28104922E-03 0.20004590E+02</pdfrwt>
<pdfrwt beam="2">  1       -4 0.84253942E-02 0.20004590E+02</pdfrwt>
<totfact> 0.11246337E+06</totfact>
</mgrwt>
</event>
<event>
 5    1  0.4710515E-007  0.2000665E+02  0.7818608E-02  0.1745196E+00
          4   -1    0    0  501    0  0.00000000000E+00  0.00000000000E+00  0.15622250314E+02  0.15686653718E+02  0.14200000000E+01 0. -1.
         -4   -1    0    0    0  501 -0.00000000000E+00 -0.00000000000E+00 -0.62479736360E+01  0.64073063417E+01  0.14200000000E+01 0.  1.
       1023    2    1    2    0    0  0.00000000000E+00  0.00000000000E+00  0.93742766779E+01  0.22093960060E+02  0.20006649092E+02 0.  0.
        -13    1    3    3    0    0 -0.59297361069E+01  0.80534240516E+01  0.44778385625E+01  0.10958175940E+02  0.10570000000E+00 0. -1.
         13    1    3    3    0    0  0.59297361069E+01 -0.80534240516E+01  0.48964381154E+01  0.11135784120E+02  0.10570000000E+00 0.  1.
<mgrwt>
<rscale>  0 0.20006649E+02</rscale>
<asrwt>0</asrwt>
<pdfrwt beam="1">  1        4 0.24206336E-02 0.20006649E+02</pdfrwt>
<pdfrwt beam="2">  1       -4 0.97843718E-03 0.20006649E+02</pdfrwt>
<totfact> 0.12882038E+06</totfact>
</mgrwt>
</event>
<event>
 5    1  0.4710515E-007  0.2000197E+02  0.7818608E-02  0.1745289E+00
         -4   -1    0    0    0  501 -0.00000000000E+00  0.00000000000E+00  0.15780906568E+02  0.15844665099E+02  0.14200000000E+01 0.  1.
          4   -1    0    0  501    0  0.00000000000E+00 -0.00000000000E+00 -0.61808111009E+01  0.63418314283E+01  0.14200000000E+01 0. -1.
       1023    2    1    2    0    0  0.00000000000E+00  0.00000000000E+00  0.96000954669E+01  0.22186496527E+02  0.20001969783E+02 0.  0.
        -13    1    3    3    0    0 -0.69485716371E+01  0.71919871063E+01  0.48384716552E+01  0.11109874292E+02  0.10570000000E+00 0. -1.
         13    1    3    3    0    0  0.69485716371E+01 -0.71919871063E+01  0.47616238117E+01  0.11076622235E+02  0.10570000000E+00 0.  1.
<mgrwt>
<rscale>  0 0.20001970E+02</rscale>
<asrwt>0</asrwt>
<pdfrwt beam="2">  1        4 0.96818471E-03 0.20001970E+02</pdfrwt>
<pdfrwt beam="1">  1       -4 0.24451224E-02 0.20001970E+02</pdfrwt>
<totfact> 0.12882826E+06</totfact>
</mgrwt>
</event>
<event>
 5    1  0.4710515E-007  0.2001232E+02  0.7818608E-02  0.1745083E+00
          4   -1    0    0  501    0  0.00000000000E+00  0.00000000000E+00  0.65642557379E+02  0.65657914521E+02  0.14200000000E+01 0.  1.
         -4   -1    0    0    0  501 -0.00000000000E+00 -0.00000000000E+00 -0.11757991327E+01  0.18436115644E+01  0.14200000000E+01 0. -1.
       1023    2    1    2    0    0  0.00000000000E+00  0.00000000000E+00  0.64466758246E+02  0.67501526085E+02  0.20012323830E+02 0.  0.
        -13    1    3    3    0    0  0.21170810166E+01 -0.97761142345E+01  0.33043335755E+02  0.34524305233E+02  0.10570000000E+00 0. -1.
         13    1    3    3    0    0 -0.21170810166E+01  0.97761142345E+01  0.31423422491E+02  0.32977220852E+02  0.10570000000E+00 0.  1.
<mgrwt>
<rscale>  0 0.20012324E+02</rscale>
<asrwt>0</asrwt>
<pdfrwt beam="1">  1        4 0.10151408E-01 0.20012324E+02</pdfrwt>
<pdfrwt beam="2">  1       -4 0.23344364E-03 0.20012324E+02</pdfrwt>
<totfact> 0.10826502E+06</totfact>
</mgrwt>
</event>
<event>
 5    1  0.4710515E-007  0.2000536E+02  0.7818608E-02  0.1745222E+00
         -4   -1    0    0    0  501 -0.00000000000E+00  0.00000000000E+00  0.15333291341E+02  0.15398903316E+02  0.14200000000E+01 0.  1.
          4   -1    0    0  501    0  0.00000000000E+00 -0.00000000000E+00 -0.63673331856E+01  0.65237513669E+01  0.14200000000E+01 0. -1.
       1023    2    1    2    0    0  0.00000000000E+00  0.00000000000E+00  0.89659581553E+01  0.21922654683E+02  0.20005358850E+02 0.  0.
        -13    1    3    3    0    0 -0.37684950223E+01  0.92644159282E+01  0.46003207069E+01  0.11009317886E+02  0.10570000000E+00 0. -1.
         13    1    3    3    0    0  0.37684950223E+01 -0.92644159282E+01  0.43656374483E+01  0.10913336797E+02  0.10570000000E+00 0.  1.
<mgrwt>
<rscale>  0 0.20005359E+02</rscale>
<asrwt>0</asrwt>
<pdfrwt beam="2">  1        4 0.99666897E-03 0.20005359E+02</pdfrwt>
<pdfrwt beam="1">  1       -4 0.23760471E-02 0.20005359E+02</pdfrwt>
<totfact> 0.12893669E+06</totfact>
</mgrwt>
</event>
<event>
 4    1  0.4710515E-007  0.2041269E+02  0.7818608E-02  0.1737244E+00
         -4   -1    0    0    0  501 -0.00000000000E+00  0.00000000000E+00  0.62332104211E+01  0.63929110860E+01  0.14200000000E+01 0. -1.
          4   -1    0    0  501    0  0.00000000000E+00 -0.00000000000E+00 -0.16309694181E+02  0.16371393474E+02  0.14200000000E+01 0.  1.
        -13    1    1    2    0    0  0.10089081123E+02  0.14338170417E+01 -0.56621058205E+01  0.11658301936E+02  0.10570000000E+00 0.  1.
         13    1    1    2    0    0 -0.10089081123E+02 -0.14338170417E+01 -0.44143779393E+01  0.11106002624E+02  0.10570000000E+00 0. -1.
<mgrwt>
<rscale>  0 0.20412693E+02</rscale>
<asrwt>0</asrwt>
<pdfrwt beam="2">  1        4 0.25262145E-02 0.20412693E+02</pdfrwt>
<pdfrwt beam="1">  1       -4 0.97598622E-03 0.20412693E+02</pdfrwt>
<totfact> 0.12325362E+06</totfact>
</mgrwt>
</event>
<event>
 5    1  0.4710515E-007  0.2000430E+02  0.7818608E-02  0.1745243E+00
         -4   -1    0    0    0  501 -0.00000000000E+00  0.00000000000E+00  0.31278528639E+01  0.34350929446E+01  0.14200000000E+01 0. -1.
          4   -1    0    0  501    0  0.00000000000E+00 -0.00000000000E+00 -0.30162492668E+02  0.30195899787E+02  0.14200000000E+01 0.  1.
       1023    2    1    2    0    0  0.00000000000E+00  0.00000000000E+00 -0.27034639804E+02  0.33630992732E+02  0.20004297608E+02 0.  0.
        -13    1    3    3    0    0  0.98342864500E+01  0.18216882397E+01 -0.13531403984E+02  0.16826818009E+02  0.10570000000E+00 0. -1.
         13    1    3    3    0    0 -0.98342864500E+01 -0.18216882397E+01 -0.13503235820E+02  0.16804174723E+02  0.10570000000E+00 0.  1.
<mgrwt>
<rscale>  0 0.20004298E+02</rscale>
<asrwt>0</asrwt>
<pdfrwt beam="2">  1        4 0.46665869E-02 0.20004298E+02</pdfrwt>
<pdfrwt beam="1">  1       -4 0.50741178E-03 0.20004298E+02</pdfrwt>
<totfact> 0.12264636E+06</totfact>
</mgrwt>
</event>
<event>
 5    1  0.4710515E-007  0.2000594E+02  0.7818608E-02  0.1745210E+00
          4   -1    0    0  501    0  0.00000000000E+00  0.00000000000E+00  0.28038777942E+01  0.31429493608E+01  0.14200000000E+01 0.  1.
         -4   -1    0    0    0  501 -0.00000000000E+00 -0.00000000000E+00 -0.33296276386E+02  0.33326542292E+02  0.14200000000E+01 0. -1.
       1023    2    1    2    0    0  0.00000000000E+00  0.00000000000E+00 -0.30492398592E+02  0.36469491653E+02  0.20005935358E+02 0.  0.
        -13    1    3    3    0    0 -0.44568739788E+01 -0.89544780927E+01 -0.15169153079E+02  0.18170326943E+02  0.10570000000E+00 0. -1.
         13    1    3    3    0    0  0.44568739788E+01  0.89544780927E+01 -0.15323245512E+02  0.18299164710E+02  0.10570000000E+00 0.  1.
<mgrwt>
<rscale>  0 0.20005935E+02</rscale>
<asrwt>0</asrwt>
<pdfrwt beam="1">  1        4 0.45977641E-03 0.20005935E+02</pdfrwt>
<pdfrwt beam="2">  1       -4 0.51509144E-02 0.20005935E+02</pdfrwt>
<totfact> 0.12122918E+06</totfact>
</mgrwt>
</event>
<event>
 5    1  0.4710515E-007  0.2000437E+02  0.7818608E-02  0.1745241E+00
         -4   -1    0    0    0  501 -0.00000000000E+00  0.00000000000E+00  0.41243927638E+00  0.14786839272E+01  0.14200000000E+01 0.  1.
          4   -1    0    0  501    0  0.00000000000E+00 -0.00000000000E+00 -0.10472971175E+03  0.10473933799E+03  0.14200000000E+01 0. -1.
       1023    2    1    2    0    0  0.00000000000E+00  0.00000000000E+00 -0.10431727247E+03  0.10621802192E+03  0.20004370631E+02 0.  0.
        -13    1    3    3    0    0  0.95192839070E+01 -0.30636074027E+01 -0.51237703516E+02  0.52204558139E+02  0.10570000000E+00 0.  1.
         13    1    3    3    0    0 -0.95192839070E+01  0.30636074027E+01 -0.53079568953E+02  0.54013463777E+02  0.10570000000E+00 0. -1.
<mgrwt>
<rscale>  0 0.20004371E+02</rscale>
<asrwt>0</asrwt>
<pdfrwt beam="2">  1        4 0.16195013E-01 0.20004371E+02</pdfrwt>
<pdfrwt beam="1">  1       -4 0.14621158E-03 0.20004371E+02</pdfrwt>
<totfact> 0.96234648E+05</totfact>
</mgrwt>
</event>
<event>
 4    1  0.4710515E-007  0.2002057E+02  0.7818608E-02  0.1744919E+00
          4   -1    0    0  501    0  0.00000000000E+00  0.00000000000E+00  0.26806934913E+02  0.26844518238E+02  0.14200000000E+01 0. -1.
         -4   -1    0    0    0  501 -0.00000000000E+00 -0.00000000000E+00 -0.35614316881E+01  0.38340834197E+01  0.14200000000E+01 0.  1.
        -13    1    1    2    0    0 -0.77040273364E+01 -0.63903057802E+01  0.11747025614E+02  0.15433464564E+02  0.10570000000E+00 0.  1.
         13    1    1    2    0    0  0.77040273364E+01  0.63903057802E+01  0.11498477611E+02  0.15245137094E+02  0.10570000000E+00 0. -1.
<mgrwt>
<rscale>  0 0.20020569E+02</rscale>
<asrwt>0</asrwt>
<pdfrwt beam="1">  1        4 0.41480079E-02 0.20020569E+02</pdfrwt>
<pdfrwt beam="2">  1       -4 0.57177682E-03 0.20020569E+02</pdfrwt>
<totfact> 0.12394536E+06</totfact>
</mgrwt>
</event>
<event>
 5    1  0.4710515E-007  0.2000260E+02  0.7818608E-02  0.1745276E+00
         -4   -1    0    0    0  501 -0.00000000000E+00  0.00000000000E+00  0.17296444403E+01  0.22378717322E+01  0.14200000000E+01 0.  1.
          4   -1    0    0  501    0  0.00000000000E+00 -0.00000000000E+00 -0.49902849950E+02  0.49923049117E+02  0.14200000000E+01 0. -1.
       1023    2    1    2    0    0  0.00000000000E+00  0.00000000000E+00 -0.48173205510E+02  0.52160920849E+02  0.20002598200E+02 0.  0.
        -13    1    3    3    0    0 -0.31940911206E+00 -0.99956373432E+01 -0.24074064594E+02  0.26068880809E+02  0.10570000000E+00 0.  1.
         13    1    3    3    0    0  0.31940911206E+00  0.99956373432E+01 -0.24099140916E+02  0.26092040040E+02  0.10570000000E+00 0. -1.
<mgrwt>
<rscale>  0 0.20002598E+02</rscale>
<asrwt>0</asrwt>
<pdfrwt beam="2">  1        4 0.77180088E-02 0.20002598E+02</pdfrwt>
<pdfrwt beam="1">  1       -4 0.30674737E-03 0.20002598E+02</pdfrwt>
<totfact> 0.11427292E+06</totfact>
</mgrwt>
</event>
<event>
 5    1  0.5193533E-007  0.2000155E+02  0.7818608E-02  0.1745297E+00
          4   -1    0    0  501    0  0.00000000000E+00  0.00000000000E+00  0.10587512916E+02  0.10682313876E+02  0.14200000000E+01 0.  1.
         -4   -1    0    0    0  501 -0.00000000000E+00 -0.00000000000E+00 -0.92552588552E+01  0.93635578963E+01  0.14200000000E+01 0. -1.
       1023    2    1    2    0    0  0.00000000000E+00  0.00000000000E+00  0.13322540605E+01  0.20045871772E+02  0.20001551795E+02 0.  0.
        -13    1    3    3    0    0 -0.85985890662E+01 -0.51057078543E+01  0.64712606388E+00  0.10021673077E+02  0.10570000000E+00 0.  1.
         13    1    3    3    0    0  0.85985890662E+01  0.51057078543E+01  0.68512799667E+00  0.10024198695E+02  0.10570000000E+00 0. -1.
<mgrwt>
<rscale>  0 0.20001552E+02</rscale>
<asrwt>0</asrwt>
<pdfrwt beam="1">  1        4 0.16444712E-02 0.20001552E+02</pdfrwt>
<pdfrwt beam="2">  1       -4 0.14395091E-02 0.20001552E+02</pdfrwt>
<totfact> 0.13009261E+06</totfact>
</mgrwt>
</event>
<event>
 4    1  0.4710515E-007  0.2046227E+02  0.7818608E-02  0.1736288E+00
         -4   -1    0    0    0  501 -0.00000000000E+00  0.00000000000E+00  0.11616004507E+01  0.18345886751E+01  0.14200000000E+01 0.  1.
          4   -1    0    0  501    0  0.00000000000E+00 -0.00000000000E+00 -0.69190957905E+02  0.69205527639E+02  0.14200000000E+01 0. -1.
        -13    1    1    2    0    0  0.10002820390E+02  0.18345811681E+01 -0.30144193022E+02  0.31813607926E+02  0.10570000000E+00 0. -1.
         13    1    1    2    0    0 -0.10002820390E+02 -0.18345811681E+01 -0.37885164432E+02  0.39226508389E+02  0.10570000000E+00 0.  1.
<mgrwt>
<rscale>  0 0.20462274E+02</rscale>
<asrwt>0</asrwt>
<pdfrwt beam="2">  1        4 0.10697649E-01 0.20462274E+02</pdfrwt>
<pdfrwt beam="1">  1       -4 0.23159689E-03 0.20462274E+02</pdfrwt>
<totfact> 0.10231609E+06</totfact>
</mgrwt>
</event>
<event>
 4    1  0.4710515E-007  0.2020857E+02  0.7818608E-02  0.1741212E+00
         -4   -1    0    0    0  501 -0.00000000000E+00  0.00000000000E+00  0.22392302999E+01  0.26515188734E+01  0.14200000000E+01 0. -1.
          4   -1    0    0  501    0  0.00000000000E+00 -0.00000000000E+00 -0.41325388660E+02  0.41349778088E+02  0.14200000000E+01 0.  1.
        -13    1    1    2    0    0 -0.66339774721E+01  0.75895429130E+01 -0.21043085357E+02  0.23333097363E+02  0.10570000000E+00 0. -1.
         13    1    1    2    0    0  0.66339774721E+01 -0.75895429130E+01 -0.18043073004E+02  0.20668199598E+02  0.10570000000E+00 0.  1.
<mgrwt>
<rscale>  0 0.20208571E+02</rscale>
<asrwt>0</asrwt>
<pdfrwt beam="2">  1        4 0.63913422E-02 0.20208571E+02</pdfrwt>
<pdfrwt beam="1">  1       -4 0.37808761E-03 0.20208571E+02</pdfrwt>
<totfact> 0.11535392E+06</totfact>
</mgrwt>
</event>
<event>
 4    1  0.4710515E-007  0.2003862E+02  0.7818608E-02  0.1744561E+00
         -4   -1    0    0    0  501 -0.00000000000E+00  0.00000000000E+00  0.20320388859E+01  0.24790284455E+01  0.14200000000E+01 0. -1.
          4   -1    0    0  501    0  0.00000000000E+00 -0.00000000000E+00 -0.44047240473E+02  0.44070123591E+02  0.14200000000E+01 0.  1.
        -13    1    1    2    0    0  0.16656081236E+01  0.98660799996E+01 -0.22195818960E+02  0.24347060126E+02  0.10570000000E+00 0.  1.
         13    1    1    2    0    0 -0.16656081236E+01 -0.98660799996E+01 -0.19819382627E+02  0.22202091910E+02  0.10570000000E+00 0. -1.
<mgrwt>
<rscale>  0 0.20038622E+02</rscale>
<asrwt>0</asrwt>
<pdfrwt beam="2">  1        4 0.68126419E-02 0.20038622E+02</pdfrwt>
<pdfrwt beam="1">  1       -4 0.34876545E-03 0.20038622E+02</pdfrwt>
<totfact> 0.11622462E+06</totfact>
</mgrwt>
</event>
<event>
 5    1  0.5151444E-007  0.2000141E+02  0.7818608E-02  0.1745300E+00
          4   -1    0    0  501    0  0.00000000000E+00  0.00000000000E+00  0.52944145870E+01  0.54815349875E+01  0.14200000000E+01 0.  1.
         -4   -1    0    0    0  501 -0.00000000000E+00 -0.00000000000E+00 -0.18347441548E+02  0.18402309946E+02  0.14200000000E+01 0. -1.
       1023    2    1    2    0    0  0.00000000000E+00  0.00000000000E+00 -0.13053026961E+02  0.23883844933E+02  0.20001413349E+02 0.  0.
        -13    1    3    3    0    0  0.35883073729E+01  0.93341616344E+01 -0.65015146728E+01  0.11928260089E+02  0.10570000000E+00 0.  1.
         13    1    3    3    0    0 -0.35883073729E+01 -0.93341616344E+01 -0.65515122877E+01  0.11955584844E+02  0.10570000000E+00 0. -1.
<mgrwt>
<rscale>  0 0.20001413E+02</rscale>
<asrwt>0</asrwt>
<pdfrwt beam="1">  1        4 0.83313985E-03 0.20001413E+02</pdfrwt>
<pdfrwt beam="2">  1       -4 0.28412978E-02 0.20001413E+02</pdfrwt>
<totfact> 0.12786476E+06</totfact>
</mgrwt>
</event>
<event>
 5    1  0.4710515E-007  0.2000198E+02  0.7818608E-02  0.1745289E+00
          4   -1    0    0  501    0  0.00000000000E+00  0.00000000000E+00  0.10993903391E+01  0.17958449593E+01  0.14200000000E+01 0. -1.
         -4   -1    0    0    0  501 -0.00000000000E+00 -0.00000000000E+00 -0.68387128563E+02  0.68401869515E+02  0.14200000000E+01 0.  1.
       1023    2    1    2    0    0  0.00000000000E+00  0.00000000000E+00 -0.67287738224E+02  0.70197714474E+02  0.20001984953E+02 0.  0.
        -13    1    3    3    0    0 -0.54792436005E+01  0.83654248905E+01 -0.33366771329E+02  0.34833246266E+02  0.10570000000E+00 0. -1.
         13    1    3    3    0    0  0.54792436005E+01 -0.83654248905E+01 -0.33920966895E+02  0.35364468208E+02  0.10570000000E+00 0.  1.
<mgrwt>
<rscale>  0 0.20001985E+02</rscale>
<asrwt>0</asrwt>
<pdfrwt beam="1">  1        4 0.22384438E-03 0.20001985E+02</pdfrwt>
<pdfrwt beam="2">  1       -4 0.10575802E-01 0.20001985E+02</pdfrwt>
<totfact> 0.10741687E+06</totfact>
</mgrwt>
</event>
<event>
 5    1  0.4710515E-007  0.2000291E+02  0.7818608E-02  0.1745270E+00
         -4   -1    0    0    0  501 -0.00000000000E+00  0.00000000000E+00  0.55905563269E+02  0.55923594344E+02  0.14200000000E+01 0.  1.
          4   -1    0    0  501    0  0.00000000000E+00 -0.00000000000E+00 -0.14862250269E+01  0.20555448987E+01  0.14200000000E+01 0. -1.
       1023    2    1    2    0    0  0.00000000000E+00  0.00000000000E+00  0.54419338242E+02  0.57979139243E+02  0.20002905106E+02 0.  0.
        -13    1    3    3    0    0  0.86656977551E+01  0.49923497224E+01  0.27201811180E+02  0.28982194142E+02  0.10570000000E+00 0. -1.
         13    1    3    3    0    0 -0.86656977551E+01 -0.49923497224E+01  0.27217527062E+02  0.28996945101E+02  0.10570000000E+00 0.  1.
<mgrwt>
<rscale>  0 0.20002905E+02</rscale>
<asrwt>0</asrwt>
<pdfrwt beam="2">  1        4 0.27383088E-03 0.20002905E+02</pdfrwt>
<pdfrwt beam="1">  1       -4 0.86460357E-02 0.20002905E+02</pdfrwt>
<totfact> 0.11193777E+06</totfact>
</mgrwt>
</event>
<event>
 5    1  0.5157581E-007  0.2000168E+02  0.7818608E-02  0.1745295E+00
          4   -1    0    0  501    0  0.00000000000E+00  0.00000000000E+00  0.25254291066E+02  0.25294181490E+02  0.14200000000E+01 0. -1.
         -4   -1    0    0    0  501 -0.00000000000E+00 -0.00000000000E+00 -0.37885848456E+01  0.40459578758E+01  0.14200000000E+01 0.  1.
       1023    2    1    2    0    0  0.00000000000E+00  0.00000000000E+00  0.21465706220E+02  0.29340139366E+02  0.20001680791E+02 0.  0.
        -13    1    3    3    0    0 -0.89709081916E+01 -0.44189987700E+01  0.10689037411E+02  0.14638013430E+02  0.10570000000E+00 0.  1.
         13    1    3    3    0    0  0.89709081916E+01  0.44189987700E+01  0.10776668809E+02  0.14702125935E+02  0.10570000000E+00 0. -1.
<mgrwt>
<rscale>  0 0.20001681E+02</rscale>
<asrwt>0</asrwt>
<pdfrwt beam="1">  1        4 0.39081419E-02 0.20001681E+02</pdfrwt>
<pdfrwt beam="2">  1       -4 0.60572564E-03 0.20001681E+02</pdfrwt>
<totfact> 0.12488216E+06</totfact>
</mgrwt>
</event>
<event>
 5    1  0.4720986E-007  0.2000190E+02  0.7818608E-02  0.1745290E+00
          4   -1    0    0  501    0  0.00000000000E+00  0.00000000000E+00  0.34272246791E+02  0.34301651565E+02  0.14200000000E+01 0. -1.
         -4   -1    0    0    0  501 -0.00000000000E+00 -0.00000000000E+00 -0.27130653399E+01  0.30622089313E+01  0.14200000000E+01 0.  1.
       1023    2    1    2    0    0  0.00000000000E+00  0.00000000000E+00  0.31559181451E+02  0.37363860496E+02  0.20001903343E+02 0.  0.
        -13    1    3    3    0    0 -0.61239655090E+00  0.99815804887E+01  0.15724074045E+02  0.18635038386E+02  0.10570000000E+00 0. -1.
         13    1    3    3    0    0  0.61239655090E+00 -0.99815804887E+01  0.15835107405E+02  0.18728822110E+02  0.10570000000E+00 0.  1.
<mgrwt>
<rscale>  0 0.20001903E+02</rscale>
<asrwt>0</asrwt>
<pdfrwt beam="1">  1        4 0.53017721E-02 0.20001903E+02</pdfrwt>
<pdfrwt beam="2">  1       -4 0.44651381E-03 0.20001903E+02</pdfrwt>
<totfact> 0.12084789E+06</totfact>
</mgrwt>
</event>
<event>
 5    1  0.4710515E-007  0.2000323E+02  0.7818608E-02  0.1745264E+00
          4   -1    0    0  501    0  0.00000000000E+00  0.00000000000E+00  0.11548859778E+01  0.18303446729E+01  0.14200000000E+01 0. -1.
         -4   -1    0    0    0  501 -0.00000000000E+00 -0.00000000000E+00 -0.66333367442E+02  0.66348564688E+02  0.14200000000E+01 0.  1.
       1023    2    1    2    0    0  0.00000000000E+00  0.00000000000E+00 -0.65178481464E+02  0.68178909361E+02  0.20003230632E+02 0.  0.
        -13    1    3    3    0    0  0.41496548723E+01  0.90995328562E+01 -0.32594814056E+02  0.34094782733E+02  0.10570000000E+00 0.  1.
         13    1    3    3    0    0 -0.41496548723E+01 -0.90995328562E+01 -0.32583667408E+02  0.34084126628E+02  0.10570000000E+00 0. -1.
<mgrwt>
<rscale>  0 0.20003231E+02</rscale>
<asrwt>0</asrwt>
<pdfrwt beam="1">  1        4 0.23080220E-03 0.20003231E+02</pdfrwt>
<pdfrwt beam="2">  1       -4 0.10258259E-01 0.20003231E+02</pdfrwt>
<totfact> 0.10812060E+06</totfact>
</mgrwt>
</event>
<event>
 5    1  0.4710515E-007  0.2000433E+02  0.7818608E-02  0.1745242E+00
          4   -1    0    0  501    0  0.00000000000E+00  0.00000000000E+00  0.12413538171E+02  0.12494491983E+02  0.14200000000E+01 0.  1.
         -4   -1    0    0    0  501 -0.00000000000E+00 -0.00000000000E+00 -0.78884652450E+01  0.80152532039E+01  0.14200000000E+01 0. -1.
       1023    2    1    2    0    0  0.00000000000E+00  0.00000000000E+00  0.45250729256E+01  0.20509745187E+02  0.20004333597E+02 0.  0.
        -13    1    3    3    0    0 -0.70987533827E+01 -0.70449473012E+01  0.21675341187E+01  0.10233912190E+02  0.10570000000E+00 0.  1.
         13    1    3    3    0    0  0.70987533827E+01  0.70449473012E+01  0.23575388069E+01  0.10275832997E+02  0.10570000000E+00 0. -1.
<mgrwt>
<rscale>  0 0.20004334E+02</rscale>
<asrwt>0</asrwt>
<pdfrwt beam="1">  1        4 0.19257552E-02 0.20004334E+02</pdfrwt>
<pdfrwt beam="2">  1       -4 0.12295902E-02 0.20004334E+02</pdfrwt>
<totfact> 0.12978005E+06</totfact>
</mgrwt>
</event>
<event>
 5    1  0.4710515E-007  0.2000370E+02  0.7818608E-02  0.1745255E+00
          4   -1    0    0  501    0  0.00000000000E+00  0.00000000000E+00  0.11348478559E+01  0.18177677673E+01  0.14200000000E+01 0. -1.
         -4   -1    0    0    0  501 -0.00000000000E+00 -0.00000000000E+00 -0.67069438459E+02  0.67084468957E+02  0.14200000000E+01 0.  1.
       1023    2    1    2    0    0  0.00000000000E+00  0.00000000000E+00 -0.65934590604E+02  0.68902236724E+02  0.20003699347E+02 0.  0.
        -13    1    3    3    0    0 -0.52093810428E+01 -0.85368527356E+01 -0.32617398271E+02  0.34116291532E+02  0.10570000000E+00 0. -1.
         13    1    3    3    0    0  0.52093810428E+01  0.85368527356E+01 -0.33317192333E+02  0.34785945192E+02  0.10570000000E+00 0.  1.
<mgrwt>
<rscale>  0 0.20003699E+02</rscale>
<asrwt>0</asrwt>
<pdfrwt beam="1">  1        4 0.22828052E-03 0.20003699E+02</pdfrwt>
<pdfrwt beam="2">  1       -4 0.10372061E-01 0.20003699E+02</pdfrwt>
<totfact> 0.10785722E+06</totfact>
</mgrwt>
</event>
<event>
 5    1  0.4718513E-007  0.2000272E+02  0.7818608E-02  0.1745274E+00
          4   -1    0    0  501    0  0.00000000000E+00  0.00000000000E+00  0.14425121014E+01  0.20241643122E+01  0.14200000000E+01 0.  1.
         -4   -1    0    0    0  501 -0.00000000000E+00 -0.00000000000E+00 -0.57115859646E+02  0.57133508759E+02  0.14200000000E+01 0. -1.
       1023    2    1    2    0    0  0.00000000000E+00  0.00000000000E+00 -0.55673347545E+02  0.59157673071E+02  0.20002716225E+02 0.  0.
        -13    1    3    3    0    0  0.20413364630E+01  0.97896933356E+01 -0.27528734115E+02  0.29289034204E+02  0.10570000000E+00 0.  1.
         13    1    3    3    0    0 -0.20413364630E+01 -0.97896933356E+01 -0.28144613430E+02  0.29868638867E+02  0.10570000000E+00 0. -1.
<mgrwt>
<rscale>  0 0.20002716E+02</rscale>
<asrwt>0</asrwt>
<pdfrwt beam="1">  1        4 0.26802508E-03 0.20002716E+02</pdfrwt>
<pdfrwt beam="2">  1       -4 0.88331540E-02 0.20002716E+02</pdfrwt>
<totfact> 0.11148245E+06</totfact>
</mgrwt>
</event>
<event>
 5    1  0.4934197E-007  0.2000347E+02  0.7818608E-02  0.1745259E+00
          4   -1    0    0  501    0  0.00000000000E+00  0.00000000000E+00  0.22873467099E+02  0.22917501983E+02  0.14200000000E+01 0.  1.
         -4   -1    0    0    0  501 -0.00000000000E+00 -0.00000000000E+00 -0.42084881039E+01  0.44415956728E+01  0.14200000000E+01 0. -1.
       1023    2    1    2    0    0  0.00000000000E+00  0.00000000000E+00  0.18664978995E+02  0.27359097656E+02  0.20003469290E+02 0.  0.
        -13    1    3    3    0    0 -0.94918744408E+01  0.31506585032E+01  0.92852286636E+01  0.13647306446E+02  0.10570000000E+00 0. -1.
         13    1    3    3    0    0  0.94918744408E+01 -0.31506585032E+01  0.93797503315E+01  0.13711791210E+02  0.10570000000E+00 0.  1.
<mgrwt>
<rscale>  0 0.20003469E+02</rscale>
<asrwt>0</asrwt>
<pdfrwt beam="1">  1        4 0.35403135E-02 0.20003469E+02</pdfrwt>
<pdfrwt beam="2">  1       -4 0.66877837E-03 0.20003469E+02</pdfrwt>
<totfact> 0.12591599E+06</totfact>
</mgrwt>
</event>
<event>
 5    1  0.4710515E-007  0.2000510E+02  0.7818608E-02  0.1745227E+00
          4   -1    0    0  501    0  0.00000000000E+00  0.00000000000E+00  0.39329776279E+01  0.41814725901E+01  0.14200000000E+01 0. -1.
         -4   -1    0    0    0  501 -0.00000000000E+00 -0.00000000000E+00 -0.24390179722E+02  0.24431481061E+02  0.14200000000E+01 0.  1.
       1023    2    1    2    0    0  0.00000000000E+00  0.00000000000E+00 -0.20457202094E+02  0.28612953651E+02  0.20005099329E+02 0.  0.
        -13    1    3    3    0    0 -0.59111708001E+01  0.80683258497E+01 -0.10225385426E+02  0.14304177776E+02  0.10570000000E+00 0.  1.
         13    1    3    3    0    0  0.59111708001E+01 -0.80683258497E+01 -0.10231816668E+02  0.14308775876E+02  0.10570000000E+00 0. -1.
<mgrwt>
<rscale>  0 0.20005099E+02</rscale>
<asrwt>0</asrwt>
<pdfrwt beam="1">  1        4 0.62736552E-03 0.20005099E+02</pdfrwt>
<pdfrwt beam="2">  1       -4 0.37746273E-02 0.20005099E+02</pdfrwt>
<totfact> 0.12522338E+06</totfact>
</mgrwt>
</event>
<event>
 4    1  0.4710515E-007  0.2004079E+02  0.7818608E-02  0.1744518E+00
          4   -1    0    0  501    0  0.00000000000E+00  0.00000000000E+00  0.28206674069E+01  0.31579367663E+01  0.14200000000E+01 0.  1.
         -4   -1    0    0    0  501 -0.00000000000E+00 -0.00000000000E+00 -0.33235929233E+02  0.33266250044E+02  0.14200000000E+01 0. -1.
        -13    1    1    2    0    0  0.54448080034E+01  0.83930911383E+01 -0.14200231547E+02  0.17370885456E+02  0.10570000000E+00 0.  1.
         13    1    1    2    0    0 -0.54448080034E+01 -0.83930911383E+01 -0.16215030279E+02  0.19053301354E+02  0.10570000000E+00 0. -1.
<mgrwt>
<rscale>  0 0.20040789E+02</rscale>
<asrwt>0</asrwt>
<pdfrwt beam="1">  1        4 0.46222502E-03 0.20040789E+02</pdfrwt>
<pdfrwt beam="2">  1       -4 0.51414958E-02 0.20040789E+02</pdfrwt>
<totfact> 0.12082398E+06</totfact>
</mgrwt>
</event>
<event>
 5    1  0.4710515E-007  0.2000310E+02  0.7818608E-02  0.1745266E+00
          4   -1    0    0  501    0  0.00000000000E+00  0.00000000000E+00  0.35669137798E+02  0.35697391939E+02  0.14200000000E+01 0.  1.
         -4   -1    0    0    0  501 -0.00000000000E+00 -0.00000000000E+00 -0.25933177011E+01  0.29566360444E+01  0.14200000000E+01 0. -1.
       1023    2    1    2    0    0  0.00000000000E+00  0.00000000000E+00  0.33075820097E+02  0.38654027984E+02  0.20003099867E+02 0.  0.
        -13    1    3    3    0    0 -0.99610699228E+01 -0.88891439686E+00  0.16379196833E+02  0.19191204866E+02  0.10570000000E+00 0.  1.
         13    1    3    3    0    0  0.99610699228E+01  0.88891439686E+00  0.16696623264E+02  0.19462823118E+02  0.10570000000E+00 0. -1.
<mgrwt>
<rscale>  0 0.20003100E+02</rscale>
<asrwt>0</asrwt>
<pdfrwt beam="1">  1        4 0.55176803E-02 0.20003100E+02</pdfrwt>
<pdfrwt beam="2">  1       -4 0.42909294E-03 0.20003100E+02</pdfrwt>
<totfact> 0.12021950E+06</totfact>
</mgrwt>
</event>
<event>
 5    1  0.4710515E-007  0.2000199E+02  0.7818608E-02  0.1745289E+00
          4   -1    0    0  501    0  0.00000000000E+00  0.00000000000E+00  0.95384103960E+02  0.95394673269E+02  0.14200000000E+01 0.  1.
         -4   -1    0    0    0  501 -0.00000000000E+00 -0.00000000000E+00 -0.55227670171E+00  0.15236172601E+01  0.14200000000E+01 0. -1.
       1023    2    1    2    0    0  0.00000000000E+00  0.00000000000E+00  0.94831827258E+02  0.96918290530E+02  0.20001989353E+02 0.  0.
        -13    1    3    3    0    0 -0.56365452486E+01  0.82605449285E+01  0.47229684011E+02  0.48276924810E+02  0.10570000000E+00 0.  1.
         13    1    3    3    0    0  0.56365452486E+01 -0.82605449285E+01  0.47602143247E+02  0.48641365719E+02  0.10570000000E+00 0. -1.
<mgrwt>
<rscale>  0 0.20001989E+02</rscale>
<asrwt>0</asrwt>
<pdfrwt beam="1">  1        4 0.14750011E-01 0.20001989E+02</pdfrwt>
<pdfrwt beam="2">  1       -4 0.16049715E-03 0.20001989E+02</pdfrwt>
<totfact> 0.98879315E+05</totfact>
</mgrwt>
</event>
<event>
 4    1  0.4710515E-007  0.2006946E+02  0.7818608E-02  0.1743950E+00
         -4   -1    0    0    0  501 -0.00000000000E+00  0.00000000000E+00  0.23796749514E+02  0.23839078997E+02  0.14200000000E+01 0. -1.
          4   -1    0    0  501    0  0.00000000000E+00 -0.00000000000E+00 -0.40648504674E+01  0.43057414370E+01  0.14200000000E+01 0.  1.
        -13    1    1    2    0    0 -0.67336449396E+01  0.74285334161E+01  0.93058538687E+01  0.13679735802E+02  0.10570000000E+00 0. -1.
         13    1    1    2    0    0  0.67336449396E+01 -0.74285334161E+01  0.10426045178E+02  0.14465084633E+02  0.10570000000E+00 0.  1.
<mgrwt>
<rscale>  0 0.20069456E+02</rscale>
<asrwt>0</asrwt>
<pdfrwt beam="2">  1        4 0.64714780E-03 0.20069456E+02</pdfrwt>
<pdfrwt beam="1">  1       -4 0.36828245E-02 0.20069456E+02</pdfrwt>
<totfact> 0.12465564E+06</totfact>
</mgrwt>
</event>
<event>
 4    1  0.4710515E-007  0.2002995E+02  0.7818608E-02  0.1744733E+00
         -4   -1    0    0    0  501 -0.00000000000E+00  0.00000000000E+00  0.49479858711E+02  0.49500230485E+02  0.14200000000E+01 0.  1.
          4   -1    0    0  501    0  0.00000000000E+00 -0.00000000000E+00 -0.17549753000E+01  0.22575070994E+01  0.14200000000E+01 0. -1.
        -13    1    1    2    0    0 -0.95877489883E+01 -0.28780809896E+01  0.23130327640E+02  0.25203799517E+02  0.10570000000E+00 0. -1.
         13    1    1    2    0    0  0.95877489883E+01  0.28780809896E+01  0.24594555771E+02  0.26553938067E+02  0.10570000000E+00 0.  1.
<mgrwt>
<rscale>  0 0.20029950E+02</rscale>
<asrwt>0</asrwt>
<pdfrwt beam="2">  1        4 0.31021955E-03 0.20029950E+02</pdfrwt>
<pdfrwt beam="1">  1       -4 0.76525094E-02 0.20029950E+02</pdfrwt>
<totfact> 0.11412427E+06</totfact>
</mgrwt>
</event>
<event>
 5    1  0.5005217E-007  0.2000209E+02  0.7818608E-02  0.1745287E+00
          4   -1    0    0  501    0  0.00000000000E+00  0.00000000000E+00  0.79320674279E+01  0.80581693753E+01  0.14200000000E+01 0. -1.
         -4   -1    0    0    0  501 -0.00000000000E+00 -0.00000000000E+00 -0.12343112469E+02  0.12424525159E+02  0.14200000000E+01 0.  1.
       1023    2    1    2    0    0  0.00000000000E+00  0.00000000000E+00 -0.44110450416E+01  0.20482694535E+02  0.20002086317E+02 0.  0.
        -13    1    3    3    0    0 -0.24930767650E+01  0.96847262618E+01 -0.22243280773E+01  0.10245397133E+02  0.10570000000E+00 0.  1.
         13    1    3    3    0    0  0.24930767650E+01 -0.96847262618E+01 -0.21867169643E+01  0.10237297402E+02  0.10570000000E+00 0. -1.
<mgrwt>
<rscale>  0 0.20002086E+02</rscale>
<asrwt>0</asrwt>
<pdfrwt beam="1">  1        4 0.12362807E-02 0.20002086E+02</pdfrwt>
<pdfrwt beam="2">  1       -4 0.19149030E-02 0.20002086E+02</pdfrwt>
<totfact> 0.12982582E+06</totfact>
</mgrwt>
</event>
<event>
 5    1  0.4710515E-007  0.2000421E+02  0.7818608E-02  0.1745244E+00
          4   -1    0    0  501    0  0.00000000000E+00  0.00000000000E+00  0.95887021494E+00  0.17134270014E+01  0.14200000000E+01 0.  1.
         -4   -1    0    0    0  501 -0.00000000000E+00 -0.00000000000E+00 -0.74110174321E+02  0.74123777142E+02  0.14200000000E+01 0. -1.
       1023    2    1    2    0    0  0.00000000000E+00  0.00000000000E+00 -0.73151304106E+02  0.75837204144E+02  0.20004205557E+02 0.  0.
        -13    1    3    3    0    0  0.66856705421E+01 -0.74377448799E+01 -0.36149296408E+02  0.37507346518E+02  0.10570000000E+00 0. -1.
         13    1    3    3    0    0 -0.66856705421E+01  0.74377448799E+01 -0.37002007698E+02  0.38329857626E+02  0.10570000000E+00 0.  1.
<mgrwt>
<rscale>  0 0.20004206E+02</rscale>
<asrwt>0</asrwt>
<pdfrwt beam="1">  1        4 0.20660775E-03 0.20004206E+02</pdfrwt>
<pdfrwt beam="2">  1       -4 0.11460651E-01 0.20004206E+02</pdfrwt>
<totfact> 0.10544937E+06</totfact>
</mgrwt>
</event>
<event>
 5    1  0.4710515E-007  0.2000178E+02  0.7818608E-02  0.1745293E+00
          4   -1    0    0  501    0  0.00000000000E+00  0.00000000000E+00  0.80547343410E+00  0.16325401842E+01  0.14200000000E+01 0.  1.
         -4   -1    0    0    0  501 -0.00000000000E+00 -0.00000000000E+00 -0.81213231528E+02  0.81225644813E+02  0.14200000000E+01 0. -1.
       1023    2    1    2    0    0  0.00000000000E+00  0.00000000000E+00 -0.80407758094E+02  0.82858184997E+02  0.20001781403E+02 0.  0.
        -13    1    3    3    0    0 -0.72286926994E+01  0.69098590875E+01 -0.40537644863E+02  0.41752987609E+02  0.10570000000E+00 0.  1.
         13    1    3    3    0    0  0.72286926994E+01 -0.69098590875E+01 -0.39870113231E+02  0.41105197388E+02  0.10570000000E+00 0. -1.
<mgrwt>
<rscale>  0 0.20001781E+02</rscale>
<asrwt>0</asrwt>
<pdfrwt beam="1">  1        4 0.18849444E-03 0.20001781E+02</pdfrwt>
<pdfrwt beam="2">  1       -4 0.12558914E-01 0.20001781E+02</pdfrwt>
<totfact> 0.10316880E+06</totfact>
</mgrwt>
</event>
<event>
 4    1  0.4710515E-007  0.2002549E+02  0.7818608E-02  0.1744822E+00
         -4   -1    0    0    0  501 -0.00000000000E+00  0.00000000000E+00  0.32236646974E+02  0.32267906783E+02  0.14200000000E+01 0. -1.
          4   -1    0    0  501    0  0.00000000000E+00 -0.00000000000E+00 -0.29133023368E+01  0.32409459276E+01  0.14200000000E+01 0.  1.
        -13    1    1    2    0    0 -0.71486808935E+01 -0.70079963839E+01  0.14959417676E+02  0.18000305595E+02  0.10570000000E+00 0. -1.
         13    1    1    2    0    0  0.71486808935E+01  0.70079963839E+01  0.14363926961E+02  0.17508547115E+02  0.10570000000E+00 0.  1.
<mgrwt>
<rscale>  0 0.20025486E+02</rscale>
<asrwt>0</asrwt>
<pdfrwt beam="2">  1        4 0.47580832E-03 0.20025486E+02</pdfrwt>
<pdfrwt beam="1">  1       -4 0.49870920E-02 0.20025486E+02</pdfrwt>
<totfact> 0.12145590E+06</totfact>
</mgrwt>
</event>
<event>
 5    1  0.4710515E-007  0.2000786E+02  0.7818608E-02  0.1745172E+00
          4   -1    0    0  501    0  0.00000000000E+00  0.00000000000E+00  0.51829406043E+01  0.53739439248E+01  0.14200000000E+01 0. -1.
         -4   -1    0    0    0  501 -0.00000000000E+00 -0.00000000000E+00 -0.18741522837E+02  0.18795240841E+02  0.14200000000E+01 0.  1.
       1023    2    1    2    0    0  0.00000000000E+00  0.00000000000E+00 -0.13558582233E+02  0.24169184766E+02  0.20007856958E+02 0.  0.
        -13    1    3    3    0    0  0.30517313719E+01  0.95264406610E+01 -0.68224500230E+01  0.12108803939E+02  0.10570000000E+00 0.  1.
         13    1    3    3    0    0 -0.30517313719E+01 -0.95264406610E+01 -0.67361322100E+01  0.12060380826E+02  0.10570000000E+00 0. -1.
<mgrwt>
<rscale>  0 0.20007857E+02</rscale>
<asrwt>0</asrwt>
<pdfrwt beam="1">  1        4 0.81620021E-03 0.20007857E+02</pdfrwt>
<pdfrwt beam="2">  1       -4 0.29021359E-02 0.20007857E+02</pdfrwt>
<totfact> 0.12762010E+06</totfact>
</mgrwt>
</event>
<event>
 5    1  0.4710515E-007  0.2000195E+02  0.7818608E-02  0.1745289E+00
         -4   -1    0    0    0  501 -0.00000000000E+00  0.00000000000E+00  0.35067114431E+01  0.37833087562E+01  0.14200000000E+01 0.  1.
          4   -1    0    0  501    0  0.00000000000E+00 -0.00000000000E+00 -0.27144264113E+02  0.27181381022E+02  0.14200000000E+01 0. -1.
       1023    2    1    2    0    0  0.00000000000E+00  0.00000000000E+00 -0.23637552670E+02  0.30964689778E+02  0.20001952825E+02 0.  0.
        -13    1    3    3    0    0  0.19303731827E+01  0.98123397228E+01 -0.11815228826E+02  0.15479636823E+02  0.10570000000E+00 0.  1.
         13    1    3    3    0    0 -0.19303731827E+01 -0.98123397228E+01 -0.11822323844E+02  0.15485052955E+02  0.10570000000E+00 0. -1.
<mgrwt>
<rscale>  0 0.20001953E+02</rscale>
<asrwt>0</asrwt>
<pdfrwt beam="2">  1        4 0.42001724E-02 0.20001953E+02</pdfrwt>
<pdfrwt beam="1">  1       -4 0.56362595E-03 0.20001953E+02</pdfrwt>
<totfact> 0.12403197E+06</totfact>
</mgrwt>
</event>
<event>
 5    1  0.4710515E-007  0.2000283E+02  0.7818608E-02  0.1745272E+00
          4   -1    0    0  501    0  0.00000000000E+00  0.00000000000E+00  0.54598565975E+01  0.56414921843E+01  0.14200000000E+01 0. -1.
         -4   -1    0    0    0  501 -0.00000000000E+00 -0.00000000000E+00 -0.17810579760E+02  0.17867096893E+02  0.14200000000E+01 0.  1.
       1023    2    1    2    0    0  0.00000000000E+00  0.00000000000E+00 -0.12350723162E+02  0.23508589077E+02  0.20002834743E+02 0.  0.
        -13    1    3    3    0    0 -0.63528823912E+01  0.77227772315E+01 -0.60231475367E+01  0.11674325744E+02  0.10570000000E+00 0. -1.
         13    1    3    3    0    0  0.63528823912E+01 -0.77227772315E+01 -0.63275756253E+01  0.11834263333E+02  0.10570000000E+00 0.  1.
<mgrwt>
<rscale>  0 0.20002835E+02</rscale>
<asrwt>0</asrwt>
<pdfrwt beam="1">  1        4 0.85829739E-03 0.20002835E+02</pdfrwt>
<pdfrwt beam="2">  1       -4 0.27584086E-02 0.20002835E+02</pdfrwt>
<totfact> 0.12805879E+06</totfact>
</mgrwt>
</event>
<event>
 5    1  0.5038035E-007  0.2000348E+02  0.7818608E-02  0.1745259E+00
          4   -1    0    0  501    0  0.00000000000E+00  0.00000000000E+00  0.62937483521E+01  0.64519507375E+01  0.14200000000E+01 0. -1.
         -4   -1    0    0    0  501 -0.00000000000E+00 -0.00000000000E+00 -0.15505987976E+02  0.15570872265E+02  0.14200000000E+01 0.  1.
       1023    2    1    2    0    0  0.00000000000E+00  0.00000000000E+00 -0.92122396238E+01  0.22022823003E+02  0.20003484050E+02 0.  0.
        -13    1    3    3    0    0 -0.73281386591E+01 -0.68056871468E+01 -0.45308250433E+01  0.10979915383E+02  0.10570000000E+00 0.  1.
         13    1    3    3    0    0  0.73281386591E+01  0.68056871468E+01 -0.46814145805E+01  0.11042907620E+02  0.10570000000E+00 0. -1.
<mgrwt>
<rscale>  0 0.20003484E+02</rscale>
<asrwt>0</asrwt>
<pdfrwt beam="1">  1        4 0.98542949E-03 0.20003484E+02</pdfrwt>
<pdfrwt beam="2">  1       -4 0.24026971E-02 0.20003484E+02</pdfrwt>
<totfact> 0.12890319E+06</totfact>
</mgrwt>
</event>
<event>
 5    1  0.4710515E-007  0.2000375E+02  0.7818608E-02  0.1745254E+00
         -4   -1    0    0    0  501 -0.00000000000E+00  0.00000000000E+00  0.18186523783E+02  0.18241876201E+02  0.14200000000E+01 0. -1.
          4   -1    0    0  501    0  0.00000000000E+00 -0.00000000000E+00 -0.53440653482E+01  0.55295058049E+01  0.14200000000E+01 0.  1.
       1023    2    1    2    0    0  0.00000000000E+00  0.00000000000E+00  0.12842458435E+02  0.23771382005E+02  0.20003746244E+02 0.  0.
        -13    1    3    3    0    0  0.71411559104E+01  0.70017647569E+01  0.63332914874E+01  0.11838182758E+02  0.10570000000E+00 0. -1.
         13    1    3    3    0    0 -0.71411559104E+01 -0.70017647569E+01  0.65091669476E+01  0.11933199248E+02  0.10570000000E+00 0.  1.
<mgrwt>
<rscale>  0 0.20003746E+02</rscale>
<asrwt>0</asrwt>
<pdfrwt beam="2">  1        4 0.84068644E-03 0.20003746E+02</pdfrwt>
<pdfrwt beam="1">  1       -4 0.28164492E-02 0.20003746E+02</pdfrwt>
<totfact> 0.12789795E+06</totfact>
</mgrwt>
</event>
<event>
 5    1  0.4710515E-007  0.2000831E+02  0.7818608E-02  0.1745163E+00
          4   -1    0    0  501    0  0.00000000000E+00  0.00000000000E+00  0.20164554602E+02  0.20214491394E+02  0.14200000000E+01 0.  1.
         -4   -1    0    0    0  501 -0.00000000000E+00 -0.00000000000E+00 -0.48043869182E+01  0.50098436762E+01  0.14200000000E+01 0. -1.
       1023    2    1    2    0    0  0.00000000000E+00  0.00000000000E+00  0.15360167684E+02  0.25224335070E+02  0.20008306486E+02 0.  0.
        -13    1    3    3    0    0  0.73200765286E+01  0.68154825098E+01  0.74356673557E+01  0.12463331968E+02  0.10570000000E+00 0. -1.
         13    1    3    3    0    0 -0.73200765286E+01 -0.68154825098E+01  0.79245003281E+01  0.12761003102E+02  0.10570000000E+00 0.  1.
<mgrwt>
<rscale>  0 0.20008306E+02</rscale>
<asrwt>0</asrwt>
<pdfrwt beam="1">  1        4 0.31218848E-02 0.20008306E+02</pdfrwt>
<pdfrwt beam="2">  1       -4 0.75878211E-03 0.20008306E+02</pdfrwt>
<totfact> 0.12702350E+06</totfact>
</mgrwt>
</event>
<event>
 5    1  0.4710515E-007  0.2000619E+02  0.7818608E-02  0.1745205E+00
         -4   -1    0    0    0  501 -0.00000000000E+00  0.00000000000E+00  0.47814752559E+02  0.47835833454E+02  0.14200000000E+01 0.  1.
          4   -1    0    0  501    0  0.00000000000E+00 -0.00000000000E+00 -0.18277075892E+01  0.23145010330E+01  0.14200000000E+01 0. -1.
       1023    2    1    2    0    0  0.00000000000E+00  0.00000000000E+00  0.45987044969E+02  0.50150334487E+02  0.20006192645E+02 0.  0.
        -13    1    3    3    0    0 -0.54282407590E+01 -0.83991942423E+01  0.22501652406E+02  0.24624130343E+02  0.10570000000E+00 0. -1.
         13    1    3    3    0    0  0.54282407590E+01  0.83991942423E+01  0.23485392564E+02  0.25526204144E+02  0.10570000000E+00 0.  1.
<mgrwt>
<rscale>  0 0.20006193E+02</rscale>
<asrwt>0</asrwt>
<pdfrwt beam="2">  1        4 0.32025304E-03 0.20006193E+02</pdfrwt>
<pdfrwt beam="1">  1       -4 0.73951830E-02 0.20006193E+02</pdfrwt>
<totfact> 0.11506710E+06</totfact>
</mgrwt>
</event>
<event>
 5    1  0.4710515E-007  0.2000280E+02  0.7818608E-02  0.1745272E+00
         -4   -1    0    0    0  501 -0.00000000000E+00  0.00000000000E+00  0.60395683619E+02  0.60412374558E+02  0.14200000000E+01 0.  1.
          4   -1    0    0  501    0  0.00000000000E+00 -0.00000000000E+00 -0.13317304758E+01  0.19467681064E+01  0.14200000000E+01 0. -1.
       1023    2    1    2    0    0  0.00000000000E+00  0.00000000000E+00  0.59063953143E+02  0.62359142665E+02  0.20002802629E+02 0.  0.
        -13    1    3    3    0    0 -0.69214661895E+01 -0.72185113208E+01  0.29709862754E+02  0.31348057632E+02  0.10570000000E+00 0. -1.
         13    1    3    3    0    0  0.69214661895E+01  0.72185113208E+01  0.29354090389E+02  0.31011085033E+02  0.10570000000E+00 0.  1.
<mgrwt>
<rscale>  0 0.20002803E+02</rscale>
<asrwt>0</asrwt>
<pdfrwt beam="2">  1        4 0.25347614E-03 0.20002803E+02</pdfrwt>
<pdfrwt beam="1">  1       -4 0.93402373E-02 0.20002803E+02</pdfrwt>
<totfact> 0.11026093E+06</totfact>
</mgrwt>
</event>
<event>
 4    1  0.4710515E-007  0.2001247E+02  0.7818608E-02  0.1745080E+00
          4   -1    0    0  501    0  0.00000000000E+00  0.00000000000E+00  0.25214462836E+02  0.25254416170E+02  0.14200000000E+01 0. -1.
         -4   -1    0    0    0  501 -0.00000000000E+00 -0.00000000000E+00 -0.37993812981E+01  0.40560693101E+01  0.14200000000E+01 0.  1.
        -13    1    1    2    0    0 -0.97981993975E+01  0.20215430373E+01  0.10925715162E+02  0.14814647210E+02  0.10570000000E+00 0.  1.
         13    1    1    2    0    0  0.97981993975E+01 -0.20215430373E+01  0.10489366376E+02  0.14495838270E+02  0.10570000000E+00 0. -1.
<mgrwt>
<rscale>  0 0.20012467E+02</rscale>
<asrwt>0</asrwt>
<pdfrwt beam="1">  1        4 0.39019667E-02 0.20012467E+02</pdfrwt>
<pdfrwt beam="2">  1       -4 0.60733877E-03 0.20012467E+02</pdfrwt>
<totfact> 0.12476098E+06</totfact>
</mgrwt>
</event>
<event>
 4    1  0.4710515E-007  0.2002115E+02  0.7818608E-02  0.1744908E+00
          4   -1    0    0  501    0  0.00000000000E+00  0.00000000000E+00  0.94575733654E+02  0.94586393293E+02  0.14200000000E+01 0.  1.
         -4   -1    0    0    0  501 -0.00000000000E+00 -0.00000000000E+00 -0.56822113495E+00  0.15294689465E+01  0.14200000000E+01 0. -1.
        -13    1    1    2    0    0 -0.35653322944E+01  0.93441460381E+01  0.44990836357E+02  0.46089165627E+02  0.10570000000E+00 0. -1.
         13    1    1    2    0    0  0.35653322944E+01 -0.93441460381E+01  0.49016676162E+02  0.50026696613E+02  0.10570000000E+00 0.  1.
<mgrwt>
<rscale>  0 0.20021153E+02</rscale>
<asrwt>0</asrwt>
<pdfrwt beam="1">  1        4 0.14624879E-01 0.20021153E+02</pdfrwt>
<pdfrwt beam="2">  1       -4 0.16218070E-03 0.20021153E+02</pdfrwt>
<totfact> 0.98923749E+05</totfact>
</mgrwt>
</event>
<event>
 5    1  0.4710515E-007  0.2000941E+02  0.7818608E-02  0.1745141E+00
         -4   -1    0    0    0  501 -0.00000000000E+00  0.00000000000E+00  0.10443993727E+02  0.10540085624E+02  0.14200000000E+01 0. -1.
          4   -1    0    0  501    0  0.00000000000E+00 -0.00000000000E+00 -0.93902875500E+01  0.94970469237E+01  0.14200000000E+01 0.  1.
       1023    2    1    2    0    0  0.00000000000E+00  0.00000000000E+00  0.10537061767E+01  0.20037132548E+02  0.20009407388E+02 0.  0.
        -13    1    3    3    0    0  0.92083650021E+01 -0.39001187609E+01  0.24716131002E+00  0.10003857934E+02  0.10570000000E+00 0. -1.
         13    1    3    3    0    0 -0.92083650021E+01  0.39001187609E+01  0.80654486664E+00  0.10033274614E+02  0.10570000000E+00 0.  1.
<mgrwt>
<rscale>  0 0.20009407E+02</rscale>
<asrwt>0</asrwt>
<pdfrwt beam="2">  1        4 0.14602636E-02 0.20009407E+02</pdfrwt>
<pdfrwt beam="1">  1       -4 0.16223722E-02 0.20009407E+02</pdfrwt>
<totfact> 0.12999351E+06</totfact>
</mgrwt>
</event>
<event>
 4    1  0.4710515E-007  0.2005521E+02  0.7818608E-02  0.1744232E+00
         -4   -1    0    0    0  501 -0.00000000000E+00  0.00000000000E+00  0.11523591912E+02  0.11610752369E+02  0.14200000000E+01 0.  1.
          4   -1    0    0  501    0  0.00000000000E+00 -0.00000000000E+00 -0.85469946249E+01  0.86641512636E+01  0.14200000000E+01 0. -1.
        -13    1    1    2    0    0  0.89947214313E+01 -0.44251853889E+01  0.17241883695E+01  0.10172083237E+02  0.10570000000E+00 0. -1.
         13    1    1    2    0    0 -0.89947214313E+01  0.44251853889E+01  0.12524089180E+01  0.10102820395E+02  0.10570000000E+00 0.  1.
<mgrwt>
<rscale>  0 0.20055213E+02</rscale>
<asrwt>0</asrwt>
<pdfrwt beam="2">  1        4 0.13306390E-02 0.20055213E+02</pdfrwt>
<pdfrwt beam="1">  1       -4 0.17885770E-02 0.20055213E+02</pdfrwt>
<totfact> 0.12924723E+06</totfact>
</mgrwt>
</event>
<event>
 4    1  0.4710515E-007  0.2001732E+02  0.7818608E-02  0.1744984E+00
          4   -1    0    0  501    0  0.00000000000E+00  0.00000000000E+00  0.28284502877E+01  0.31648903662E+01  0.14200000000E+01 0. -1.
         -4   -1    0    0    0  501 -0.00000000000E+00 -0.00000000000E+00 -0.33075674383E+02  0.33106141967E+02  0.14200000000E+01 0.  1.
        -13    1    1    2    0    0 -0.98062607901E+01  0.19977998285E+01 -0.15287472980E+02  0.18272163458E+02  0.10570000000E+00 0.  1.
         13    1    1    2    0    0  0.98062607901E+01 -0.19977998285E+01 -0.14959751116E+02  0.17998868875E+02  0.10570000000E+00 0. -1.
<mgrwt>
<rscale>  0 0.20017323E+02</rscale>
<asrwt>0</asrwt>
<pdfrwt beam="1">  1        4 0.46336989E-03 0.20017323E+02</pdfrwt>
<pdfrwt beam="2">  1       -4 0.51167887E-02 0.20017323E+02</pdfrwt>
<totfact> 0.12118547E+06</totfact>
</mgrwt>
</event>
<event>
 5    1  0.4920206E-007  0.2000153E+02  0.7818608E-02  0.1745298E+00
         -4   -1    0    0    0  501 -0.00000000000E+00  0.00000000000E+00  0.23601656592E+01  0.27544113598E+01  0.14200000000E+01 0. -1.
          4   -1    0    0  501    0  0.00000000000E+00 -0.00000000000E+00 -0.38701619048E+02  0.38727660876E+02  0.14200000000E+01 0.  1.
       1023    2    1    2    0    0  0.00000000000E+00  0.00000000000E+00 -0.36341453389E+02  0.41482072236E+02  0.20001527006E+02 0.  0.
        -13    1    3    3    0    0 -0.79594510157E+01  0.60538672891E+01 -0.18261804020E+02  0.20820826789E+02  0.10570000000E+00 0. -1.
         13    1    3    3    0    0  0.79594510157E+01 -0.60538672891E+01 -0.18079649369E+02  0.20661245447E+02  0.10570000000E+00 0.  1.
<mgrwt>
<rscale>  0 0.20001527E+02</rscale>
<asrwt>0</asrwt>
<pdfrwt beam="2">  1        4 0.59864246E-02 0.20001527E+02</pdfrwt>
<pdfrwt beam="1">  1       -4 0.39543225E-03 0.20001527E+02</pdfrwt>
<totfact> 0.11892344E+06</totfact>
</mgrwt>
</event>
<event>
 5    1  0.4896770E-007  0.2000224E+02  0.7818608E-02  0.1745283E+00
         -4   -1    0    0    0  501 -0.00000000000E+00  0.00000000000E+00  0.13115684366E+02  0.13192330211E+02  0.14200000000E+01 0.  1.
          4   -1    0    0  501    0  0.00000000000E+00 -0.00000000000E+00 -0.74601390618E+01  0.75940815653E+01  0.14200000000E+01 0. -1.
       1023    2    1    2    0    0  0.00000000000E+00  0.00000000000E+00  0.56555453046E+01  0.20786411776E+02  0.20002242920E+02 0.  0.
        -13    1    3    3    0    0 -0.21731651522E+00 -0.99981887017E+01  0.28443410205E+01  0.10397713793E+02  0.10570000000E+00 0. -1.
         13    1    3    3    0    0  0.21731651522E+00  0.99981887017E+01  0.28112042842E+01  0.10388697984E+02  0.10570000000E+00 0.  1.
<mgrwt>
<rscale>  0 0.20002243E+02</rscale>
<asrwt>0</asrwt>
<pdfrwt beam="2">  1        4 0.11639128E-02 0.20002243E+02</pdfrwt>
<pdfrwt beam="1">  1       -4 0.20339967E-02 0.20002243E+02</pdfrwt>
<totfact> 0.12964415E+06</totfact>
</mgrwt>
</event>
<event>
 5    1  0.4754426E-007  0.2000218E+02  0.7818608E-02  0.1745285E+00
         -4   -1    0    0    0  501 -0.00000000000E+00  0.00000000000E+00  0.98444966519E+01  0.99463819718E+01  0.14200000000E+01 0.  1.
          4   -1    0    0  501    0  0.00000000000E+00 -0.00000000000E+00 -0.99553408534E+01  0.10056103197E+02  0.14200000000E+01 0. -1.
       1023    2    1    2    0    0  0.00000000000E+00  0.00000000000E+00 -0.11084420157E+00  0.20002485169E+02  0.20002178044E+02 0.  0.
        -13    1    3    3    0    0 -0.22174790775E+01  0.97514833695E+01 -0.11061888712E-01  0.10000996761E+02  0.10570000000E+00 0.  1.
         13    1    3    3    0    0  0.22174790775E+01 -0.97514833695E+01 -0.99782312856E-01  0.10001488407E+02  0.10570000000E+00 0. -1.
<mgrwt>
<rscale>  0 0.20002178E+02</rscale>
<asrwt>0</asrwt>
<pdfrwt beam="2">  1        4 0.15471792E-02 0.20002178E+02</pdfrwt>
<pdfrwt beam="1">  1       -4 0.15301262E-02 0.20002178E+02</pdfrwt>
<totfact> 0.13011004E+06</totfact>
</mgrwt>
</event>
<event>
 5    1  0.4746053E-007  0.2000250E+02  0.7818608E-02  0.1745278E+00
         -4   -1    0    0    0  501 -0.00000000000E+00  0.00000000000E+00  0.47630333742E+02  0.47651496224E+02  0.14200000000E+01 0. -1.
          4   -1    0    0  501    0  0.00000000000E+00 -0.00000000000E+00 -0.18357963658E+01  0.23208938573E+01  0.14200000000E+01 0.  1.
       1023    2    1    2    0    0  0.00000000000E+00  0.00000000000E+00  0.45794537376E+02  0.49972390081E+02  0.20002502767E+02 0.  0.
        -13    1    3    3    0    0  0.43202864959E+01 -0.90189297628E+01  0.23119144063E+02  0.25189520919E+02  0.10570000000E+00 0.  1.
         13    1    3    3    0    0 -0.43202864959E+01  0.90189297628E+01  0.22675393313E+02  0.24782869162E+02  0.10570000000E+00 0. -1.
<mgrwt>
<rscale>  0 0.20002503E+02</rscale>
<asrwt>0</asrwt>
<pdfrwt beam="2">  1        4 0.32137333E-03 0.20002503E+02</pdfrwt>
<pdfrwt beam="1">  1       -4 0.73666857E-02 0.20002503E+02</pdfrwt>
<totfact> 0.11518470E+06</totfact>
</mgrwt>
</event>
<event>
 5    1  0.4710515E-007  0.2000399E+02  0.7818608E-02  0.1745249E+00
          4   -1    0    0  501    0  0.00000000000E+00  0.00000000000E+00  0.28094420196E+02  0.28130283435E+02  0.14200000000E+01 0. -1.
         -4   -1    0    0    0  501 -0.00000000000E+00 -0.00000000000E+00 -0.33795168526E+01  0.36657242337E+01  0.14200000000E+01 0.  1.
       1023    2    1    2    0    0  0.00000000000E+00  0.00000000000E+00  0.24714903343E+02  0.31796007669E+02  0.20003991012E+02 0.  0.
        -13    1    3    3    0    0  0.97575821659E+01 -0.21929589161E+01  0.12510431310E+02  0.16016914265E+02  0.10570000000E+00 0.  1.
         13    1    3    3    0    0 -0.97575821659E+01  0.21929589161E+01  0.12204472033E+02  0.15779093403E+02  0.10570000000E+00 0. -1.
<mgrwt>
<rscale>  0 0.20003991E+02</rscale>
<asrwt>0</asrwt>
<pdfrwt beam="1">  1        4 0.43469934E-02 0.20003991E+02</pdfrwt>
<pdfrwt beam="2">  1       -4 0.54470030E-03 0.20003991E+02</pdfrwt>
<totfact> 0.12357888E+06</totfact>
</mgrwt>
</event>
<event>
 4    1  0.4710515E-007  0.2006868E+02  0.7818608E-02  0.1743966E+00
         -4   -1    0    0    0  501 -0.00000000000E+00  0.00000000000E+00  0.29199769743E+01  0.32469471093E+01  0.14200000000E+01 0.  1.
          4   -1    0    0  501    0  0.00000000000E+00 -0.00000000000E+00 -0.32310816291E+02  0.32342004412E+02  0.14200000000E+01 0. -1.
        -13    1    1    2    0    0  0.94419058846E+01  0.33000280147E+01 -0.16110848493E+02  0.18963395879E+02  0.10570000000E+00 0.  1.
         13    1    1    2    0    0 -0.94419058846E+01 -0.33000280147E+01 -0.13279990823E+02  0.16625555642E+02  0.10570000000E+00 0. -1.
<mgrwt>
<rscale>  0 0.20068683E+02</rscale>
<asrwt>0</asrwt>
<pdfrwt beam="2">  1        4 0.49984452E-02 0.20068683E+02</pdfrwt>
<pdfrwt beam="1">  1       -4 0.47677788E-03 0.20068683E+02</pdfrwt>
<totfact> 0.12088721E+06</totfact>
</mgrwt>
</event>
<event>
 5    1  0.4710515E-007  0.2000494E+02  0.7818608E-02  0.1745230E+00
         -4   -1    0    0    0  501 -0.00000000000E+00  0.00000000000E+00  0.39960657422E+02  0.39985879278E+02  0.14200000000E+01 0.  1.
          4   -1    0    0  501    0  0.00000000000E+00 -0.00000000000E+00 -0.22741603918E+01  0.26810828946E+01  0.14200000000E+01 0. -1.
       1023    2    1    2    0    0  0.00000000000E+00  0.00000000000E+00  0.37686497030E+02  0.42666962172E+02  0.20004939455E+02 0.  0.
        -13    1    3    3    0    0 -0.48397242095E+01 -0.87527083388E+01  0.18999897944E+02  0.21471845009E+02  0.10570000000E+00 0. -1.
         13    1    3    3    0    0  0.48397242095E+01  0.87527083388E+01  0.18686599086E+02  0.21195117163E+02  0.10570000000E+00 0.  1.
<mgrwt>
<rscale>  0 0.20004939E+02</rscale>
<asrwt>0</asrwt>
<pdfrwt beam="2">  1        4 0.38311271E-03 0.20004939E+02</pdfrwt>
<pdfrwt beam="1">  1       -4 0.61810352E-02 0.20004939E+02</pdfrwt>
<totfact> 0.11834319E+06</totfact>
</mgrwt>
</event>
<event>
 5    1  0.4710515E-007  0.2000557E+02  0.7818608E-02  0.1745217E+00
         -4   -1    0    0    0  501 -0.00000000000E+00  0.00000000000E+00  0.14621559301E+02  0.14690350451E+02  0.14200000000E+01 0.  1.
          4   -1    0    0  501    0  0.00000000000E+00 -0.00000000000E+00 -0.66834085453E+01  0.68325946597E+01  0.14200000000E+01 0. -1.
       1023    2    1    2    0    0  0.00000000000E+00  0.00000000000E+00  0.79381507553E+01  0.21522945111E+02  0.20005572445E+02 0.  0.
        -13    1    3    3    0    0  0.91003332617E+01  0.41491374284E+01  0.40924598704E+01  0.10806979557E+02  0.10570000000E+00 0. -1.
         13    1    3    3    0    0 -0.91003332617E+01 -0.41491374284E+01  0.38456908849E+01  0.10715965554E+02  0.10570000000E+00 0.  1.
<mgrwt>
<rscale>  0 0.20005572E+02</rscale>
<asrwt>0</asrwt>
<pdfrwt beam="2">  1        4 0.10449842E-02 0.20005572E+02</pdfrwt>
<pdfrwt beam="1">  1       -4 0.22662381E-02 0.20005572E+02</pdfrwt>
<totfact> 0.12916680E+06</totfact>
</mgrwt>
</event>
<event>
 5    1  0.4710515E-007  0.2000169E+02  0.7818608E-02  0.1745295E+00
         -4   -1    0    0    0  501 -0.00000000000E+00  0.00000000000E+00  0.27633311621E+02  0.27669772517E+02  0.14200000000E+01 0.  1.
          4   -1    0    0  501    0  0.00000000000E+00 -0.00000000000E+00 -0.34397006591E+01  0.37212821210E+01  0.14200000000E+01 0. -1.
       1023    2    1    2    0    0  0.00000000000E+00  0.00000000000E+00  0.24193610962E+02  0.31391054638E+02  0.20001687427E+02 0.  0.
        -13    1    3    3    0    0  0.54950986734E+01  0.83549323103E+01  0.12204389796E+02  0.15778444350E+02  0.10570000000E+00 0.  1.
         13    1    3    3    0    0 -0.54950986734E+01 -0.83549323103E+01  0.11989221167E+02  0.15612610288E+02  0.10570000000E+00 0. -1.
<mgrwt>
<rscale>  0 0.20001687E+02</rscale>
<asrwt>0</asrwt>
<pdfrwt beam="2">  1        4 0.55364951E-03 0.20001687E+02</pdfrwt>
<pdfrwt beam="1">  1       -4 0.42757435E-02 0.20001687E+02</pdfrwt>
<totfact> 0.12381559E+06</totfact>
</mgrwt>
</event>
<event>
 5    1  0.4710515E-007  0.2000124E+02  0.7818608E-02  0.1745303E+00
          4   -1    0    0  501    0  0.00000000000E+00  0.00000000000E+00  0.77013323858E+01  0.78311506509E+01  0.14200000000E+01 0.  1.
         -4   -1    0    0    0  501 -0.00000000000E+00 -0.00000000000E+00 -0.12708142797E+02  0.12787231653E+02  0.14200000000E+01 0. -1.
       1023    2    1    2    0    0  0.00000000000E+00  0.00000000000E+00 -0.50068104107E+01  0.20618382303E+02  0.20001238420E+02 0.  0.
        -13    1    3    3    0    0  0.89526360314E+01  0.44553941145E+01 -0.25357330712E+01  0.10317041404E+02  0.10570000000E+00 0. -1.
         13    1    3    3    0    0 -0.89526360314E+01 -0.44553941145E+01 -0.24710773395E+01  0.10301340900E+02  0.10570000000E+00 0.  1.
<mgrwt>
<rscale>  0 0.20001238E+02</rscale>
<asrwt>0</asrwt>
<pdfrwt beam="1">  1        4 0.12008901E-02 0.20001238E+02</pdfrwt>
<pdfrwt beam="2">  1       -4 0.19711687E-02 0.20001238E+02</pdfrwt>
<totfact> 0.12975680E+06</totfact>
</mgrwt>
</event>
<event>
 5    1  0.4803238E-007  0.2000140E+02  0.7818608E-02  0.1745300E+00
          4   -1    0    0  501    0  0.00000000000E+00  0.00000000000E+00  0.17257894626E+02  0.17316215721E+02  0.14200000000E+01 0. -1.
         -4   -1    0    0    0  501 -0.00000000000E+00 -0.00000000000E+00 -0.56389950404E+01  0.58150378387E+01  0.14200000000E+01 0.  1.
       1023    2    1    2    0    0  0.00000000000E+00  0.00000000000E+00  0.11618899585E+02  0.23131253560E+02  0.20001401543E+02 0.  0.
        -13    1    3    3    0    0  0.99436759957E+01  0.10602008721E+01  0.58627639264E+01  0.11592406633E+02  0.10570000000E+00 0. -1.
         13    1    3    3    0    0 -0.99436759957E+01 -0.10602008721E+01  0.57561356587E+01  0.11538846927E+02  0.10570000000E+00 0.  1.
<mgrwt>
<rscale>  0 0.20001402E+02</rscale>
<asrwt>0</asrwt>
<pdfrwt beam="1">  1        4 0.26730887E-02 0.20001402E+02</pdfrwt>
<pdfrwt beam="2">  1       -4 0.88556570E-03 0.20001402E+02</pdfrwt>
<totfact> 0.12829239E+06</totfact>
</mgrwt>
</event>
<event>
 5    1  0.4710515E-007  0.2000810E+02  0.7818608E-02  0.1745167E+00
          4   -1    0    0  501    0  0.00000000000E+00  0.00000000000E+00  0.50681780874E+01  0.52633477109E+01  0.14200000000E+01 0.  1.
         -4   -1    0    0    0  501 -0.00000000000E+00 -0.00000000000E+00 -0.19151948386E+02  0.19204518400E+02  0.14200000000E+01 0. -1.
       1023    2    1    2    0    0  0.00000000000E+00  0.00000000000E+00 -0.14083770299E+02  0.24467866111E+02  0.20008095517E+02 0.  0.
        -13    1    3    3    0    0  0.50232569033E+01 -0.86487434543E+01 -0.68100957272E+01  0.12100514434E+02  0.10570000000E+00 0.  1.
         13    1    3    3    0    0 -0.50232569033E+01  0.86487434543E+01 -0.72736745715E+01  0.12367351678E+02  0.10570000000E+00 0. -1.
<mgrwt>
<rscale>  0 0.20008096E+02</rscale>
<asrwt>0</asrwt>
<pdfrwt beam="1">  1        4 0.79877661E-03 0.20008096E+02</pdfrwt>
<pdfrwt beam="2">  1       -4 0.29655105E-02 0.20008096E+02</pdfrwt>
<totfact> 0.12744896E+06</totfact>
</mgrwt>
</event>
<event>
 4    1  0.4710515E-007  0.2005513E+02  0.7818608E-02  0.1744234E+00
          4   -1    0    0  501    0  0.00000000000E+00  0.00000000000E+00  0.21876222217E+02  0.21922260342E+02  0.14200000000E+01 0. -1.
         -4   -1    0    0    0  501 -0.00000000000E+00 -0.00000000000E+00 -0.44345201822E+01  0.46563257238E+01  0.14200000000E+01 0.  1.
        -13    1    1    2    0    0  0.44571320082E+01  0.89738905647E+01  0.92240315913E+01  0.13619495912E+02  0.10570000000E+00 0. -1.
         13    1    1    2    0    0 -0.44571320082E+01 -0.89738905647E+01  0.82176704437E+01  0.12959090154E+02  0.10570000000E+00 0.  1.
<mgrwt>
<rscale>  0 0.20055131E+02</rscale>
<asrwt>0</asrwt>
<pdfrwt beam="1">  1        4 0.33861760E-02 0.20055131E+02</pdfrwt>
<pdfrwt beam="2">  1       -4 0.70283723E-03 0.20055131E+02</pdfrwt>
<totfact> 0.12567820E+06</totfact>
</mgrwt>
</event>
<event>
 5    1  0.4710515E-007  0.2000434E+02  0.7818608E-02  0.1745242E+00
          4   -1    0    0  501    0  0.00000000000E+00  0.00000000000E+00  0.42233285841E+01  0.44556598085E+01  0.14200000000E+01 0. -1.
         -4   -1    0    0    0  501 -0.00000000000E+00 -0.00000000000E+00 -0.22799146090E+02  0.22843324242E+02  0.14200000000E+01 0.  1.
       1023    2    1    2    0    0  0.00000000000E+00  0.00000000000E+00 -0.18575817506E+02  0.27298984051E+02  0.20004337884E+02 0.  0.
        -13    1    3    3    0    0 -0.98745628232E+01 -0.15890096174E+01 -0.92655457661E+01  0.13634274948E+02  0.10570000000E+00 0.  1.
         13    1    3    3    0    0  0.98745628232E+01  0.15890096174E+01 -0.93102717398E+01  0.13664709103E+02  0.10570000000E+00 0. -1.
<mgrwt>
<rscale>  0 0.20004338E+02</rscale>
<asrwt>0</asrwt>
<pdfrwt beam="1">  1        4 0.67101282E-03 0.20004338E+02</pdfrwt>
<pdfrwt beam="2">  1       -4 0.35288308E-02 0.20004338E+02</pdfrwt>
<totfact> 0.12593735E+06</totfact>
</mgrwt>
</event>
<event>
 5    1  0.4710515E-007  0.2000529E+02  0.7818608E-02  0.1745223E+00
          4   -1    0    0  501    0  0.00000000000E+00  0.00000000000E+00  0.13680060696E+02  0.13753561744E+02  0.14200000000E+01 0. -1.
         -4   -1    0    0    0  501 -0.00000000000E+00 -0.00000000000E+00 -0.71506764334E+01  0.72903068149E+01  0.14200000000E+01 0.  1.
       1023    2    1    2    0    0  0.00000000000E+00  0.00000000000E+00  0.65293842625E+01  0.21043868559E+02  0.20005287928E+02 0.  0.
        -13    1    3    3    0    0  0.89114147847E+01  0.45417442912E+01  0.32972693873E+01  0.10532042184E+02  0.10570000000E+00 0. -1.
         13    1    3    3    0    0 -0.89114147847E+01 -0.45417442912E+01  0.32321148752E+01  0.10511826374E+02  0.10570000000E+00 0.  1.
<mgrwt>
<rscale>  0 0.20005288E+02</rscale>
<asrwt>0</asrwt>
<pdfrwt beam="1">  1        4 0.21210194E-02 0.20005288E+02</pdfrwt>
<pdfrwt beam="2">  1       -4 0.11164988E-02 0.20005288E+02</pdfrwt>
<totfact> 0.12945177E+06</totfact>
</mgrwt>
</event>
<event>
 5    1  0.4710515E-007  0.2000407E+02  0.7818608E-02  0.1745247E+00
          4   -1    0    0  501    0  0.00000000000E+00  0.00000000000E+00  0.16596243794E+01  0.21842053660E+01  0.14200000000E+01 0. -1.
         -4   -1    0    0    0  501 -0.00000000000E+00 -0.00000000000E+00 -0.51516942913E+02  0.51536509458E+02  0.14200000000E+01 0.  1.
       1023    2    1    2    0    0  0.00000000000E+00  0.00000000000E+00 -0.49857318534E+02  0.53720714824E+02  0.20004074331E+02 0.  0.
        -13    1    3    3    0    0 -0.99459354941E+01 -0.10424524110E+01 -0.25319995739E+02  0.27223550404E+02  0.10570000000E+00 0.  1.
         13    1    3    3    0    0  0.99459354941E+01  0.10424524110E+01 -0.24537322795E+02  0.26497164420E+02  0.10570000000E+00 0. -1.
<mgrwt>
<rscale>  0 0.20004074E+02</rscale>
<asrwt>0</asrwt>
<pdfrwt beam="1">  1        4 0.29718437E-03 0.20004074E+02</pdfrwt>
<pdfrwt beam="2">  1       -4 0.79675400E-02 0.20004074E+02</pdfrwt>
<totfact> 0.11361853E+06</totfact>
</mgrwt>
</event>
<event>
 5    1  0.4710515E-007  0.2000141E+02  0.7818608E-02  0.1745300E+00
          4   -1    0    0  501    0  0.00000000000E+00  0.00000000000E+00  0.16620108696E+02  0.16680659851E+02  0.14200000000E+01 0.  1.
         -4   -1    0    0    0  501 -0.00000000000E+00 -0.00000000000E+00 -0.58612271630E+01  0.60307863381E+01  0.14200000000E+01 0. -1.
       1023    2    1    2    0    0  0.00000000000E+00  0.00000000000E+00  0.10758881533E+02  0.22711446189E+02  0.20001406355E+02 0.  0.
        -13    1    3    3    0    0  0.84722983929E+01 -0.53124746949E+01  0.54087027609E+01  0.11369585106E+02  0.10570000000E+00 0. -1.
         13    1    3    3    0    0 -0.84722983929E+01  0.53124746949E+01  0.53501787722E+01  0.11341861083E+02  0.10570000000E+00 0.  1.
<mgrwt>
<rscale>  0 0.20001406E+02</rscale>
<asrwt>0</asrwt>
<pdfrwt beam="1">  1        4 0.25746406E-02 0.20001406E+02</pdfrwt>
<pdfrwt beam="2">  1       -4 0.91942805E-03 0.20001406E+02</pdfrwt>
<totfact> 0.12853284E+06</totfact>
</mgrwt>
</event>
<event>
 5    1  0.4710515E-007  0.2000460E+02  0.7818608E-02  0.1745237E+00
          4   -1    0    0  501    0  0.00000000000E+00  0.00000000000E+00  0.32608798730E+01  0.35566469527E+01  0.14200000000E+01 0.  1.
         -4   -1    0    0    0  501 -0.00000000000E+00 -0.00000000000E+00 -0.29035778939E+02  0.29070480880E+02  0.14200000000E+01 0. -1.
       1023    2    1    2    0    0  0.00000000000E+00  0.00000000000E+00 -0.25774899066E+02  0.32627127833E+02  0.20004600690E+02 0.  0.
        -13    1    3    3    0    0 -0.99472438897E+01  0.10426031725E+01 -0.12907906634E+02  0.16329724692E+02  0.10570000000E+00 0. -1.
         13    1    3    3    0    0  0.99472438897E+01 -0.10426031725E+01 -0.12866992433E+02  0.16297403141E+02  0.10570000000E+00 0.  1.
<mgrwt>
<rscale>  0 0.20004601E+02</rscale>
<asrwt>0</asrwt>
<pdfrwt beam="1">  1        4 0.52709454E-03 0.20004601E+02</pdfrwt>
<pdfrwt beam="2">  1       -4 0.44924634E-02 0.20004601E+02</pdfrwt>
<totfact> 0.12314806E+06</totfact>
</mgrwt>
</event>
<event>
 4    1  0.4710515E-007  0.2001609E+02  0.7818608E-02  0.1745008E+00
          4   -1    0    0  501    0  0.00000000000E+00  0.00000000000E+00  0.31503219244E+01  0.34555648203E+01  0.14200000000E+01 0.  1.
         -4   -1    0    0    0  501 -0.00000000000E+00 -0.00000000000E+00 -0.30001951500E+02  0.30035537182E+02  0.14200000000E+01 0. -1.
        -13    1    1    2    0    0 -0.50003903659E+01  0.86684253705E+01 -0.13316083572E+02  0.16657573545E+02  0.10570000000E+00 0.  1.
         13    1    1    2    0    0  0.50003903659E+01 -0.86684253705E+01 -0.13535546003E+02  0.16833528457E+02  0.10570000000E+00 0. -1.
<mgrwt>
<rscale>  0 0.20016091E+02</rscale>
<asrwt>0</asrwt>
<pdfrwt beam="1">  1        4 0.51072867E-03 0.20016091E+02</pdfrwt>
<pdfrwt beam="2">  1       -4 0.46417484E-02 0.20016091E+02</pdfrwt>
<totfact> 0.12256976E+06</totfact>
</mgrwt>
</event>
<event>
 4    1  0.4710515E-007  0.2013368E+02  0.7818608E-02  0.1742683E+00
          4   -1    0    0  501    0  0.00000000000E+00  0.00000000000E+00  0.13271491851E+02  0.13347243009E+02  0.14200000000E+01 0. -1.
         -4   -1    0    0    0  501 -0.00000000000E+00 -0.00000000000E+00 -0.74714697689E+01  0.76052127194E+01  0.14200000000E+01 0.  1.
        -13    1    1    2    0    0  0.77561736912E+01  0.63933129696E+01  0.23324584993E+01  0.10319118964E+02  0.10570000000E+00 0.  1.
         13    1    1    2    0    0 -0.77561736912E+01 -0.63933129696E+01  0.34675635826E+01  0.10633336764E+02  0.10570000000E+00 0. -1.
<mgrwt>
<rscale>  0 0.20133682E+02</rscale>
<asrwt>0</asrwt>
<pdfrwt beam="1">  1        4 0.20578829E-02 0.20133682E+02</pdfrwt>
<pdfrwt beam="2">  1       -4 0.11655718E-02 0.20133682E+02</pdfrwt>
<totfact> 0.12782478E+06</totfact>
</mgrwt>
</event>
<event>
 5    1  0.4710515E-007  0.2000246E+02  0.7818608E-02  0.1745279E+00
         -4   -1    0    0    0  501 -0.00000000000E+00  0.00000000000E+00  0.42482320938E+02  0.42506046537E+02  0.14200000000E+01 0. -1.
          4   -1    0    0  501    0  0.00000000000E+00 -0.00000000000E+00 -0.21137103208E+01  0.25464036051E+01  0.14200000000E+01 0.  1.
       1023    2    1    2    0    0  0.00000000000E+00  0.00000000000E+00  0.40368610617E+02  0.45052450142E+02  0.20002463366E+02 0.  0.
        -13    1    3    3    0    0 -0.25022921277E+01  0.96824273890E+01  0.20299078894E+02  0.22629066319E+02  0.10570000000E+00 0. -1.
         13    1    3    3    0    0  0.25022921277E+01 -0.96824273890E+01  0.20069531722E+02  0.22423383823E+02  0.10570000000E+00 0.  1.
<mgrwt>
<rscale>  0 0.20002463E+02</rscale>
<asrwt>0</asrwt>
<pdfrwt beam="2">  1        4 0.36029540E-03 0.20002463E+02</pdfrwt>
<pdfrwt beam="1">  1       -4 0.65708498E-02 0.20002463E+02</pdfrwt>
<totfact> 0.11730570E+06</totfact>
</mgrwt>
</event>
<event>
 5    1  0.4710515E-007  0.2001173E+02  0.7818608E-02  0.1745095E+00
          4   -1    0    0  501    0  0.00000000000E+00  0.00000000000E+00  0.28622247416E+02  0.28657450116E+02  0.14200000000E+01 0. -1.
         -4   -1    0    0    0  501 -0.00000000000E+00 -0.00000000000E+00 -0.33147669617E+01  0.36061170268E+01  0.14200000000E+01 0.  1.
       1023    2    1    2    0    0  0.00000000000E+00  0.00000000000E+00  0.25307480454E+02  0.32263567143E+02  0.20011726508E+02 0.  0.
        -13    1    3    3    0    0 -0.20987945776E+01 -0.97825617750E+01  0.12570379732E+02  0.16066395758E+02  0.10570000000E+00 0. -1.
         13    1    3    3    0    0  0.20987945776E+01  0.97825617750E+01  0.12737100722E+02  0.16197171384E+02  0.10570000000E+00 0.  1.
<mgrwt>
<rscale>  0 0.20011727E+02</rscale>
<asrwt>0</asrwt>
<pdfrwt beam="1">  1        4 0.44285420E-02 0.20011727E+02</pdfrwt>
<pdfrwt beam="2">  1       -4 0.53508361E-03 0.20011727E+02</pdfrwt>
<totfact> 0.12324350E+06</totfact>
</mgrwt>
</event>
<event>
 5    1  0.4710515E-007  0.2000663E+02  0.7818608E-02  0.1745196E+00
          4   -1    0    0  501    0  0.00000000000E+00  0.00000000000E+00  0.10383299402E+01  0.17591273589E+01  0.14200000000E+01 0. -1.
         -4   -1    0    0    0  501 -0.00000000000E+00 -0.00000000000E+00 -0.70811169603E+02  0.70825406038E+02  0.14200000000E+01 0.  1.
       1023    2    1    2    0    0  0.00000000000E+00  0.00000000000E+00 -0.69772839663E+02  0.72584533397E+02  0.20006632249E+02 0.  0.
        -13    1    3    3    0    0 -0.91961328686E+01 -0.39336012459E+01 -0.34471451120E+02  0.35893372555E+02  0.10570000000E+00 0. -1.
         13    1    3    3    0    0  0.91961328686E+01  0.39336012459E+01 -0.35301388542E+02  0.36691160843E+02  0.10570000000E+00 0.  1.
<mgrwt>
<rscale>  0 0.20006632E+02</rscale>
<asrwt>0</asrwt>
<pdfrwt beam="1">  1        4 0.21628419E-03 0.20006632E+02</pdfrwt>
<pdfrwt beam="2">  1       -4 0.10950564E-01 0.20006632E+02</pdfrwt>
<totfact> 0.10653408E+06</totfact>
</mgrwt>
</event>
<event>
 5    1  0.4903451E-007  0.2000135E+02  0.7818608E-02  0.1745301E+00
          4   -1    0    0  501    0  0.00000000000E+00  0.00000000000E+00  0.93716165625E+01  0.94785862340E+01  0.14200000000E+01 0. -1.
         -4   -1    0    0    0  501 -0.00000000000E+00 -0.00000000000E+00 -0.10456160888E+02  0.10552141987E+02  0.14200000000E+01 0.  1.
       1023    2    1    2    0    0  0.00000000000E+00  0.00000000000E+00 -0.10845443253E+01  0.20030728221E+02  0.20001345871E+02 0.  0.
        -13    1    3    3    0    0 -0.13460117985E+01 -0.99090237665E+01 -0.58460610880E+00  0.10017656241E+02  0.10570000000E+00 0.  1.
         13    1    3    3    0    0  0.13460117985E+01  0.99090237665E+01 -0.49993821651E+00  0.10013071980E+02  0.10570000000E+00 0. -1.
<mgrwt>
<rscale>  0 0.20001346E+02</rscale>
<asrwt>0</asrwt>
<pdfrwt beam="1">  1        4 0.14573988E-02 0.20001346E+02</pdfrwt>
<pdfrwt beam="2">  1       -4 0.16242517E-02 0.20001346E+02</pdfrwt>
<totfact> 0.13010433E+06</totfact>
</mgrwt>
</event>
<event>
 5    1  0.4710515E-007  0.2000892E+02  0.7818608E-02  0.1745151E+00
         -4   -1    0    0    0  501 -0.00000000000E+00  0.00000000000E+00  0.99595598977E+01  0.10060279984E+02  0.14200000000E+01 0. -1.
          4   -1    0    0  501    0  0.00000000000E+00 -0.00000000000E+00 -0.98470974876E+01  0.99489561729E+01  0.14200000000E+01 0.  1.
       1023    2    1    2    0    0  0.00000000000E+00  0.00000000000E+00  0.11246241009E+00  0.20009236157E+02  0.20008920105E+02 0.  0.
        -13    1    3    3    0    0 -0.99542478789E+01 -0.98612860740E+00 -0.79961955982E-01  0.10003852601E+02  0.10570000000E+00 0.  1.
         13    1    3    3    0    0  0.99542478789E+01  0.98612860740E+00  0.19242436607E+00  0.10005383555E+02  0.10570000000E+00 0. -1.
<mgrwt>
<rscale>  0 0.20008920E+02</rscale>
<asrwt>0</asrwt>
<pdfrwt beam="2">  1        4 0.15305211E-02 0.20008920E+02</pdfrwt>
<pdfrwt beam="1">  1       -4 0.15478230E-02 0.20008920E+02</pdfrwt>
<totfact> 0.13001652E+06</totfact>
</mgrwt>
</event>
<event>
 5    1  0.4710515E-007  0.2000160E+02  0.7818608E-02  0.1745296E+00
          4   -1    0    0  501    0  0.00000000000E+00  0.00000000000E+00  0.11796381357E+02  0.11881540856E+02  0.14200000000E+01 0.  1.
         -4   -1    0    0    0  501 -0.00000000000E+00 -0.00000000000E+00 -0.83023865436E+01  0.84229461781E+01  0.14200000000E+01 0. -1.
       1023    2    1    2    0    0  0.00000000000E+00  0.00000000000E+00  0.34939948132E+01  0.20304487034E+02  0.20001604785E+02 0.  0.
        -13    1    3    3    0    0 -0.31292031272E+01 -0.94979979970E+01  0.17790643331E+01  0.10157761592E+02  0.10570000000E+00 0. -1.
         13    1    3    3    0    0  0.31292031272E+01  0.94979979970E+01  0.17149304801E+01  0.10146725442E+02  0.10570000000E+00 0.  1.
<mgrwt>
<rscale>  0 0.20001605E+02</rscale>
<asrwt>0</asrwt>
<pdfrwt beam="1">  1        4 0.18306524E-02 0.20001605E+02</pdfrwt>
<pdfrwt beam="2">  1       -4 0.12931148E-02 0.20001605E+02</pdfrwt>
<totfact> 0.12993793E+06</totfact>
</mgrwt>
</event>
<event>
 4    1  0.4710515E-007  0.2002343E+02  0.7818608E-02  0.1744862E+00
          4   -1    0    0  501    0  0.00000000000E+00  0.00000000000E+00  0.15317524055E+02  0.15383203281E+02  0.14200000000E+01 0.  1.
         -4   -1    0    0    0  501 -0.00000000000E+00 -0.00000000000E+00 -0.63859466025E+01  0.65419197496E+01  0.14200000000E+01 0. -1.
        -13    1    1    2    0    0  0.27940999265E+01  0.96129097520E+01  0.43661206844E+01  0.10921960017E+02  0.10570000000E+00 0.  1.
         13    1    1    2    0    0 -0.27940999265E+01 -0.96129097520E+01  0.45654567680E+01  0.11003163013E+02  0.10570000000E+00 0. -1.
<mgrwt>
<rscale>  0 0.20023435E+02</rscale>
<asrwt>0</asrwt>
<pdfrwt beam="1">  1        4 0.23735923E-02 0.20023435E+02</pdfrwt>
<pdfrwt beam="2">  1       -4 0.99950352E-03 0.20023435E+02</pdfrwt>
<totfact> 0.12869794E+06</totfact>
</mgrwt>
</event>
<event>
 5    1  0.4710515E-007  0.2000160E+02  0.7818608E-02  0.1745296E+00
         -4   -1    0    0    0  501 -0.00000000000E+00  0.00000000000E+00  0.20315861693E+02  0.20365427477E+02  0.14200000000E+01 0. -1.
          4   -1    0    0  501    0  0.00000000000E+00 -0.00000000000E+00 -0.47637908980E+01  0.49709258413E+01  0.14200000000E+01 0.  1.
       1023    2    1    2    0    0  0.00000000000E+00  0.00000000000E+00  0.15552070795E+02  0.25336353319E+02  0.20001597273E+02 0.  0.
        -13    1    3    3    0    0  0.93336688680E+01 -0.35898753097E+01  0.77948920305E+01  0.12679751320E+02  0.10570000000E+00 0.  1.
         13    1    3    3    0    0 -0.93336688680E+01  0.35898753097E+01  0.77571787647E+01  0.12656601999E+02  0.10570000000E+00 0. -1.
<mgrwt>
<rscale>  0 0.20001597E+02</rscale>
<asrwt>0</asrwt>
<pdfrwt beam="2">  1        4 0.75263712E-03 0.20001597E+02</pdfrwt>
<pdfrwt beam="1">  1       -4 0.31452634E-02 0.20001597E+02</pdfrwt>
<totfact> 0.12704801E+06</totfact>
</mgrwt>
</event>
<event>
 5    1  0.4710515E-007  0.2000118E+02  0.7818608E-02  0.1745305E+00
          4   -1    0    0  501    0  0.00000000000E+00  0.00000000000E+00  0.38601669842E+02  0.38627779053E+02  0.14200000000E+01 0. -1.
         -4   -1    0    0    0  501 -0.00000000000E+00 -0.00000000000E+00 -0.23671951659E+01  0.27604370947E+01  0.14200000000E+01 0.  1.
       1023    2    1    2    0    0  0.00000000000E+00  0.00000000000E+00  0.36234474676E+02  0.41388216148E+02  0.20001181986E+02 0.  0.
        -13    1    3    3    0    0 -0.54397895198E+01 -0.83910264123E+01  0.18109647718E+02  0.20687463528E+02  0.10570000000E+00 0.  1.
         13    1    3    3    0    0  0.54397895198E+01  0.83910264123E+01  0.18124826958E+02  0.20700752620E+02  0.10570000000E+00 0. -1.
<mgrwt>
<rscale>  0 0.20001182E+02</rscale>
<asrwt>0</asrwt>
<pdfrwt beam="1">  1        4 0.59709756E-02 0.20001182E+02</pdfrwt>
<pdfrwt beam="2">  1       -4 0.39644169E-03 0.20001182E+02</pdfrwt>
<totfact> 0.11897059E+06</totfact>
</mgrwt>
</event>
<event>
 4    1  0.4710515E-007  0.2001814E+02  0.7818608E-02  0.1744968E+00
         -4   -1    0    0    0  501 -0.00000000000E+00  0.00000000000E+00  0.15107821070E+02  0.15174407978E+02  0.14200000000E+01 0.  1.
          4   -1    0    0  501    0  0.00000000000E+00 -0.00000000000E+00 -0.64727982933E+01  0.66267275292E+01  0.14200000000E+01 0. -1.
        -13    1    1    2    0    0 -0.98925039864E+01  0.15180417196E+01  0.43882127857E+01  0.10928571257E+02  0.10570000000E+00 0. -1.
         13    1    1    2    0    0  0.98925039864E+01 -0.15180417196E+01  0.42468099914E+01  0.10872564250E+02  0.10570000000E+00 0.  1.
<mgrwt>
<rscale>  0 0.20018139E+02</rscale>
<asrwt>0</asrwt>
<pdfrwt beam="2">  1        4 0.10127779E-02 0.20018139E+02</pdfrwt>
<pdfrwt beam="1">  1       -4 0.23412429E-02 0.20018139E+02</pdfrwt>
<totfact> 0.12883939E+06</totfact>
</mgrwt>
</event>
<event>
 4    1  0.4710515E-007  0.2002831E+02  0.7818608E-02  0.1744766E+00
         -4   -1    0    0    0  501 -0.00000000000E+00  0.00000000000E+00  0.11941486712E+02  0.12025618691E+02  0.14200000000E+01 0. -1.
          4   -1    0    0  501    0  0.00000000000E+00 -0.00000000000E+00 -0.82232177227E+01  0.83449211929E+01  0.14200000000E+01 0.  1.
        -13    1    1    2    0    0 -0.21461734995E+00 -0.10006372334E+02  0.15397264886E+01  0.10126967860E+02  0.10570000000E+00 0. -1.
         13    1    1    2    0    0  0.21461734995E+00  0.10006372334E+02  0.21785425011E+01  0.10243572024E+02  0.10570000000E+00 0.  1.
<mgrwt>
<rscale>  0 0.20028314E+02</rscale>
<asrwt>0</asrwt>
<pdfrwt beam="2">  1        4 0.12809439E-02 0.20028314E+02</pdfrwt>
<pdfrwt beam="1">  1       -4 0.18529853E-02 0.20028314E+02</pdfrwt>
<totfact> 0.12954530E+06</totfact>
</mgrwt>
</event>
<event>
 5    1  0.4710515E-007  0.2000356E+02  0.7818608E-02  0.1745257E+00
         -4   -1    0    0    0  501 -0.00000000000E+00  0.00000000000E+00  0.57548492130E+02  0.57566008603E+02  0.14200000000E+01 0. -1.
          4   -1    0    0  501    0  0.00000000000E+00 -0.00000000000E+00 -0.14274539456E+01  0.20134608928E+01  0.14200000000E+01 0.  1.
       1023    2    1    2    0    0  0.00000000000E+00  0.00000000000E+00  0.56121038185E+02  0.59579469496E+02  0.20003556145E+02 0.  0.
        -13    1    3    3    0    0  0.44798959317E+01  0.89417495612E+01  0.28041835156E+02  0.29772135365E+02  0.10570000000E+00 0. -1.
         13    1    3    3    0    0 -0.44798959317E+01 -0.89417495612E+01  0.28079203029E+02  0.29807334131E+02  0.10570000000E+00 0.  1.
<mgrwt>
<rscale>  0 0.20003556E+02</rscale>
<asrwt>0</asrwt>
<pdfrwt beam="2">  1        4 0.26603318E-03 0.20003556E+02</pdfrwt>
<pdfrwt beam="1">  1       -4 0.89000389E-02 0.20003556E+02</pdfrwt>
<totfact> 0.11131047E+06</totfact>
</mgrwt>
</event>
<event>
 5    1  0.4710515E-007  0.2000496E+02  0.7818608E-02  0.1745229E+00
          4   -1    0    0  501    0  0.00000000000E+00  0.00000000000E+00  0.54960933532E+01  0.56765695756E+01  0.14200000000E+01 0.  1.
         -4   -1    0    0    0  501 -0.00000000000E+00 -0.00000000000E+00 -0.17700348902E+02  0.17757216878E+02  0.14200000000E+01 0. -1.
       1023    2    1    2    0    0  0.00000000000E+00  0.00000000000E+00 -0.12204255548E+02  0.23433786453E+02  0.20004961736E+02 0.  0.
        -13    1    3    3    0    0  0.53689469194E+01  0.84385611409E+01 -0.61718812821E+01  0.11753220674E+02  0.10570000000E+00 0. -1.
         13    1    3    3    0    0 -0.53689469194E+01 -0.84385611409E+01 -0.60323742663E+01  0.11680565780E+02  0.10570000000E+00 0.  1.
<mgrwt>
<rscale>  0 0.20004962E+02</rscale>
<asrwt>0</asrwt>
<pdfrwt beam="1">  1        4 0.86381008E-03 0.20004962E+02</pdfrwt>
<pdfrwt beam="2">  1       -4 0.27413878E-02 0.20004962E+02</pdfrwt>
<totfact> 0.12807353E+06</totfact>
</mgrwt>
</event>
<event>
 5    1  0.4710515E-007  0.2000312E+02  0.7818608E-02  0.1745266E+00
         -4   -1    0    0    0  501 -0.00000000000E+00  0.00000000000E+00  0.31103882278E+02  0.31136279366E+02  0.14200000000E+01 0. -1.
          4   -1    0    0  501    0  0.00000000000E+00 -0.00000000000E+00 -0.30234535260E+01  0.33403100490E+01  0.14200000000E+01 0.  1.
       1023    2    1    2    0    0  0.00000000000E+00  0.00000000000E+00  0.28080428752E+02  0.34476589415E+02  0.20003118227E+02 0.  0.
        -13    1    3    3    0    0 -0.35297071941E+01 -0.93573775887E+01  0.14084627351E+02  0.17274468105E+02  0.10570000000E+00 0.  1.
         13    1    3    3    0    0  0.35297071941E+01  0.93573775887E+01  0.13995801402E+02  0.17202121310E+02  0.10570000000E+00 0. -1.
<mgrwt>
<rscale>  0 0.20003118E+02</rscale>
<asrwt>0</asrwt>
<pdfrwt beam="2">  1        4 0.49201238E-03 0.20003118E+02</pdfrwt>
<pdfrwt beam="1">  1       -4 0.48120781E-02 0.20003118E+02</pdfrwt>
<totfact> 0.12223989E+06</totfact>
</mgrwt>
</event>
<event>
 4    1  0.4710515E-007  0.2001378E+02  0.7818608E-02  0.1745054E+00
         -4   -1    0    0    0  501 -0.00000000000E+00  0.00000000000E+00  0.44920773394E+02  0.44943211749E+02  0.14200000000E+01 0. -1.
          4   -1    0    0  501    0  0.00000000000E+00 -0.00000000000E+00 -0.19776618137E+01  0.24346552630E+01  0.14200000000E+01 0.  1.
        -13    1    1    2    0    0  0.14587749399E+01 -0.98982533605E+01  0.21110626338E+02  0.23361788476E+02  0.10570000000E+00 0. -1.
         13    1    1    2    0    0 -0.14587749399E+01  0.98982533605E+01  0.21832485242E+02  0.24016078536E+02  0.10570000000E+00 0.  1.
<mgrwt>
<rscale>  0 0.20013782E+02</rscale>
<asrwt>0</asrwt>
<pdfrwt beam="2">  1        4 0.34113505E-03 0.20013782E+02</pdfrwt>
<pdfrwt beam="1">  1       -4 0.69477672E-02 0.20013782E+02</pdfrwt>
<totfact> 0.11615761E+06</totfact>
</mgrwt>
</event>
<event>
 4    1  0.4710515E-007  0.2001862E+02  0.7818608E-02  0.1744958E+00
          4   -1    0    0  501    0  0.00000000000E+00  0.00000000000E+00  0.94075389050E+00  0.17033548904E+01  0.14200000000E+01 0.  1.
         -4   -1    0    0    0  501 -0.00000000000E+00 -0.00000000000E+00 -0.75009520349E+02  0.75022960106E+02  0.14200000000E+01 0. -1.
        -13    1    1    2    0    0 -0.85591993418E+01 -0.51856320827E+01 -0.37633887576E+02  0.38941896975E+02  0.10570000000E+00 0. -1.
         13    1    1    2    0    0  0.85591993418E+01  0.51856320827E+01 -0.36434878883E+02  0.37784418021E+02  0.10570000000E+00 0.  1.
<mgrwt>
<rscale>  0 0.20018623E+02</rscale>
<asrwt>0</asrwt>
<pdfrwt beam="1">  1        4 0.20442687E-03 0.20018623E+02</pdfrwt>
<pdfrwt beam="2">  1       -4 0.11599618E-01 0.20018623E+02</pdfrwt>
<totfact> 0.10499891E+06</totfact>
</mgrwt>
</event>
<event>
 5    1  0.4713745E-007  0.2000198E+02  0.7818608E-02  0.1745289E+00
         -4   -1    0    0    0  501 -0.00000000000E+00  0.00000000000E+00  0.15831235376E+02  0.15894792026E+02  0.14200000000E+01 0.  1.
          4   -1    0    0  501    0  0.00000000000E+00 -0.00000000000E+00 -0.61607372202E+01  0.63222688251E+01  0.14200000000E+01 0. -1.
       1023    2    1    2    0    0  0.00000000000E+00  0.00000000000E+00  0.96704981563E+01  0.22217060851E+02  0.20001981358E+02 0.  0.
        -13    1    3    3    0    0  0.44856435239E+01  0.89378427592E+01  0.48920064494E+01  0.11133235406E+02  0.10570000000E+00 0.  1.
         13    1    3    3    0    0 -0.44856435239E+01 -0.89378427592E+01  0.47784917068E+01  0.11083825445E+02  0.10570000000E+00 0. -1.
<mgrwt>
<rscale>  0 0.20001981E+02</rscale>
<asrwt>0</asrwt>
<pdfrwt beam="2">  1        4 0.96512023E-03 0.20001981E+02</pdfrwt>
<pdfrwt beam="1">  1       -4 0.24528891E-02 0.20001981E+02</pdfrwt>
<totfact> 0.12881042E+06</totfact>
</mgrwt>
</event>
<event>
 5    1  0.4710515E-007  0.2000213E+02  0.7818608E-02  0.1745286E+00
         -4   -1    0    0    0  501 -0.00000000000E+00  0.00000000000E+00  0.10859236167E+01  0.17876325409E+01  0.14200000000E+01 0.  1.
          4   -1    0    0  501    0  0.00000000000E+00 -0.00000000000E+00 -0.68904202788E+02  0.68918833143E+02  0.14200000000E+01 0. -1.
       1023    2    1    2    0    0  0.00000000000E+00  0.00000000000E+00 -0.67818279171E+02  0.70706465684E+02  0.20002132382E+02 0.  0.
        -13    1    3    3    0    0 -0.10041288207E+01 -0.99499619177E+01 -0.33867974516E+02  0.35313749265E+02  0.10570000000E+00 0. -1.
         13    1    3    3    0    0  0.10041288207E+01  0.99499619177E+01 -0.33950304655E+02  0.35392716419E+02  0.10570000000E+00 0.  1.
<mgrwt>
<rscale>  0 0.20002132E+02</rscale>
<asrwt>0</asrwt>
<pdfrwt beam="2">  1        4 0.10655747E-01 0.20002132E+02</pdfrwt>
<pdfrwt beam="1">  1       -4 0.22216825E-03 0.20002132E+02</pdfrwt>
<totfact> 0.10723637E+06</totfact>
</mgrwt>
</event>
<event>
 4    1  0.4710515E-007  0.2068600E+02  0.7818608E-02  0.1732020E+00
         -4   -1    0    0    0  501 -0.00000000000E+00  0.00000000000E+00  0.11983903846E+02  0.12067740111E+02  0.14200000000E+01 0.  1.
          4   -1    0    0  501    0  0.00000000000E+00 -0.00000000000E+00 -0.87544205469E+01  0.88688375288E+01  0.14200000000E+01 0. -1.
        -13    1    1    2    0    0  0.76494116077E+01 -0.67140079150E+01  0.34741420210E+01  0.10755102766E+02  0.10570000000E+00 0.  1.
         13    1    1    2    0    0 -0.76494116077E+01  0.67140079150E+01 -0.24465872232E+00  0.10181474874E+02  0.10570000000E+00 0. -1.
<mgrwt>
<rscale>  0 0.20686003E+02</rscale>
<asrwt>0</asrwt>
<pdfrwt beam="2">  1        4 0.13620842E-02 0.20686003E+02</pdfrwt>
<pdfrwt beam="1">  1       -4 0.18589278E-02 0.20686003E+02</pdfrwt>
<totfact> 0.12090086E+06</totfact>
</mgrwt>
</event>
<event>
 5    1  0.4710515E-007  0.2000582E+02  0.7818608E-02  0.1745212E+00
         -4   -1    0    0    0  501 -0.00000000000E+00  0.00000000000E+00  0.83491058100E+00  0.16472630871E+01  0.14200000000E+01 0.  1.
          4   -1    0    0  501    0  0.00000000000E+00 -0.00000000000E+00 -0.79800699212E+02  0.79813332186E+02  0.14200000000E+01 0. -1.
       1023    2    1    2    0    0  0.00000000000E+00  0.00000000000E+00 -0.78965788631E+02  0.81460595274E+02  0.20005819359E+02 0.  0.
        -13    1    3    3    0    0 -0.85589312014E+01  0.51748805449E+01 -0.39935173525E+02  0.41168725374E+02  0.10570000000E+00 0. -1.
         13    1    3    3    0    0  0.85589312014E+01 -0.51748805449E+01 -0.39030615105E+02  0.40291869899E+02  0.10570000000E+00 0.  1.
<mgrwt>
<rscale>  0 0.20005819E+02</rscale>
<asrwt>0</asrwt>
<pdfrwt beam="2">  1        4 0.12340487E-01 0.20005819E+02</pdfrwt>
<pdfrwt beam="1">  1       -4 0.19190827E-03 0.20005819E+02</pdfrwt>
<totfact> 0.10357644E+06</totfact>
</mgrwt>
</event>
<event>
 4    1  0.4710515E-007  0.2001961E+02  0.7818608E-02  0.1744938E+00
         -4   -1    0    0    0  501 -0.00000000000E+00  0.00000000000E+00  0.99555817627E+00  0.17342249226E+01  0.14200000000E+01 0. -1.
          4   -1    0    0  501    0  0.00000000000E+00 -0.00000000000E+00 -0.72662166995E+02  0.72676040842E+02  0.14200000000E+01 0.  1.
        -13    1    1    2    0    0 -0.60704921536E+01 -0.79502859528E+01 -0.37158479778E+02  0.38481446356E+02  0.10570000000E+00 0. -1.
         13    1    1    2    0    0  0.60704921536E+01  0.79502859528E+01 -0.34508129041E+02  0.35928819409E+02  0.10570000000E+00 0.  1.
<mgrwt>
<rscale>  0 0.20019611E+02</rscale>
<asrwt>0</asrwt>
<pdfrwt beam="2">  1        4 0.11236680E-01 0.20019611E+02</pdfrwt>
<pdfrwt beam="1">  1       -4 0.21105059E-03 0.20019611E+02</pdfrwt>
<totfact> 0.10576978E+06</totfact>
</mgrwt>
</event>
<event>
 4    1  0.4710515E-007  0.2005082E+02  0.7818608E-02  0.1744319E+00
         -4   -1    0    0    0  501 -0.00000000000E+00  0.00000000000E+00  0.13792651961E+01  0.19795889678E+01  0.14200000000E+01 0. -1.
          4   -1    0    0  501    0  0.00000000000E+00 -0.00000000000E+00 -0.59236737240E+02  0.59253754639E+02  0.14200000000E+01 0.  1.
        -13    1    1    2    0    0 -0.10022469712E+02 -0.20719285232E+00 -0.28716626853E+02  0.30416256481E+02  0.10570000000E+00 0.  1.
         13    1    1    2    0    0  0.10022469712E+02  0.20719285232E+00 -0.29140845191E+02  0.30817087126E+02  0.10570000000E+00 0. -1.
<mgrwt>
<rscale>  0 0.20050818E+02</rscale>
<asrwt>0</asrwt>
<pdfrwt beam="2">  1        4 0.91608303E-02 0.20050818E+02</pdfrwt>
<pdfrwt beam="1">  1       -4 0.25968247E-03 0.20050818E+02</pdfrwt>
<totfact> 0.11015374E+06</totfact>
</mgrwt>
</event>
<event>
 4    1  0.4710515E-007  0.2001878E+02  0.7818608E-02  0.1744955E+00
         -4   -1    0    0    0  501 -0.00000000000E+00  0.00000000000E+00  0.59780553646E+00  0.15407048580E+01  0.14200000000E+01 0.  1.
          4   -1    0    0  501    0  0.00000000000E+00 -0.00000000000E+00 -0.92748052421E+02  0.92758922093E+02  0.14200000000E+01 0. -1.
        -13    1    1    2    0    0  0.89506218855E+01  0.44594779689E+01 -0.48052223533E+02  0.49081849342E+02  0.10570000000E+00 0. -1.
         13    1    1    2    0    0 -0.89506218855E+01 -0.44594779689E+01 -0.44098023352E+02  0.45217777609E+02  0.10570000000E+00 0.  1.
<mgrwt>
<rscale>  0 0.20018782E+02</rscale>
<asrwt>0</asrwt>
<pdfrwt beam="2">  1        4 0.14342292E-01 0.20018782E+02</pdfrwt>
<pdfrwt beam="1">  1       -4 0.16533700E-03 0.20018782E+02</pdfrwt>
<totfact> 0.99479976E+05</totfact>
</mgrwt>
</event>
<event>
 5    1  0.4710515E-007  0.2000139E+02  0.7818608E-02  0.1745300E+00
          4   -1    0    0  501    0  0.00000000000E+00  0.00000000000E+00  0.93347013299E+02  0.93357813234E+02  0.14200000000E+01 0. -1.
         -4   -1    0    0    0  501 -0.00000000000E+00 -0.00000000000E+00 -0.58520363231E+00  0.15358591378E+01  0.14200000000E+01 0.  1.
       1023    2    1    2    0    0  0.00000000000E+00  0.00000000000E+00  0.92761809666E+02  0.94893672372E+02  0.20001393041E+02 0.  0.
        -13    1    3    3    0    0 -0.43048720856E+01 -0.90261178418E+01  0.46407505937E+02  0.47472839674E+02  0.10570000000E+00 0.  1.
         13    1    3    3    0    0  0.43048720856E+01  0.90261178418E+01  0.46354303730E+02  0.47420832697E+02  0.10570000000E+00 0. -1.
<mgrwt>
<rscale>  0 0.20001393E+02</rscale>
<asrwt>0</asrwt>
<pdfrwt beam="1">  1        4 0.14435035E-01 0.20001393E+02</pdfrwt>
<pdfrwt beam="2">  1       -4 0.16398946E-03 0.20001393E+02</pdfrwt>
<totfact> 0.99477462E+05</totfact>
</mgrwt>
</event>
<event>
 5    1  0.4710515E-007  0.2000189E+02  0.7818608E-02  0.1745291E+00
          4   -1    0    0  501    0  0.00000000000E+00  0.00000000000E+00  0.95739606577E+01  0.96786942650E+01  0.14200000000E+01 0. -1.
         -4   -1    0    0    0  501 -0.00000000000E+00 -0.00000000000E+00 -0.10236124734E+02  0.10334149678E+02  0.14200000000E+01 0.  1.
       1023    2    1    2    0    0  0.00000000000E+00  0.00000000000E+00 -0.66216407594E+00  0.20012843943E+02  0.20001886446E+02 0.  0.
        -13    1    3    3    0    0  0.89271222469E+01  0.45071238525E+01 -0.33506306646E+00  0.10006553692E+02  0.10570000000E+00 0.  1.
         13    1    3    3    0    0 -0.89271222469E+01 -0.45071238525E+01 -0.32710100948E+00  0.10006290251E+02  0.10570000000E+00 0. -1.
<mgrwt>
<rscale>  0 0.20001886E+02</rscale>
<asrwt>0</asrwt>
<pdfrwt beam="1">  1        4 0.14885138E-02 0.20001886E+02</pdfrwt>
<pdfrwt beam="2">  1       -4 0.15903852E-02 0.20001886E+02</pdfrwt>
<totfact> 0.13010776E+06</totfact>
</mgrwt>
</event>
<event>
 5    1  0.4772177E-007  0.2000675E+02  0.7818608E-02  0.1745194E+00
         -4   -1    0    0    0  501 -0.00000000000E+00  0.00000000000E+00  0.76701924248E+01  0.78005289457E+01  0.14200000000E+01 0. -1.
          4   -1    0    0  501    0  0.00000000000E+00 -0.00000000000E+00 -0.12766345525E+02  0.12845076024E+02  0.14200000000E+01 0.  1.
       1023    2    1    2    0    0  0.00000000000E+00  0.00000000000E+00 -0.50961531002E+01  0.20645604970E+02  0.20006754563E+02 0.  0.
        -13    1    3    3    0    0 -0.10002011909E+02 -0.92625104570E-01 -0.24583346069E+01  0.10300650619E+02  0.10570000000E+00 0. -1.
         13    1    3    3    0    0  0.10002011909E+02  0.92625104570E-01 -0.26378184933E+01  0.10344954351E+02  0.10570000000E+00 0.  1.
<mgrwt>
<rscale>  0 0.20006755E+02</rscale>
<asrwt>0</asrwt>
<pdfrwt beam="2">  1        4 0.19801352E-02 0.20006755E+02</pdfrwt>
<pdfrwt beam="1">  1       -4 0.11961117E-02 0.20006755E+02</pdfrwt>
<totfact> 0.12966772E+06</totfact>
</mgrwt>
</event>
<event>
 5    1  0.4710515E-007  0.2000337E+02  0.7818608E-02  0.1745261E+00
          4   -1    0    0  501    0  0.00000000000E+00  0.00000000000E+00  0.23844559676E+02  0.23886804435E+02  0.14200000000E+01 0.  1.
         -4   -1    0    0    0  501 -0.00000000000E+00 -0.00000000000E+00 -0.40276840750E+01  0.42706719622E+01  0.14200000000E+01 0. -1.
       1023    2    1    2    0    0  0.00000000000E+00  0.00000000000E+00  0.19816875601E+02  0.28157476397E+02  0.20003372678E+02 0.  0.
        -13    1    3    3    0    0 -0.97596245551E+01 -0.21833038397E+01  0.10012546022E+02  0.14152008248E+02  0.10570000000E+00 0. -1.
         13    1    3    3    0    0  0.97596245551E+01  0.21833038397E+01  0.98043295782E+01  0.14005468149E+02  0.10570000000E+00 0.  1.
<mgrwt>
<rscale>  0 0.20003373E+02</rscale>
<asrwt>0</asrwt>
<pdfrwt beam="1">  1        4 0.36903349E-02 0.20003373E+02</pdfrwt>
<pdfrwt beam="2">  1       -4 0.64158466E-03 0.20003373E+02</pdfrwt>
<totfact> 0.12548815E+06</totfact>
</mgrwt>
</event>
<event>
 5    1  0.4710515E-007  0.2000481E+02  0.7818608E-02  0.1745232E+00
         -4   -1    0    0    0  501 -0.00000000000E+00  0.00000000000E+00  0.19460888090E+02  0.19512625791E+02  0.14200000000E+01 0. -1.
          4   -1    0    0  501    0  0.00000000000E+00 -0.00000000000E+00 -0.49831031232E+01  0.51814782385E+01  0.14200000000E+01 0.  1.
       1023    2    1    2    0    0  0.00000000000E+00  0.00000000000E+00  0.14477784967E+02  0.24694104030E+02  0.20004812328E+02 0.  0.
        -13    1    3    3    0    0 -0.86704512957E+01 -0.49854527246E+01  0.71474126109E+01  0.12293418730E+02  0.10570000000E+00 0.  1.
         13    1    3    3    0    0  0.86704512957E+01  0.49854527246E+01  0.73303723562E+01  0.12400685300E+02  0.10570000000E+00 0. -1.
<mgrwt>
<rscale>  0 0.20004812E+02</rscale>
<asrwt>0</asrwt>
<pdfrwt beam="2">  1        4 0.78587070E-03 0.20004812E+02</pdfrwt>
<pdfrwt beam="1">  1       -4 0.30132222E-02 0.20004812E+02</pdfrwt>
<totfact> 0.12736463E+06</totfact>
</mgrwt>
</event>
<event>
 5    1  0.4710515E-007  0.2000542E+02  0.7818608E-02  0.1745220E+00
          4   -1    0    0  501    0  0.00000000000E+00  0.00000000000E+00  0.54099327227E+02  0.54117960109E+02  0.14200000000E+01 0.  1.
         -4   -1    0    0    0  501 -0.00000000000E+00 -0.00000000000E+00 -0.15550586488E+01  0.21058507547E+01  0.14200000000E+01 0. -1.
       1023    2    1    2    0    0  0.00000000000E+00  0.00000000000E+00  0.52544268578E+02  0.56223810864E+02  0.20005417958E+02 0.  0.
        -13    1    3    3    0    0 -0.84985481273E+01  0.52739181310E+01  0.26437966356E+02  0.28266884693E+02  0.10570000000E+00 0.  1.
         13    1    3    3    0    0  0.84985481273E+01 -0.52739181310E+01  0.26106302223E+02  0.27956926171E+02  0.10570000000E+00 0. -1.
<mgrwt>
<rscale>  0 0.20005418E+02</rscale>
<asrwt>0</asrwt>
<pdfrwt beam="1">  1        4 0.83667754E-02 0.20005418E+02</pdfrwt>
<pdfrwt beam="2">  1       -4 0.28304171E-03 0.20005418E+02</pdfrwt>
<totfact> 0.11259963E+06</totfact>
</mgrwt>
</event>
<event>
 5    1  0.4710515E-007  0.2000171E+02  0.7818608E-02  0.1745294E+00
         -4   -1    0    0    0  501 -0.00000000000E+00  0.00000000000E+00  0.43790028181E+00  0.14859867620E+01  0.14200000000E+01 0.  1.
          4   -1    0    0  501    0  0.00000000000E+00 -0.00000000000E+00 -0.10291838285E+03  0.10292817849E+03  0.14200000000E+01 0. -1.
       1023    2    1    2    0    0  0.00000000000E+00  0.00000000000E+00 -0.10248048257E+03  0.10441416526E+03  0.20001714903E+02 0.  0.
        -13    1    3    3    0    0 -0.18834581485E+01  0.98213216281E+01 -0.51165652467E+02  0.52133875148E+02  0.10570000000E+00 0.  1.
         13    1    3    3    0    0  0.18834581485E+01 -0.98213216281E+01 -0.51314830100E+02  0.52280290108E+02  0.10570000000E+00 0. -1.
<mgrwt>
<rscale>  0 0.20001715E+02</rscale>
<asrwt>0</asrwt>
<pdfrwt beam="2">  1        4 0.15914964E-01 0.20001715E+02</pdfrwt>
<pdfrwt beam="1">  1       -4 0.14874490E-03 0.20001715E+02</pdfrwt>
<totfact> 0.96756818E+05</totfact>
</mgrwt>
</event>
<event>
 5    1  0.4710515E-007  0.2000236E+02  0.7818608E-02  0.1745281E+00
         -4   -1    0    0    0  501 -0.00000000000E+00  0.00000000000E+00  0.11300794514E+03  0.11301686628E+03  0.14200000000E+01 0.  1.
          4   -1    0    0  501    0  0.00000000000E+00 -0.00000000000E+00 -0.30074790718E+00  0.14514989851E+01  0.14200000000E+01 0. -1.
       1023    2    1    2    0    0  0.00000000000E+00  0.00000000000E+00  0.11270719723E+03  0.11446836527E+03  0.20002358346E+02 0.  0.
        -13    1    3    3    0    0 -0.87249978926E+01 -0.48867688096E+01  0.56808358214E+02  0.57681945469E+02  0.10570000000E+00 0. -1.
         13    1    3    3    0    0  0.87249978926E+01  0.48867688096E+01  0.55898839017E+02  0.56786419799E+02  0.10570000000E+00 0.  1.
<mgrwt>
<rscale>  0 0.20002358E+02</rscale>
<asrwt>0</asrwt>
<pdfrwt beam="2">  1        4 0.13547448E-03 0.20002358E+02</pdfrwt>
<pdfrwt beam="1">  1       -4 0.17475042E-01 0.20002358E+02</pdfrwt>
<totfact> 0.94052059E+05</totfact>
</mgrwt>
</event>
<event>
 5    1  0.4710515E-007  0.2000392E+02  0.7818608E-02  0.1745250E+00
         -4   -1    0    0    0  501 -0.00000000000E+00  0.00000000000E+00  0.84345810542E+00  0.16516118114E+01  0.14200000000E+01 0.  1.
          4   -1    0    0  501    0  0.00000000000E+00 -0.00000000000E+00 -0.79372928053E+02  0.79385629100E+02  0.14200000000E+01 0. -1.
       1023    2    1    2    0    0  0.00000000000E+00  0.00000000000E+00 -0.78529469947E+02  0.81037240912E+02  0.20003918726E+02 0.  0.
        -13    1    3    3    0    0 -0.10768041822E+01 -0.99427123365E+01 -0.39689281424E+02  0.40930028931E+02  0.10570000000E+00 0. -1.
         13    1    3    3    0    0  0.10768041822E+01  0.99427123365E+01 -0.38840188523E+02  0.40107211981E+02  0.10570000000E+00 0.  1.
<mgrwt>
<rscale>  0 0.20003919E+02</rscale>
<asrwt>0</asrwt>
<pdfrwt beam="2">  1        4 0.12274358E-01 0.20003919E+02</pdfrwt>
<pdfrwt beam="1">  1       -4 0.19290552E-03 0.20003919E+02</pdfrwt>
<totfact> 0.10373319E+06</totfact>
</mgrwt>
</event>
<event>
 4    1  0.4710515E-007  0.2001726E+02  0.7818608E-02  0.1744985E+00
          4   -1    0    0  501    0  0.00000000000E+00  0.00000000000E+00  0.44051822860E+01  0.46283939950E+01  0.14200000000E+01 0.  1.
         -4   -1    0    0    0  501 -0.00000000000E+00 -0.00000000000E+00 -0.21931114795E+02  0.21977037930E+02  0.14200000000E+01 0. -1.
        -13    1    1    2    0    0 -0.94439039552E+01 -0.33080429409E+01 -0.85288293832E+01  0.13148481781E+02  0.10570000000E+00 0.  1.
         13    1    1    2    0    0  0.94439039552E+01  0.33080429409E+01 -0.89971031259E+01  0.13456950143E+02  0.10570000000E+00 0. -1.
<mgrwt>
<rscale>  0 0.20017260E+02</rscale>
<asrwt>0</asrwt>
<pdfrwt beam="1">  1        4 0.69842304E-03 0.20017260E+02</pdfrwt>
<pdfrwt beam="2">  1       -4 0.33947203E-02 0.20017260E+02</pdfrwt>
<totfact> 0.12614813E+06</totfact>
</mgrwt>
</event>
<event>
 5    1  0.4710515E-007  0.2000209E+02  0.7818608E-02  0.1745287E+00
         -4   -1    0    0    0  501 -0.00000000000E+00  0.00000000000E+00  0.75518876631E+00  0.16083252385E+01  0.14200000000E+01 0. -1.
          4   -1    0    0  501    0  0.00000000000E+00 -0.00000000000E+00 -0.83776099997E+02  0.83788133591E+02  0.14200000000E+01 0.  1.
       1023    2    1    2    0    0  0.00000000000E+00  0.00000000000E+00 -0.83020911230E+02  0.85396458830E+02  0.20002086868E+02 0.  0.
        -13    1    3    3    0    0 -0.42612939664E+01 -0.90471556499E+01 -0.41539304758E+02  0.42726276035E+02  0.10570000000E+00 0.  1.
         13    1    3    3    0    0  0.42612939664E+01  0.90471556499E+01 -0.41481606473E+02  0.42670182794E+02  0.10570000000E+00 0. -1.
<mgrwt>
<rscale>  0 0.20002087E+02</rscale>
<asrwt>0</asrwt>
<pdfrwt beam="2">  1        4 0.12955178E-01 0.20002087E+02</pdfrwt>
<pdfrwt beam="1">  1       -4 0.18273450E-03 0.20002087E+02</pdfrwt>
<totfact> 0.10236078E+06</totfact>
</mgrwt>
</event>
<event>
 5    1  0.4710515E-007  0.2000452E+02  0.7818608E-02  0.1745238E+00
         -4   -1    0    0    0  501 -0.00000000000E+00  0.00000000000E+00  0.11664882579E+03  0.11665746850E+03  0.14200000000E+01 0. -1.
          4   -1    0    0  501    0  0.00000000000E+00 -0.00000000000E+00 -0.25518333349E+00  0.14427468710E+01  0.14200000000E+01 0.  1.
       1023    2    1    2    0    0  0.00000000000E+00  0.00000000000E+00  0.11639364245E+03  0.11810021538E+03  0.20004521183E+02 0.  0.
        -13    1    3    3    0    0 -0.92180141455E+01  0.38782684408E+01  0.57335338297E+02  0.58201073366E+02  0.10570000000E+00 0.  1.
         13    1    3    3    0    0  0.92180141455E+01 -0.38782684408E+01  0.59058304158E+02  0.59899142009E+02  0.10570000000E+00 0. -1.
<mgrwt>
<rscale>  0 0.20004521E+02</rscale>
<asrwt>0</asrwt>
<pdfrwt beam="2">  1        4 0.13127483E-03 0.20004521E+02</pdfrwt>
<pdfrwt beam="1">  1       -4 0.18037991E-01 0.20004521E+02</pdfrwt>
<totfact> 0.93097304E+05</totfact>
</mgrwt>
</event>
<event>
 5    1  0.4710515E-007  0.2001096E+02  0.7818608E-02  0.1745110E+00
         -4   -1    0    0    0  501 -0.00000000000E+00  0.00000000000E+00  0.99268925669E+02  0.99279081399E+02  0.14200000000E+01 0.  1.
          4   -1    0    0  501    0  0.00000000000E+00 -0.00000000000E+00 -0.49324459967E+00  0.15032266080E+01  0.14200000000E+01 0. -1.
       1023    2    1    2    0    0  0.00000000000E+00  0.00000000000E+00  0.98775681070E+02  0.10078230801E+03  0.20010957912E+02 0.  0.
        -13    1    3    3    0    0  0.86964149526E+01  0.49447514329E+01  0.50104294539E+02  0.51093343045E+02  0.10570000000E+00 0. -1.
         13    1    3    3    0    0 -0.86964149526E+01 -0.49447514329E+01  0.48671386530E+02  0.49688964962E+02  0.10570000000E+00 0.  1.
<mgrwt>
<rscale>  0 0.20010958E+02</rscale>
<asrwt>0</asrwt>
<pdfrwt beam="2">  1        4 0.15435596E-03 0.20010958E+02</pdfrwt>
<pdfrwt beam="1">  1       -4 0.15350610E-01 0.20010958E+02</pdfrwt>
<totfact> 0.97683502E+05</totfact>
</mgrwt>
</event>
<event>
 5    1  0.4710515E-007  0.2000283E+02  0.7818608E-02  0.1745272E+00
          4   -1    0    0  501    0  0.00000000000E+00  0.00000000000E+00  0.45281660352E+02  0.45303919965E+02  0.14200000000E+01 0.  1.
         -4   -1    0    0    0  501 -0.00000000000E+00 -0.00000000000E+00 -0.19555779107E+01  0.24167509108E+01  0.14200000000E+01 0. -1.
       1023    2    1    2    0    0  0.00000000000E+00  0.00000000000E+00  0.43326082441E+02  0.47720670876E+02  0.20002825030E+02 0.  0.
        -13    1    3    3    0    0  0.13141105703E+01 -0.99137655234E+01  0.21868908416E+02  0.24047244358E+02  0.10570000000E+00 0.  1.
         13    1    3    3    0    0 -0.13141105703E+01  0.99137655234E+01  0.21457174025E+02  0.23673426518E+02  0.10570000000E+00 0. -1.
<mgrwt>
<rscale>  0 0.20002825E+02</rscale>
<asrwt>0</asrwt>
<pdfrwt beam="1">  1        4 0.70035963E-02 0.20002825E+02</pdfrwt>
<pdfrwt beam="2">  1       -4 0.33804527E-03 0.20002825E+02</pdfrwt>
<totfact> 0.11613846E+06</totfact>
</mgrwt>
</event>
<event>
 5    1  0.4710515E-007  0.2000333E+02  0.7818608E-02  0.1745262E+00
         -4   -1    0    0    0  501 -0.00000000000E+00  0.00000000000E+00  0.58936613577E+02  0.58953717609E+02  0.14200000000E+01 0. -1.
          4   -1    0    0  501    0  0.00000000000E+00 -0.00000000000E+00 -0.13798333001E+01  0.19799848323E+01  0.14200000000E+01 0.  1.
       1023    2    1    2    0    0  0.00000000000E+00  0.00000000000E+00  0.57556780277E+02  0.60933702441E+02  0.20003328157E+02 0.  0.
        -13    1    3    3    0    0 -0.99136647309E+01  0.13148569720E+01  0.28437618243E+02  0.30144964771E+02  0.10570000000E+00 0. -1.
         13    1    3    3    0    0  0.99136647309E+01 -0.13148569720E+01  0.29119162034E+02  0.30788737670E+02  0.10570000000E+00 0.  1.
<mgrwt>
<rscale>  0 0.20003328E+02</rscale>
<asrwt>0</asrwt>
<pdfrwt beam="2">  1        4 0.25976324E-03 0.20003328E+02</pdfrwt>
<pdfrwt beam="1">  1       -4 0.91146528E-02 0.20003328E+02</pdfrwt>
<totfact> 0.11079443E+06</totfact>
</mgrwt>
</event>
<event>
 5    1  0.4710515E-007  0.2000381E+02  0.7818608E-02  0.1745252E+00
          4   -1    0    0  501    0  0.00000000000E+00  0.00000000000E+00  0.11661745754E+01  0.18374882694E+01  0.14200000000E+01 0. -1.
         -4   -1    0    0    0  501 -0.00000000000E+00 -0.00000000000E+00 -0.65930068768E+02  0.65945358955E+02  0.14200000000E+01 0.  1.
       1023    2    1    2    0    0  0.00000000000E+00  0.00000000000E+00 -0.64763894192E+02  0.67782847224E+02  0.20003809310E+02 0.  0.
        -13    1    3    3    0    0  0.59617044873E+00  0.99827441187E+01 -0.32814891615E+02  0.34305085389E+02  0.10570000000E+00 0. -1.
         13    1    3    3    0    0 -0.59617044873E+00 -0.99827441187E+01 -0.31949002577E+02  0.33477761835E+02  0.10570000000E+00 0.  1.
<mgrwt>
<rscale>  0 0.20003809E+02</rscale>
<asrwt>0</asrwt>
<pdfrwt beam="1">  1        4 0.23222721E-03 0.20003809E+02</pdfrwt>
<pdfrwt beam="2">  1       -4 0.10195901E-01 0.20003809E+02</pdfrwt>
<totfact> 0.10825639E+06</totfact>
</mgrwt>
</event>
<event>
 4    1  0.4710515E-007  0.2001567E+02  0.7818608E-02  0.1745017E+00
         -4   -1    0    0    0  501 -0.00000000000E+00  0.00000000000E+00  0.16305968052E+02  0.16367681391E+02  0.14200000000E+01 0.  1.
          4   -1    0    0  501    0  0.00000000000E+00 -0.00000000000E+00 -0.59858006759E+01  0.61519273185E+01  0.14200000000E+01 0. -1.
        -13    1    1    2    0    0 -0.87883241000E+01  0.47865277615E+01  0.51507076859E+01  0.11255507570E+02  0.10570000000E+00 0. -1.
         13    1    1    2    0    0  0.87883241000E+01 -0.47865277615E+01  0.51694596898E+01  0.11264101139E+02  0.10570000000E+00 0.  1.
<mgrwt>
<rscale>  0 0.20015667E+02</rscale>
<asrwt>0</asrwt>
<pdfrwt beam="2">  1        4 0.93841857E-03 0.20015667E+02</pdfrwt>
<pdfrwt beam="1">  1       -4 0.25261366E-02 0.20015667E+02</pdfrwt>
<totfact> 0.12845643E+06</totfact>
</mgrwt>
</event>
<event>
 4    1  0.4710515E-007  0.2002324E+02  0.7818608E-02  0.1744866E+00
          4   -1    0    0  501    0  0.00000000000E+00  0.00000000000E+00  0.95555146688E+01  0.96604482601E+01  0.14200000000E+01 0. -1.
         -4   -1    0    0    0  501 -0.00000000000E+00 -0.00000000000E+00 -0.10278197145E+02  0.10375824620E+02  0.14200000000E+01 0.  1.
        -13    1    1    2    0    0  0.99907159461E+01 -0.52772033921E+00 -0.27451292025E-02  0.10005202342E+02  0.10570000000E+00 0.  1.
         13    1    1    2    0    0 -0.99907159461E+01  0.52772033921E+00 -0.71993734666E+00  0.10031070538E+02  0.10570000000E+00 0. -1.
<mgrwt>
<rscale>  0 0.20023236E+02</rscale>
<asrwt>0</asrwt>
<pdfrwt beam="1">  1        4 0.14856608E-02 0.20023236E+02</pdfrwt>
<pdfrwt beam="2">  1       -4 0.15968427E-02 0.20023236E+02</pdfrwt>
<totfact> 0.12981073E+06</totfact>
</mgrwt>
</event>
<event>
 4    1  0.4710515E-007  0.2004063E+02  0.7818608E-02  0.1744521E+00
          4   -1    0    0  501    0  0.00000000000E+00  0.00000000000E+00  0.19176909304E+02  0.19229411079E+02  0.14200000000E+01 0.  1.
         -4   -1    0    0    0  501 -0.00000000000E+00 -0.00000000000E+00 -0.50786273963E+01  0.52734103036E+01  0.14200000000E+01 0. -1.
        -13    1    1    2    0    0 -0.71251358384E+01  0.70419772639E+01  0.72890397847E+01  0.12389442198E+02  0.10570000000E+00 0.  1.
         13    1    1    2    0    0  0.71251358384E+01 -0.70419772639E+01  0.68092421233E+01  0.12113379185E+02  0.10570000000E+00 0. -1.
<mgrwt>
<rscale>  0 0.20040626E+02</rscale>
<asrwt>0</asrwt>
<pdfrwt beam="1">  1        4 0.29693156E-02 0.20040626E+02</pdfrwt>
<pdfrwt beam="2">  1       -4 0.80034919E-03 0.20040626E+02</pdfrwt>
<totfact> 0.12700824E+06</totfact>
</mgrwt>
</event>
<event>
 5    1  0.4710515E-007  0.2000928E+02  0.7818608E-02  0.1745144E+00
         -4   -1    0    0    0  501 -0.00000000000E+00  0.00000000000E+00  0.20297049738E+01  0.24771157181E+01  0.14200000000E+01 0.  1.
          4   -1    0    0  501    0  0.00000000000E+00 -0.00000000000E+00 -0.43958374092E+02  0.43981303446E+02  0.14200000000E+01 0. -1.
       1023    2    1    2    0    0  0.00000000000E+00  0.00000000000E+00 -0.41928669118E+02  0.46458419164E+02  0.20009283276E+02 0.  0.
        -13    1    3    3    0    0 -0.97720378507E+01 -0.21402315097E+01 -0.20751950734E+02  0.23037533427E+02  0.10570000000E+00 0. -1.
         13    1    3    3    0    0  0.97720378507E+01  0.21402315097E+01 -0.21176718384E+02  0.23420885737E+02  0.10570000000E+00 0.  1.
<mgrwt>
<rscale>  0 0.20009283E+02</rscale>
<asrwt>0</asrwt>
<pdfrwt beam="2">  1        4 0.67990061E-02 0.20009283E+02</pdfrwt>
<pdfrwt beam="1">  1       -4 0.34844234E-03 0.20009283E+02</pdfrwt>
<totfact> 0.11660864E+06</totfact>
</mgrwt>
</event>
<event>
 4    1  0.4710515E-007  0.2009091E+02  0.7818608E-02  0.1743526E+00
          4   -1    0    0  501    0  0.00000000000E+00  0.00000000000E+00  0.77730669055E+02  0.77743638400E+02  0.14200000000E+01 0.  1.
         -4   -1    0    0    0  501 -0.00000000000E+00 -0.00000000000E+00 -0.89284110554E+00  0.16773685462E+01  0.14200000000E+01 0. -1.
        -13    1    1    2    0    0  0.10024291837E+02  0.38396426648E+00  0.40458134436E+02  0.41683398013E+02  0.10570000000E+00 0.  1.
         13    1    1    2    0    0 -0.10024291837E+02 -0.38396426648E+00  0.36379693513E+02  0.37737608933E+02  0.10570000000E+00 0. -1.
<mgrwt>
<rscale>  0 0.20090907E+02</rscale>
<asrwt>0</asrwt>
<pdfrwt beam="1">  1        4 0.12019913E-01 0.20090907E+02</pdfrwt>
<pdfrwt beam="2">  1       -4 0.19870603E-03 0.20090907E+02</pdfrwt>
<totfact> 0.10335777E+06</totfact>
</mgrwt>
</event>
<event>
 5    1  0.4929735E-007  0.2000194E+02  0.7818608E-02  0.1745290E+00
         -4   -1    0    0    0  501 -0.00000000000E+00  0.00000000000E+00  0.14924092347E+02  0.14991495336E+02  0.14200000000E+01 0.  1.
          4   -1    0    0  501    0  0.00000000000E+00 -0.00000000000E+00 -0.65430416588E+01  0.66953561630E+01  0.14200000000E+01 0. -1.
       1023    2    1    2    0    0  0.00000000000E+00  0.00000000000E+00  0.83810506886E+01  0.21686851498E+02  0.20001937838E+02 0.  0.
        -13    1    3    3    0    0 -0.99729341186E+01  0.74067737637E+00  0.41756227791E+01  0.10837666538E+02  0.10570000000E+00 0. -1.
         13    1    3    3    0    0  0.99729341186E+01 -0.74067737637E+00  0.42054279096E+01  0.10849184960E+02  0.10570000000E+00 0.  1.
<mgrwt>
<rscale>  0 0.20001938E+02</rscale>
<asrwt>0</asrwt>
<pdfrwt beam="2">  1        4 0.10235231E-02 0.20001938E+02</pdfrwt>
<pdfrwt beam="1">  1       -4 0.23129155E-02 0.20001938E+02</pdfrwt>
<totfact> 0.12911895E+06</totfact>
</mgrwt>
</event>
<event>
 5    1  0.4710515E-007  0.2000902E+02  0.7818608E-02  0.1745149E+00
          4   -1    0    0  501    0  0.00000000000E+00  0.00000000000E+00  0.16540791012E+02  0.16601631465E+02  0.14200000000E+01 0.  1.
         -4   -1    0    0    0  501 -0.00000000000E+00 -0.00000000000E+00 -0.58947001639E+01  0.60633233480E+01  0.14200000000E+01 0. -1.
       1023    2    1    2    0    0  0.00000000000E+00  0.00000000000E+00  0.10646090848E+02  0.22664954813E+02  0.20009021124E+02 0.  0.
        -13    1    3    3    0    0  0.37493433298E+01  0.92724435545E+01  0.55586824898E+01  0.11443159895E+02  0.10570000000E+00 0.  1.
         13    1    3    3    0    0 -0.37493433298E+01 -0.92724435545E+01  0.50874083579E+01  0.11221794917E+02  0.10570000000E+00 0. -1.
<mgrwt>
<rscale>  0 0.20009021E+02</rscale>
<asrwt>0</asrwt>
<pdfrwt beam="1">  1        4 0.25623881E-02 0.20009021E+02</pdfrwt>
<pdfrwt beam="2">  1       -4 0.92452800E-03 0.20009021E+02</pdfrwt>
<totfact> 0.12845984E+06</totfact>
</mgrwt>
</event>
<event>
 5    1  0.4710515E-007  0.2000299E+02  0.7818608E-02  0.1745269E+00
          4   -1    0    0  501    0  0.00000000000E+00  0.00000000000E+00  0.14649736344E+02  0.14718395801E+02  0.14200000000E+01 0.  1.
         -4   -1    0    0    0  501 -0.00000000000E+00 -0.00000000000E+00 -0.66685474003E+01  0.68180586995E+01  0.14200000000E+01 0. -1.
       1023    2    1    2    0    0  0.00000000000E+00  0.00000000000E+00  0.79811889440E+01  0.21536454501E+02  0.20002987164E+02 0.  0.
        -13    1    3    3    0    0  0.95836569840E+01  0.28569905372E+01  0.38838730604E+01  0.10728677391E+02  0.10570000000E+00 0. -1.
         13    1    3    3    0    0 -0.95836569840E+01 -0.28569905372E+01  0.40973158836E+01  0.10807777110E+02  0.10570000000E+00 0.  1.
<mgrwt>
<rscale>  0 0.20002987E+02</rscale>
<asrwt>0</asrwt>
<pdfrwt beam="1">  1        4 0.22705879E-02 0.20002987E+02</pdfrwt>
<pdfrwt beam="2">  1       -4 0.10427127E-02 0.20002987E+02</pdfrwt>
<totfact> 0.12919296E+06</totfact>
</mgrwt>
</event>
<event>
 5    1  0.4710515E-007  0.2000580E+02  0.7818608E-02  0.1745213E+00
         -4   -1    0    0    0  501 -0.00000000000E+00  0.00000000000E+00  0.57044656898E+02  0.57062328034E+02  0.14200000000E+01 0. -1.
          4   -1    0    0  501    0  0.00000000000E+00 -0.00000000000E+00 -0.14456690796E+01  0.20264153296E+01  0.14200000000E+01 0.  1.
       1023    2    1    2    0    0  0.00000000000E+00  0.00000000000E+00  0.55598987819E+02  0.59088743363E+02  0.20005802803E+02 0.  0.
        -13    1    3    3    0    0 -0.71390037657E+01 -0.70049987892E+01  0.28115970531E+02  0.29842157331E+02  0.10570000000E+00 0. -1.
         13    1    3    3    0    0  0.71390037657E+01  0.70049987892E+01  0.27483017288E+02  0.29246586032E+02  0.10570000000E+00 0.  1.
<mgrwt>
<rscale>  0 0.20005803E+02</rscale>
<asrwt>0</asrwt>
<pdfrwt beam="2">  1        4 0.26844274E-03 0.20005803E+02</pdfrwt>
<pdfrwt beam="1">  1       -4 0.88221329E-02 0.20005803E+02</pdfrwt>
<totfact> 0.11147445E+06</totfact>
</mgrwt>
</event>
<event>
 5    1  0.4710515E-007  0.2000575E+02  0.7818608E-02  0.1745214E+00
         -4   -1    0    0    0  501 -0.00000000000E+00  0.00000000000E+00  0.10325138300E+02  0.10422326080E+02  0.14200000000E+01 0. -1.
          4   -1    0    0  501    0  0.00000000000E+00 -0.00000000000E+00 -0.94950419591E+01  0.96006365312E+01  0.14200000000E+01 0.  1.
       1023    2    1    2    0    0  0.00000000000E+00  0.00000000000E+00  0.83009634113E+00  0.20022962611E+02  0.20005748469E+02 0.  0.
        -13    1    3    3    0    0 -0.71123906766E+01  0.70327775210E+01  0.39892028898E+00  0.10010812689E+02  0.10570000000E+00 0.  1.
         13    1    3    3    0    0  0.71123906766E+01 -0.70327775210E+01  0.43117605214E+00  0.10012149923E+02  0.10570000000E+00 0. -1.
<mgrwt>
<rscale>  0 0.20005748E+02</rscale>
<asrwt>0</asrwt>
<pdfrwt beam="2">  1        4 0.14763743E-02 0.20005748E+02</pdfrwt>
<pdfrwt beam="1">  1       -4 0.16040814E-02 0.20005748E+02</pdfrwt>
<totfact> 0.13005048E+06</totfact>
</mgrwt>
</event>
<event>
 4    1  0.4710515E-007  0.2007845E+02  0.7818608E-02  0.1743773E+00
         -4   -1    0    0    0  501 -0.00000000000E+00  0.00000000000E+00  0.75912838635E+01  0.77229522008E+01  0.14200000000E+01 0. -1.
          4   -1    0    0  501    0  0.00000000000E+00 -0.00000000000E+00 -0.12991704772E+02  0.13069077737E+02  0.14200000000E+01 0.  1.
        -13    1    1    2    0    0  0.34347047265E+01  0.94260757973E+01 -0.23315862712E+01  0.10300270313E+02  0.10570000000E+00 0. -1.
         13    1    1    2    0    0 -0.34347047265E+01 -0.94260757973E+01 -0.30688346376E+01  0.10491759624E+02  0.10570000000E+00 0.  1.
<mgrwt>
<rscale>  0 0.20078445E+02</rscale>
<asrwt>0</asrwt>
<pdfrwt beam="2">  1        4 0.20148039E-02 0.20078445E+02</pdfrwt>
<pdfrwt beam="1">  1       -4 0.11839699E-02 0.20078445E+02</pdfrwt>
<totfact> 0.12863838E+06</totfact>
</mgrwt>
</event>
<event>
 5    1  0.4710515E-007  0.2000150E+02  0.7818608E-02  0.1745298E+00
          4   -1    0    0  501    0  0.00000000000E+00  0.00000000000E+00  0.63215430183E+02  0.63231376809E+02  0.14200000000E+01 0. -1.
         -4   -1    0    0    0  501 -0.00000000000E+00 -0.00000000000E+00 -0.12440290245E+01  0.18878581022E+01  0.14200000000E+01 0.  1.
       1023    2    1    2    0    0  0.00000000000E+00  0.00000000000E+00  0.61971401158E+02  0.65119234911E+02  0.20001504792E+02 0.  0.
        -13    1    3    3    0    0 -0.62984799194E+01  0.77674156279E+01  0.31040291897E+02  0.32611569854E+02  0.10570000000E+00 0. -1.
         13    1    3    3    0    0  0.62984799194E+01 -0.77674156279E+01  0.30931109262E+02  0.32507665057E+02  0.10570000000E+00 0.  1.
<mgrwt>
<rscale>  0 0.20001505E+02</rscale>
<asrwt>0</asrwt>
<pdfrwt beam="1">  1        4 0.97762015E-02 0.20001505E+02</pdfrwt>
<pdfrwt beam="2">  1       -4 0.24214109E-03 0.20001505E+02</pdfrwt>
<totfact> 0.10924931E+06</totfact>
</mgrwt>
</event>
<event>
 5    1  0.4710515E-007  0.2000163E+02  0.7818608E-02  0.1745296E+00
          4   -1    0    0  501    0  0.00000000000E+00  0.00000000000E+00  0.20348458031E+02  0.20397944608E+02  0.14200000000E+01 0. -1.
         -4   -1    0    0    0  501 -0.00000000000E+00 -0.00000000000E+00 -0.47558637711E+01  0.49633295487E+01  0.14200000000E+01 0.  1.
       1023    2    1    2    0    0  0.00000000000E+00  0.00000000000E+00  0.15592594260E+02  0.25361274157E+02  0.20001630711E+02 0.  0.
        -13    1    3    3    0    0 -0.11734991111E+01 -0.99311421457E+01  0.77693755540E+01  0.12664085181E+02  0.10570000000E+00 0.  1.
         13    1    3    3    0    0  0.11734991111E+01  0.99311421457E+01  0.78232187060E+01  0.12697188976E+02  0.10570000000E+00 0. -1.
<mgrwt>
<rscale>  0 0.20001631E+02</rscale>
<asrwt>0</asrwt>
<pdfrwt beam="1">  1        4 0.31502976E-02 0.20001631E+02</pdfrwt>
<pdfrwt beam="2">  1       -4 0.75143692E-03 0.20001631E+02</pdfrwt>
<totfact> 0.12703374E+06</totfact>
</mgrwt>
</event>
<event>
 5    1  0.4710515E-007  0.2000462E+02  0.7818608E-02  0.1745236E+00
          4   -1    0    0  501    0  0.00000000000E+00  0.00000000000E+00  0.99798074535E+00  0.17356167688E+01  0.14200000000E+01 0. -1.
         -4   -1    0    0    0  501 -0.00000000000E+00 -0.00000000000E+00 -0.72450960420E+02  0.72464874703E+02  0.14200000000E+01 0.  1.
       1023    2    1    2    0    0  0.00000000000E+00  0.00000000000E+00 -0.71452979674E+02  0.74200491472E+02  0.20004615226E+02 0.  0.
        -13    1    3    3    0    0  0.99866117049E+01 -0.54000892761E+00 -0.36114840074E+02  0.37474216056E+02  0.10570000000E+00 0. -1.
         13    1    3    3    0    0 -0.99866117049E+01  0.54000892761E+00 -0.35338139600E+02  0.36726275415E+02  0.10570000000E+00 0.  1.
<mgrwt>
<rscale>  0 0.20004615E+02</rscale>
<asrwt>0</asrwt>
<pdfrwt beam="1">  1        4 0.21134712E-03 0.20004615E+02</pdfrwt>
<pdfrwt beam="2">  1       -4 0.11204110E-01 0.20004615E+02</pdfrwt>
<totfact> 0.10600038E+06</totfact>
</mgrwt>
</event>
<event>
 4    1  0.4710515E-007  0.2026506E+02  0.7818608E-02  0.1740108E+00
         -4   -1    0    0    0  501 -0.00000000000E+00  0.00000000000E+00  0.57016195620E+01  0.58757863839E+01  0.14200000000E+01 0.  1.
          4   -1    0    0  501    0  0.00000000000E+00 -0.00000000000E+00 -0.17532656865E+02  0.17590066991E+02  0.14200000000E+01 0. -1.
        -13    1    1    2    0    0  0.39973648675E+01 -0.92606259828E+01 -0.48055103701E+01  0.11173281608E+02  0.10570000000E+00 0. -1.
         13    1    1    2    0    0 -0.39973648675E+01  0.92606259828E+01 -0.70255269329E+01  0.12292571767E+02  0.10570000000E+00 0.  1.
<mgrwt>
<rscale>  0 0.20265064E+02</rscale>
<asrwt>0</asrwt>
<pdfrwt beam="2">  1        4 0.27151454E-02 0.20265064E+02</pdfrwt>
<pdfrwt beam="1">  1       -4 0.89498586E-03 0.20265064E+02</pdfrwt>
<totfact> 0.12472023E+06</totfact>
</mgrwt>
</event>
<event>
 4    1  0.4710515E-007  0.2001276E+02  0.7818608E-02  0.1745074E+00
          4   -1    0    0  501    0  0.00000000000E+00  0.00000000000E+00  0.56364307332E+01  0.58125511963E+01  0.14200000000E+01 0.  1.
         -4   -1    0    0    0  501 -0.00000000000E+00 -0.00000000000E+00 -0.17285420458E+02  0.17343648994E+02  0.14200000000E+01 0. -1.
        -13    1    1    2    0    0 -0.74061300822E+01  0.67241299685E+01 -0.60878457246E+01  0.11710581740E+02  0.10570000000E+00 0. -1.
         13    1    1    2    0    0  0.74061300822E+01 -0.67241299685E+01 -0.55611440006E+01  0.11445618450E+02  0.10570000000E+00 0.  1.
<mgrwt>
<rscale>  0 0.20012762E+02</rscale>
<asrwt>0</asrwt>
<pdfrwt beam="1">  1        4 0.88517004E-03 0.20012762E+02</pdfrwt>
<pdfrwt beam="2">  1       -4 0.26773223E-02 0.20012762E+02</pdfrwt>
<totfact> 0.12812976E+06</totfact>
</mgrwt>
</event>
<event>
 5    1  0.4710515E-007  0.2000304E+02  0.7818608E-02  0.1745268E+00
         -4   -1    0    0    0  501 -0.00000000000E+00  0.00000000000E+00  0.16143799404E+02  0.16206130297E+02  0.14200000000E+01 0. -1.
          4   -1    0    0  501    0  0.00000000000E+00 -0.00000000000E+00 -0.60394384085E+01  0.62041289711E+01  0.14200000000E+01 0.  1.
       1023    2    1    2    0    0  0.00000000000E+00  0.00000000000E+00  0.10104360995E+02  0.22410259268E+02  0.20003040002E+02 0.  0.
        -13    1    3    3    0    0 -0.14046975491E+01  0.99010398101E+01  0.51915058843E+01  0.11267948809E+02  0.10570000000E+00 0. -1.
         13    1    3    3    0    0  0.14046975491E+01 -0.99010398101E+01  0.49128551110E+01  0.11142310459E+02  0.10570000000E+00 0.  1.
<mgrwt>
<rscale>  0 0.20003040E+02</rscale>
<asrwt>0</asrwt>
<pdfrwt beam="2">  1        4 0.94660758E-03 0.20003040E+02</pdfrwt>
<pdfrwt beam="1">  1       -4 0.25011246E-02 0.20003040E+02</pdfrwt>
<totfact> 0.12868489E+06</totfact>
</mgrwt>
</event>
<event>
 5    1  0.4710515E-007  0.2000379E+02  0.7818608E-02  0.1745253E+00
          4   -1    0    0  501    0  0.00000000000E+00  0.00000000000E+00  0.22178596179E+01  0.26334960195E+01  0.14200000000E+01 0. -1.
         -4   -1    0    0    0  501 -0.00000000000E+00 -0.00000000000E+00 -0.40812178167E+02  0.40836874106E+02  0.14200000000E+01 0.  1.
       1023    2    1    2    0    0  0.00000000000E+00  0.00000000000E+00 -0.38594318549E+02  0.43470370126E+02  0.20003791005E+02 0.  0.
        -13    1    3    3    0    0  0.72417280941E+01  0.68981125020E+01 -0.19324584714E+02  0.21759534203E+02  0.10570000000E+00 0.  1.
         13    1    3    3    0    0 -0.72417280941E+01 -0.68981125020E+01 -0.19269733836E+02  0.21710835923E+02  0.10570000000E+00 0. -1.
<mgrwt>
<rscale>  0 0.20003791E+02</rscale>
<asrwt>0</asrwt>
<pdfrwt beam="1">  1        4 0.37508092E-03 0.20003791E+02</pdfrwt>
<pdfrwt beam="2">  1       -4 0.63126679E-02 0.20003791E+02</pdfrwt>
<totfact> 0.11799461E+06</totfact>
</mgrwt>
</event>
<event>
 4    1  0.4710515E-007  0.2001985E+02  0.7818608E-02  0.1744934E+00
          4   -1    0    0  501    0  0.00000000000E+00  0.00000000000E+00  0.46534548429E+02  0.46556209011E+02  0.14200000000E+01 0. -1.
         -4   -1    0    0    0  501 -0.00000000000E+00 -0.00000000000E+00 -0.18944352935E+01  0.23675483271E+01  0.14200000000E+01 0.  1.
        -13    1    1    2    0    0  0.86524026270E+01 -0.50321887329E+01  0.22369880745E+02  0.24507340364E+02  0.10570000000E+00 0.  1.
         13    1    1    2    0    0 -0.86524026270E+01  0.50321887329E+01  0.22270232391E+02  0.24416416975E+02  0.10570000000E+00 0. -1.
<mgrwt>
<rscale>  0 0.20019848E+02</rscale>
<asrwt>0</asrwt>
<pdfrwt beam="1">  1        4 0.71972199E-02 0.20019848E+02</pdfrwt>
<pdfrwt beam="2">  1       -4 0.32951113E-03 0.20019848E+02</pdfrwt>
<totfact> 0.11542586E+06</totfact>
</mgrwt>
</event>
<event>
 5    1  0.4710515E-007  0.2000252E+02  0.7818608E-02  0.1745278E+00
         -4   -1    0    0    0  501 -0.00000000000E+00  0.00000000000E+00  0.74146164993E+00  0.16019255221E+01  0.14200000000E+01 0.  1.
          4   -1    0    0  501    0  0.00000000000E+00 -0.00000000000E+00 -0.84499422667E+02  0.84511353267E+02  0.14200000000E+01 0. -1.
       1023    2    1    2    0    0  0.00000000000E+00  0.00000000000E+00 -0.83757961017E+02  0.86113278789E+02  0.20002518594E+02 0.  0.
        -13    1    3    3    0    0 -0.47250283697E+01  0.88137479404E+01 -0.42211596366E+02  0.43380157747E+02  0.10570000000E+00 0. -1.
         13    1    3    3    0    0  0.47250283697E+01 -0.88137479404E+01 -0.41546364650E+02  0.42733121042E+02  0.10570000000E+00 0.  1.
<mgrwt>
<rscale>  0 0.20002519E+02</rscale>
<asrwt>0</asrwt>
<pdfrwt beam="2">  1        4 0.13067014E-01 0.20002519E+02</pdfrwt>
<pdfrwt beam="1">  1       -4 0.18117836E-03 0.20002519E+02</pdfrwt>
<totfact> 0.10213146E+06</totfact>
</mgrwt>
</event>
<event>
 5    1  0.4710515E-007  0.2000986E+02  0.7818608E-02  0.1745132E+00
          4   -1    0    0  501    0  0.00000000000E+00  0.00000000000E+00  0.88428217437E+01  0.89561094450E+01  0.14200000000E+01 0.  1.
         -4   -1    0    0    0  501 -0.00000000000E+00 -0.00000000000E+00 -0.11088861894E+02  0.11179412243E+02  0.14200000000E+01 0. -1.
       1023    2    1    2    0    0  0.00000000000E+00  0.00000000000E+00 -0.22460401502E+01  0.20135521688E+02  0.20009861001E+02 0.  0.
        -13    1    3    3    0    0 -0.95145281953E+01 -0.30903397551E+01 -0.12286327459E+01  0.10079541532E+02  0.10570000000E+00 0.  1.
         13    1    3    3    0    0  0.95145281953E+01  0.30903397551E+01 -0.10174074043E+01  0.10055980156E+02  0.10570000000E+00 0. -1.
<mgrwt>
<rscale>  0 0.20009861E+02</rscale>
<asrwt>0</asrwt>
<pdfrwt beam="1">  1        4 0.13761140E-02 0.20009861E+02</pdfrwt>
<pdfrwt beam="2">  1       -4 0.17216586E-02 0.20009861E+02</pdfrwt>
<totfact> 0.12992914E+06</totfact>
</mgrwt>
</event>
<event>
 4    1  0.5380132E-007  0.2028972E+02  0.7818608E-02  0.1739627E+00
          4   -1    0    0  501    0  0.00000000000E+00  0.00000000000E+00  0.38112200603E+01  0.40671609690E+01  0.14200000000E+01 0. -1.
         -4   -1    0    0    0  501 -0.00000000000E+00 -0.00000000000E+00 -0.25850677032E+02  0.25889648569E+02  0.14200000000E+01 0.  1.
        -13    1    1    2    0    0  0.65587838696E+01 -0.75872823022E+01 -0.87696407875E+01  0.13322997809E+02  0.10570000000E+00 0. -1.
         13    1    1    2    0    0 -0.65587838696E+01  0.75872823022E+01 -0.13269816184E+02  0.16633811729E+02  0.10570000000E+00 0.  1.
<mgrwt>
<rscale>  0 0.20289721E+02</rscale>
<asrwt>0</asrwt>
<pdfrwt beam="1">  1        4 0.60902714E-03 0.20289721E+02</pdfrwt>
<pdfrwt beam="2">  1       -4 0.39997127E-02 0.20289721E+02</pdfrwt>
<totfact> 0.12098164E+06</totfact>
</mgrwt>
</event>
<event>
 5    1  0.4710515E-007  0.2000603E+02  0.7818608E-02  0.1745208E+00
         -4   -1    0    0    0  501 -0.00000000000E+00  0.00000000000E+00  0.80643516358E+01  0.81884166544E+01  0.14200000000E+01 0. -1.
          4   -1    0    0  501    0  0.00000000000E+00 -0.00000000000E+00 -0.12147283658E+02  0.12230000011E+02  0.14200000000E+01 0.  1.
       1023    2    1    2    0    0  0.00000000000E+00  0.00000000000E+00 -0.40829320226E+01  0.20418416666E+02  0.20006034221E+02 0.  0.
        -13    1    3    3    0    0 -0.82222402494E+00 -0.99679453594E+01 -0.19242430203E+01  0.10185768048E+02  0.10570000000E+00 0. -1.
         13    1    3    3    0    0  0.82222402494E+00  0.99679453594E+01 -0.21586890023E+01  0.10232648618E+02  0.10570000000E+00 0.  1.
<mgrwt>
<rscale>  0 0.20006034E+02</rscale>
<asrwt>0</asrwt>
<pdfrwt beam="2">  1        4 0.18847191E-02 0.20006034E+02</pdfrwt>
<pdfrwt beam="1">  1       -4 0.12565758E-02 0.20006034E+02</pdfrwt>
<totfact> 0.12981161E+06</totfact>
</mgrwt>
</event>
<event>
 5    1  0.4710515E-007  0.2000128E+02  0.7818608E-02  0.1745303E+00
          4   -1    0    0  501    0  0.00000000000E+00  0.00000000000E+00  0.45804470790E+01  0.47955078400E+01  0.14200000000E+01 0. -1.
         -4   -1    0    0    0  501 -0.00000000000E+00 -0.00000000000E+00 -0.21094406489E+02  0.21142147126E+02  0.14200000000E+01 0.  1.
       1023    2    1    2    0    0  0.00000000000E+00  0.00000000000E+00 -0.16513959410E+02  0.25937654966E+02  0.20001277203E+02 0.  0.
        -13    1    3    3    0    0 -0.82962380203E+01  0.55833651974E+01 -0.82676523344E+01  0.12975622522E+02  0.10570000000E+00 0.  1.
         13    1    3    3    0    0  0.82962380203E+01 -0.55833651974E+01 -0.82463070753E+01  0.12962032444E+02  0.10570000000E+00 0. -1.
<mgrwt>
<rscale>  0 0.20001277E+02</rscale>
<asrwt>0</asrwt>
<pdfrwt beam="1">  1        4 0.72489967E-03 0.20001277E+02</pdfrwt>
<pdfrwt beam="2">  1       -4 0.32655087E-02 0.20001277E+02</pdfrwt>
<totfact> 0.12671954E+06</totfact>
</mgrwt>
</event>
<event>
 5    1  0.4885526E-007  0.2000199E+02  0.7818608E-02  0.1745289E+00
         -4   -1    0    0    0  501 -0.00000000000E+00  0.00000000000E+00  0.43038835621E+02  0.43062254604E+02  0.14200000000E+01 0.  1.
          4   -1    0    0  501    0  0.00000000000E+00 -0.00000000000E+00 -0.20806442955E+01  0.25190237562E+01  0.14200000000E+01 0. -1.
       1023    2    1    2    0    0  0.00000000000E+00  0.00000000000E+00  0.40958191325E+02  0.45581278360E+02  0.20001987409E+02 0.  0.
        -13    1    3    3    0    0  0.29611193245E+01 -0.95518810804E+01  0.20582092085E+02  0.22883189177E+02  0.10570000000E+00 0.  1.
         13    1    3    3    0    0 -0.29611193245E+01  0.95518810804E+01  0.20376099240E+02  0.22698089183E+02  0.10570000000E+00 0. -1.
<mgrwt>
<rscale>  0 0.20001987E+02</rscale>
<asrwt>0</asrwt>
<pdfrwt beam="2">  1        4 0.35562211E-03 0.20001987E+02</pdfrwt>
<pdfrwt beam="1">  1       -4 0.66568817E-02 0.20001987E+02</pdfrwt>
<totfact> 0.11707831E+06</totfact>
</mgrwt>
</event>
<event>
 5    1  0.4710515E-007  0.2000446E+02  0.7818608E-02  0.1745239E+00
          4   -1    0    0  501    0  0.00000000000E+00  0.00000000000E+00  0.48368341088E+01  0.50409685772E+01  0.14200000000E+01 0.  1.
         -4   -1    0    0    0  501 -0.00000000000E+00 -0.00000000000E+00 -0.20026646628E+02  0.20076926437E+02  0.14200000000E+01 0. -1.
       1023    2    1    2    0    0  0.00000000000E+00  0.00000000000E+00 -0.15189812519E+02  0.25117895014E+02  0.20004455643E+02 0.  0.
        -13    1    3    3    0    0 -0.65382635536E+01  0.75673036176E+01 -0.77743079846E+01  0.12667439026E+02  0.10570000000E+00 0.  1.
         13    1    3    3    0    0  0.65382635536E+01 -0.75673036176E+01 -0.74155045346E+01  0.12450455989E+02  0.10570000000E+00 0. -1.
<mgrwt>
<rscale>  0 0.20004456E+02</rscale>
<asrwt>0</asrwt>
<pdfrwt beam="1">  1        4 0.76369867E-03 0.20004456E+02</pdfrwt>
<pdfrwt beam="2">  1       -4 0.31005928E-02 0.20004456E+02</pdfrwt>
<totfact> 0.12713253E+06</totfact>
</mgrwt>
</event>
<event>
 4    1  0.4710515E-007  0.2001380E+02  0.7818608E-02  0.1745054E+00
         -4   -1    0    0    0  501 -0.00000000000E+00  0.00000000000E+00  0.15045174965E+01  0.20688095362E+01  0.14200000000E+01 0. -1.
          4   -1    0    0  501    0  0.00000000000E+00 -0.00000000000E+00 -0.55472713752E+02  0.55490885477E+02  0.14200000000E+01 0.  1.
        -13    1    1    2    0    0  0.70753413133E+01  0.70752723888E+01 -0.26744091392E+02  0.28554816248E+02  0.10570000000E+00 0.  1.
         13    1    1    2    0    0 -0.70753413133E+01 -0.70752723888E+01 -0.27224104863E+02  0.29004878765E+02  0.10570000000E+00 0. -1.
<mgrwt>
<rscale>  0 0.20013802E+02</rscale>
<asrwt>0</asrwt>
<pdfrwt beam="2">  1        4 0.85790672E-02 0.20013802E+02</pdfrwt>
<pdfrwt beam="1">  1       -4 0.27626918E-03 0.20013802E+02</pdfrwt>
<totfact> 0.11197889E+06</totfact>
</mgrwt>
</event>
<event>
 5    1  0.4800848E-007  0.2000253E+02  0.7818608E-02  0.1745278E+00
         -4   -1    0    0    0  501 -0.00000000000E+00  0.00000000000E+00  0.83191585583E+01  0.84394786046E+01  0.14200000000E+01 0.  1.
          4   -1    0    0  501    0  0.00000000000E+00 -0.00000000000E+00 -0.11773873298E+02  0.11859194427E+02  0.14200000000E+01 0. -1.
       1023    2    1    2    0    0  0.00000000000E+00  0.00000000000E+00 -0.34547147402E+01  0.20298673031E+02  0.20002526663E+02 0.  0.
        -13    1    3    3    0    0  0.99906676354E+01 -0.43303044177E+00 -0.16110278624E+01  0.10129537918E+02  0.10570000000E+00 0.  1.
         13    1    3    3    0    0 -0.99906676354E+01  0.43303044177E+00 -0.18436868778E+01  0.10169135114E+02  0.10570000000E+00 0. -1.
<mgrwt>
<rscale>  0 0.20002527E+02</rscale>
<asrwt>0</asrwt>
<pdfrwt beam="2">  1        4 0.18271837E-02 0.20002527E+02</pdfrwt>
<pdfrwt beam="1">  1       -4 0.12956891E-02 0.20002527E+02</pdfrwt>
<totfact> 0.12992917E+06</totfact>
</mgrwt>
</event>
<event>
 5    1  0.4710515E-007  0.2000236E+02  0.7818608E-02  0.1745281E+00
          4   -1    0    0  501    0  0.00000000000E+00  0.00000000000E+00  0.35267893472E+02  0.35296468803E+02  0.14200000000E+01 0.  1.
         -4   -1    0    0    0  501 -0.00000000000E+00 -0.00000000000E+00 -0.26266814533E+01  0.29859429762E+01  0.14200000000E+01 0. -1.
       1023    2    1    2    0    0  0.00000000000E+00  0.00000000000E+00  0.32641212019E+02  0.38282411779E+02  0.20002358100E+02 0.  0.
        -13    1    3    3    0    0  0.78040059644E+01  0.62537317574E+01  0.16268545352E+02  0.19096816760E+02  0.10570000000E+00 0. -1.
         13    1    3    3    0    0 -0.78040059644E+01 -0.62537317574E+01  0.16372666667E+02  0.19185595020E+02  0.10570000000E+00 0.  1.
<mgrwt>
<rscale>  0 0.20002358E+02</rscale>
<asrwt>0</asrwt>
<pdfrwt beam="1">  1        4 0.54556633E-02 0.20002358E+02</pdfrwt>
<pdfrwt beam="2">  1       -4 0.43393845E-03 0.20002358E+02</pdfrwt>
<totfact> 0.12040441E+06</totfact>
</mgrwt>
</event>
<event>
 5    1  0.4710515E-007  0.2000118E+02  0.7818608E-02  0.1745305E+00
          4   -1    0    0  501    0  0.00000000000E+00  0.00000000000E+00  0.54066508524E+02  0.54085152713E+02  0.14200000000E+01 0.  1.
         -4   -1    0    0    0  501 -0.00000000000E+00 -0.00000000000E+00 -0.15554347226E+01  0.21061284805E+01  0.14200000000E+01 0. -1.
       1023    2    1    2    0    0  0.00000000000E+00  0.00000000000E+00  0.52511073802E+02  0.56191281194E+02  0.20001180225E+02 0.  0.
        -13    1    3    3    0    0 -0.32290082263E+01  0.94643464690E+01  0.26302705906E+02  0.28139720302E+02  0.10570000000E+00 0.  1.
         13    1    3    3    0    0  0.32290082263E+01 -0.94643464690E+01  0.26208367896E+02  0.28051560892E+02  0.10570000000E+00 0. -1.
<mgrwt>
<rscale>  0 0.20001180E+02</rscale>
<asrwt>0</asrwt>
<pdfrwt beam="1">  1        4 0.83617194E-02 0.20001180E+02</pdfrwt>
<pdfrwt beam="2">  1       -4 0.28309288E-03 0.20001180E+02</pdfrwt>
<totfact> 0.11266058E+06</totfact>
</mgrwt>
</event>
<event>
 4    1  0.4710515E-007  0.2002227E+02  0.7818608E-02  0.1744886E+00
          4   -1    0    0  501    0  0.00000000000E+00  0.00000000000E+00  0.19248763635E+01  0.23919759645E+01  0.14200000000E+01 0. -1.
         -4   -1    0    0    0  501 -0.00000000000E+00 -0.00000000000E+00 -0.45954038594E+02  0.45975972671E+02  0.14200000000E+01 0.  1.
        -13    1    1    2    0    0 -0.99976349117E+01 -0.49823373644E+00 -0.21764477079E+02  0.23956305552E+02  0.10570000000E+00 0. -1.
         13    1    1    2    0    0  0.99976349117E+01  0.49823373644E+00 -0.22264685152E+02  0.24411643084E+02  0.10570000000E+00 0.  1.
<mgrwt>
<rscale>  0 0.20022271E+02</rscale>
<asrwt>0</asrwt>
<pdfrwt beam="1">  1        4 0.33375284E-03 0.20022271E+02</pdfrwt>
<pdfrwt beam="2">  1       -4 0.71074693E-02 0.20022271E+02</pdfrwt>
<totfact> 0.11563397E+06</totfact>
</mgrwt>
</event>
<event>
 5    1  0.4710515E-007  0.2000199E+02  0.7818608E-02  0.1745288E+00
          4   -1    0    0  501    0  0.00000000000E+00  0.00000000000E+00  0.52044079635E+02  0.52063448071E+02  0.14200000000E+01 0. -1.
         -4   -1    0    0    0  501 -0.00000000000E+00 -0.00000000000E+00 -0.16370262972E+01  0.21670844694E+01  0.14200000000E+01 0.  1.
       1023    2    1    2    0    0  0.00000000000E+00  0.00000000000E+00  0.50407053338E+02  0.54230532540E+02  0.20001990737E+02 0.  0.
        -13    1    3    3    0    0 -0.72624816250E+01 -0.68744664471E+01  0.24979826107E+02  0.26907337533E+02  0.10570000000E+00 0.  1.
         13    1    3    3    0    0  0.72624816250E+01  0.68744664471E+01  0.25427227230E+02  0.27323195007E+02  0.10570000000E+00 0. -1.
<mgrwt>
<rscale>  0 0.20001991E+02</rscale>
<asrwt>0</asrwt>
<pdfrwt beam="1">  1        4 0.80490433E-02 0.20001991E+02</pdfrwt>
<pdfrwt beam="2">  1       -4 0.29411385E-03 0.20001991E+02</pdfrwt>
<totfact> 0.11343603E+06</totfact>
</mgrwt>
</event>
<event>
 5    1  0.4710515E-007  0.2000202E+02  0.7818608E-02  0.1745288E+00
          4   -1    0    0  501    0  0.00000000000E+00  0.00000000000E+00  0.20479392064E+01  0.24920784484E+01  0.14200000000E+01 0.  1.
         -4   -1    0    0    0  501 -0.00000000000E+00 -0.00000000000E+00 -0.43604785344E+02  0.43627900533E+02  0.14200000000E+01 0. -1.
       1023    2    1    2    0    0  0.00000000000E+00  0.00000000000E+00 -0.41556846137E+02  0.46119978981E+02  0.20002024905E+02 0.  0.
        -13    1    3    3    0    0 -0.68334355619E+01  0.73011024765E+01 -0.20973238255E+02  0.23235529569E+02  0.10570000000E+00 0. -1.
         13    1    3    3    0    0  0.68334355619E+01 -0.73011024765E+01 -0.20583607883E+02  0.22884449412E+02  0.10570000000E+00 0.  1.
<mgrwt>
<rscale>  0 0.20002025E+02</rscale>
<asrwt>0</asrwt>
<pdfrwt beam="1">  1        4 0.35101025E-03 0.20002025E+02</pdfrwt>
<pdfrwt beam="2">  1       -4 0.67443705E-02 0.20002025E+02</pdfrwt>
<totfact> 0.11684178E+06</totfact>
</mgrwt>
</event>
<event>
 5    1  0.5027976E-007  0.2000125E+02  0.7818608E-02  0.1745303E+00
         -4   -1    0    0    0  501 -0.00000000000E+00  0.00000000000E+00  0.25474488429E+02  0.25514034584E+02  0.14200000000E+01 0.  1.
          4   -1    0    0  501    0  0.00000000000E+00 -0.00000000000E+00 -0.37534837116E+01  0.40131085175E+01  0.14200000000E+01 0. -1.
       1023    2    1    2    0    0  0.00000000000E+00  0.00000000000E+00  0.21721004718E+02  0.29527143101E+02  0.20001253305E+02 0.  0.
        -13    1    3    3    0    0 -0.95688411083E+01 -0.29049012152E+01  0.10840168057E+02  0.14748613061E+02  0.10570000000E+00 0. -1.
         13    1    3    3    0    0  0.95688411083E+01  0.29049012152E+01  0.10880836661E+02  0.14778530040E+02  0.10570000000E+00 0.  1.
<mgrwt>
<rscale>  0 0.20001253E+02</rscale>
<asrwt>0</asrwt>
<pdfrwt beam="2">  1        4 0.60047219E-03 0.20001253E+02</pdfrwt>
<pdfrwt beam="1">  1       -4 0.39421651E-02 0.20001253E+02</pdfrwt>
<totfact> 0.12478922E+06</totfact>
</mgrwt>
</event>
<event>
 5    1  0.4710515E-007  0.2000751E+02  0.7818608E-02  0.1745179E+00
          4   -1    0    0  501    0  0.00000000000E+00  0.00000000000E+00  0.27915983542E+02  0.27952075721E+02  0.14200000000E+01 0.  1.
         -4   -1    0    0    0  501 -0.00000000000E+00 -0.00000000000E+00 -0.34042235079E+01  0.36885142933E+01  0.14200000000E+01 0. -1.
       1023    2    1    2    0    0  0.00000000000E+00  0.00000000000E+00  0.24511760034E+02  0.31640590014E+02  0.20007512501E+02 0.  0.
        -13    1    3    3    0    0  0.61130890263E+01 -0.79159488815E+01  0.12538167335E+02  0.16038981163E+02  0.10570000000E+00 0.  1.
         13    1    3    3    0    0 -0.61130890263E+01  0.79159488815E+01  0.11973592699E+02  0.15601608851E+02  0.10570000000E+00 0. -1.
<mgrwt>
<rscale>  0 0.20007513E+02</rscale>
<asrwt>0</asrwt>
<pdfrwt beam="1">  1        4 0.43194115E-02 0.20007513E+02</pdfrwt>
<pdfrwt beam="2">  1       -4 0.54837154E-03 0.20007513E+02</pdfrwt>
<totfact> 0.12361430E+06</totfact>
</mgrwt>
</event>
<event>
 5    1  0.4710515E-007  0.2000475E+02  0.7818608E-02  0.1745234E+00
          4   -1    0    0  501    0  0.00000000000E+00  0.00000000000E+00  0.35681195320E+01  0.38402964722E+01  0.14200000000E+01 0.  1.
         -4   -1    0    0    0  501 -0.00000000000E+00 -0.00000000000E+00 -0.26717413232E+02  0.26755122309E+02  0.14200000000E+01 0. -1.
       1023    2    1    2    0    0  0.00000000000E+00  0.00000000000E+00 -0.23149293700E+02  0.30595418781E+02  0.20004745728E+02 0.  0.
        -13    1    3    3    0    0 -0.59014843910E+01 -0.80751814197E+01 -0.11597199223E+02  0.15314773106E+02  0.10570000000E+00 0. -1.
         13    1    3    3    0    0  0.59014843910E+01  0.80751814197E+01 -0.11552094477E+02  0.15280645676E+02  0.10570000000E+00 0.  1.
<mgrwt>
<rscale>  0 0.20004746E+02</rscale>
<asrwt>0</asrwt>
<pdfrwt beam="1">  1        4 0.57277887E-03 0.20004746E+02</pdfrwt>
<pdfrwt beam="2">  1       -4 0.41342085E-02 0.20004746E+02</pdfrwt>
<totfact> 0.12418770E+06</totfact>
</mgrwt>
</event>
<event>
 5    1  0.4710515E-007  0.2000200E+02  0.7818608E-02  0.1745288E+00
          4   -1    0    0  501    0  0.00000000000E+00  0.00000000000E+00  0.10722386901E+03  0.10723327136E+03  0.14200000000E+01 0. -1.
         -4   -1    0    0    0  501 -0.00000000000E+00 -0.00000000000E+00 -0.37739856952E+00  0.14692956409E+01  0.14200000000E+01 0.  1.
       1023    2    1    2    0    0  0.00000000000E+00  0.00000000000E+00  0.10684647044E+03  0.10870256700E+03  0.20001995548E+02 0.  0.
        -13    1    3    3    0    0 -0.87984191612E+01 -0.47535256761E+01  0.53290349527E+02  0.54220666828E+02  0.10570000000E+00 0. -1.
         13    1    3    3    0    0  0.87984191612E+01  0.47535256761E+01  0.53556120916E+02  0.54481900170E+02  0.10570000000E+00 0.  1.
<mgrwt>
<rscale>  0 0.20001996E+02</rscale>
<asrwt>0</asrwt>
<pdfrwt beam="1">  1        4 0.16580692E-01 0.20001996E+02</pdfrwt>
<pdfrwt beam="2">  1       -4 0.14277669E-03 0.20001996E+02</pdfrwt>
<totfact> 0.95582417E+05</totfact>
</mgrwt>
</event>
<event>
 5    1  0.4837705E-007  0.2000152E+02  0.7818608E-02  0.1745298E+00
         -4   -1    0    0    0  501 -0.00000000000E+00  0.00000000000E+00  0.30319113015E+02  0.30352347752E+02  0.14200000000E+01 0. -1.
          4   -1    0    0  501    0  0.00000000000E+00 -0.00000000000E+00 -0.31091643128E+01  0.34180846572E+01  0.14200000000E+01 0.  1.
       1023    2    1    2    0    0  0.00000000000E+00  0.00000000000E+00  0.27209948703E+02  0.33770432409E+02  0.20001519859E+02 0.  0.
        -13    1    3    3    0    0  0.42119925339E+01 -0.90697041887E+01  0.13706439726E+02  0.16966970196E+02  0.10570000000E+00 0.  1.
         13    1    3    3    0    0 -0.42119925339E+01  0.90697041887E+01  0.13503508977E+02  0.16803462213E+02  0.10570000000E+00 0. -1.
<mgrwt>
<rscale>  0 0.20001520E+02</rscale>
<asrwt>0</asrwt>
<pdfrwt beam="2">  1        4 0.50465257E-03 0.20001520E+02</pdfrwt>
<pdfrwt beam="1">  1       -4 0.46907988E-02 0.20001520E+02</pdfrwt>
<totfact> 0.12261117E+06</totfact>
</mgrwt>
</event>
<event>
 5    1  0.4710515E-007  0.2000633E+02  0.7818608E-02  0.1745202E+00
         -4   -1    0    0    0  501 -0.00000000000E+00  0.00000000000E+00  0.42655620811E+02  0.42679250072E+02  0.14200000000E+01 0. -1.
          4   -1    0    0  501    0  0.00000000000E+00 -0.00000000000E+00 -0.21043586080E+01  0.25386463225E+01  0.14200000000E+01 0. -1.
       1023    2    1    2    0    0  0.00000000000E+00  0.00000000000E+00  0.40551262203E+02  0.45217896395E+02  0.20006331202E+02 0.  0.
        -13    1    3    3    0    0  0.98058804824E+01  0.19701085118E+01  0.20557293012E+02  0.22861541681E+02  0.10570000000E+00 0.  1.
         13    1    3    3    0    0 -0.98058804824E+01 -0.19701085118E+01  0.19993969191E+02  0.22356354714E+02  0.10570000000E+00 0. -1.
<mgrwt>
<rscale>  0 0.20006331E+02</rscale>
<asrwt>0</asrwt>
<pdfrwt beam="2">  1        4 0.35897187E-03 0.20006331E+02</pdfrwt>
<pdfrwt beam="1">  1       -4 0.65976274E-02 0.20006331E+02</pdfrwt>
<totfact> 0.11718687E+06</totfact>
</mgrwt>
</event>
<event>
 5    1  0.4710515E-007  0.2000156E+02  0.7818608E-02  0.1745297E+00
         -4   -1    0    0    0  501 -0.00000000000E+00  0.00000000000E+00  0.19715649665E+02  0.19766720560E+02  0.14200000000E+01 0. -1.
          4   -1    0    0  501    0  0.00000000000E+00 -0.00000000000E+00 -0.49146250672E+01  0.51156563167E+01  0.14200000000E+01 0.  1.
       1023    2    1    2    0    0  0.00000000000E+00  0.00000000000E+00  0.14801024598E+02  0.24882376877E+02  0.20001558687E+02 0.  0.
        -13    1    3    3    0    0  0.85470825074E+01  0.51914432014E+01  0.74337322536E+01  0.12460948985E+02  0.10570000000E+00 0. -1.
         13    1    3    3    0    0 -0.85470825074E+01 -0.51914432014E+01  0.73672923442E+01  0.12421427892E+02  0.10570000000E+00 0.  1.
<mgrwt>
<rscale>  0 0.20001559E+02</rscale>
<asrwt>0</asrwt>
<pdfrwt beam="2">  1        4 0.77548864E-03 0.20001559E+02</pdfrwt>
<pdfrwt beam="1">  1       -4 0.30525693E-02 0.20001559E+02</pdfrwt>
<totfact> 0.12730146E+06</totfact>
</mgrwt>
</event>
<event>
 4    1  0.4710515E-007  0.2002428E+02  0.7818608E-02  0.1744846E+00
         -4   -1    0    0    0  501 -0.00000000000E+00  0.00000000000E+00  0.71579874753E+02  0.71593958332E+02  0.14200000000E+01 0. -1.
          4   -1    0    0  501    0  0.00000000000E+00 -0.00000000000E+00 -0.10225158536E+01  0.17498396129E+01  0.14200000000E+01 0.  1.
        -13    1    1    2    0    0 -0.90655550785E+01  0.42369585015E+01  0.34145761398E+02  0.35582022149E+02  0.10570000000E+00 0.  1.
         13    1    1    2    0    0  0.90655550785E+01 -0.42369585015E+01  0.36411597501E+02  0.37761775796E+02  0.10570000000E+00 0. -1.
<mgrwt>
<rscale>  0 0.20024280E+02</rscale>
<asrwt>0</asrwt>
<pdfrwt beam="2">  1        4 0.21434147E-03 0.20024280E+02</pdfrwt>
<pdfrwt beam="1">  1       -4 0.11069320E-01 0.20024280E+02</pdfrwt>
<totfact> 0.10608463E+06</totfact>
</mgrwt>
</event>
<event>
 5    1  0.4710515E-007  0.2000340E+02  0.7818608E-02  0.1745260E+00
         -4   -1    0    0    0  501 -0.00000000000E+00  0.00000000000E+00  0.18342291524E+02  0.18397175282E+02  0.14200000000E+01 0.  1.
          4   -1    0    0  501    0  0.00000000000E+00 -0.00000000000E+00 -0.52970492603E+01  0.54840797647E+01  0.14200000000E+01 0. -1.
       1023    2    1    2    0    0  0.00000000000E+00  0.00000000000E+00  0.13045242264E+02  0.23881255047E+02  0.20003399633E+02 0.  0.
        -13    1    3    3    0    0  0.59616764871E+01 -0.80292359137E+01  0.63885530879E+01  0.11867392255E+02  0.10570000000E+00 0.  1.
         13    1    3    3    0    0 -0.59616764871E+01  0.80292359137E+01  0.66566891760E+01  0.12013862791E+02  0.10570000000E+00 0. -1.
<mgrwt>
<rscale>  0 0.20003400E+02</rscale>
<asrwt>0</asrwt>
<pdfrwt beam="2">  1        4 0.83353943E-03 0.20003400E+02</pdfrwt>
<pdfrwt beam="1">  1       -4 0.28404998E-02 0.20003400E+02</pdfrwt>
<totfact> 0.12784036E+06</totfact>
</mgrwt>
</event>
<event>
 5    1  0.5577096E-007  0.2000250E+02  0.7818608E-02  0.1745278E+00
          4   -1    0    0  501    0  0.00000000000E+00  0.00000000000E+00  0.14657769927E+02  0.14726391928E+02  0.14200000000E+01 0. -1.
         -4   -1    0    0    0  501 -0.00000000000E+00 -0.00000000000E+00 -0.66644935847E+01  0.68140938312E+01  0.14200000000E+01 0.  1.
       1023    2    1    2    0    0  0.00000000000E+00  0.00000000000E+00  0.79932763419E+01  0.21540485759E+02  0.20002501345E+02 0.  0.
        -13    1    3    3    0    0 -0.10000374254E+02 -0.73327882683E-01  0.39629204486E+01  0.10757730856E+02  0.10570000000E+00 0. -1.
         13    1    3    3    0    0  0.10000374254E+02  0.73327882683E-01  0.40303558934E+01  0.10782754904E+02  0.10570000000E+00 0.  1.
<mgrwt>
<rscale>  0 0.20002501E+02</rscale>
<asrwt>0</asrwt>
<pdfrwt beam="1">  1        4 0.22718278E-02 0.20002501E+02</pdfrwt>
<pdfrwt beam="2">  1       -4 0.10420930E-02 0.20002501E+02</pdfrwt>
<totfact> 0.12919700E+06</totfact>
</mgrwt>
</event>
<event>
 4    1  0.4710515E-007  0.2001897E+02  0.7818608E-02  0.1744951E+00
          4   -1    0    0  501    0  0.00000000000E+00  0.00000000000E+00  0.10522157602E+01  0.17673590484E+01  0.14200000000E+01 0.  1.
         -4   -1    0    0    0  501 -0.00000000000E+00 -0.00000000000E+00 -0.70343162387E+02  0.70357493522E+02  0.14200000000E+01 0. -1.
        -13    1    1    2    0    0 -0.99866724828E+01 -0.66104562005E+00 -0.34967465208E+02  0.36371766580E+02  0.10570000000E+00 0.  1.
         13    1    1    2    0    0  0.99866724828E+01  0.66104562005E+00 -0.34323481419E+02  0.35753085990E+02  0.10570000000E+00 0. -1.
<mgrwt>
<rscale>  0 0.20018968E+02</rscale>
<asrwt>0</asrwt>
<pdfrwt beam="1">  1        4 0.21799282E-03 0.20018968E+02</pdfrwt>
<pdfrwt beam="2">  1       -4 0.10878136E-01 0.20018968E+02</pdfrwt>
<totfact> 0.10656138E+06</totfact>
</mgrwt>
</event>
<event>
 5    1  0.4710515E-007  0.2000539E+02  0.7818608E-02  0.1745221E+00
          4   -1    0    0  501    0  0.00000000000E+00  0.00000000000E+00  0.12828375284E+02  0.12906727410E+02  0.14200000000E+01 0. -1.
         -4   -1    0    0    0  501 -0.00000000000E+00 -0.00000000000E+00 -0.76316287608E+01  0.77626128039E+01  0.14200000000E+01 0.  1.
       1023    2    1    2    0    0  0.00000000000E+00  0.00000000000E+00  0.51967465233E+01  0.20669340214E+02  0.20005385536E+02 0.  0.
        -13    1    3    3    0    0  0.34715894187E+01 -0.93801514470E+01  0.25371106615E+01  0.10319267283E+02  0.10570000000E+00 0.  1.
         13    1    3    3    0    0 -0.34715894187E+01  0.93801514470E+01  0.26596358618E+01  0.10350072931E+02  0.10570000000E+00 0. -1.
<mgrwt>
<rscale>  0 0.20005386E+02</rscale>
<asrwt>0</asrwt>
<pdfrwt beam="1">  1        4 0.19896990E-02 0.20005386E+02</pdfrwt>
<pdfrwt beam="2">  1       -4 0.11901995E-02 0.20005386E+02</pdfrwt>
<totfact> 0.12967183E+06</totfact>
</mgrwt>
</event>
<event>
 5    1  0.4710515E-007  0.2000186E+02  0.7818608E-02  0.1745291E+00
         -4   -1    0    0    0  501 -0.00000000000E+00  0.00000000000E+00  0.48958581404E+00  0.15020300494E+01  0.14200000000E+01 0. -1.
          4   -1    0    0  501    0  0.00000000000E+00 -0.00000000000E+00 -0.99419582960E+02  0.99429723302E+02  0.14200000000E+01 0.  1.
       1023    2    1    2    0    0  0.00000000000E+00  0.00000000000E+00 -0.98929997146E+02  0.10093175335E+03  0.20001862396E+02 0.  0.
        -13    1    3    3    0    0 -0.52954267294E+01  0.84832712280E+01 -0.49443970486E+02  0.50445265634E+02  0.10570000000E+00 0. -1.
         13    1    3    3    0    0  0.52954267294E+01 -0.84832712280E+01 -0.49486026660E+02  0.50486487718E+02  0.10570000000E+00 0.  1.
<mgrwt>
<rscale>  0 0.20001862E+02</rscale>
<asrwt>0</asrwt>
<pdfrwt beam="2">  1        4 0.15373973E-01 0.20001862E+02</pdfrwt>
<pdfrwt beam="1">  1       -4 0.15398133E-03 0.20001862E+02</pdfrwt>
<totfact> 0.97729833E+05</totfact>
</mgrwt>
</event>
<event>
 5    1  0.4710515E-007  0.2000327E+02  0.7818608E-02  0.1745263E+00
          4   -1    0    0  501    0  0.00000000000E+00  0.00000000000E+00  0.19228739853E+01  0.23903649017E+01  0.14200000000E+01 0.  1.
         -4   -1    0    0    0  501 -0.00000000000E+00 -0.00000000000E+00 -0.45904371288E+02  0.45926329086E+02  0.14200000000E+01 0. -1.
       1023    2    1    2    0    0  0.00000000000E+00  0.00000000000E+00 -0.43981497303E+02  0.48316693988E+02  0.20003270056E+02 0.  0.
        -13    1    3    3    0    0  0.25866065087E+01 -0.96607378702E+01 -0.21909146783E+02  0.24084066822E+02  0.10570000000E+00 0. -1.
         13    1    3    3    0    0 -0.25866065087E+01  0.96607378702E+01 -0.22072350519E+02  0.24232627166E+02  0.10570000000E+00 0.  1.
<mgrwt>
<rscale>  0 0.20003270E+02</rscale>
<asrwt>0</asrwt>
<pdfrwt beam="1">  1        4 0.33347670E-03 0.20003270E+02</pdfrwt>
<pdfrwt beam="2">  1       -4 0.70998601E-02 0.20003270E+02</pdfrwt>
<totfact> 0.11587773E+06</totfact>
</mgrwt>
</event>
<event>
 5    1  0.4710515E-007  0.2000776E+02  0.7818608E-02  0.1745174E+00
         -4   -1    0    0    0  501 -0.00000000000E+00  0.00000000000E+00  0.47232491748E+01  0.49320870600E+01  0.14200000000E+01 0.  1.
          4   -1    0    0  501    0  0.00000000000E+00 -0.00000000000E+00 -0.20496067204E+02  0.20545198242E+02  0.14200000000E+01 0. -1.
       1023    2    1    2    0    0  0.00000000000E+00  0.00000000000E+00 -0.15772818029E+02  0.25477285302E+02  0.20007755441E+02 0.  0.
        -13    1    3    3    0    0  0.55101095396E+01  0.83489026769E+01 -0.78479137134E+01  0.12714810466E+02  0.10570000000E+00 0. -1.
         13    1    3    3    0    0 -0.55101095396E+01 -0.83489026769E+01 -0.79249043154E+01  0.12762474836E+02  0.10570000000E+00 0.  1.
<mgrwt>
<rscale>  0 0.20007755E+02</rscale>
<asrwt>0</asrwt>
<pdfrwt beam="2">  1        4 0.31730848E-02 0.20007755E+02</pdfrwt>
<pdfrwt beam="1">  1       -4 0.74649749E-03 0.20007755E+02</pdfrwt>
<totfact> 0.12689025E+06</totfact>
</mgrwt>
</event>
<event>
 5    1  0.4710515E-007  0.2000561E+02  0.7818608E-02  0.1745217E+00
          4   -1    0    0  501    0  0.00000000000E+00  0.00000000000E+00  0.76878862018E+02  0.76891975037E+02  0.14200000000E+01 0.  1.
         -4   -1    0    0    0  501 -0.00000000000E+00 -0.00000000000E+00 -0.89690457426E+00  0.16795349997E+01  0.14200000000E+01 0. -1.
       1023    2    1    2    0    0  0.00000000000E+00  0.00000000000E+00  0.75981957443E+02  0.78571510037E+02  0.20005607528E+02 0.  0.
        -13    1    3    3    0    0 -0.19832767962E+01 -0.98034948187E+01  0.38206565968E+02  0.39494236960E+02  0.10570000000E+00 0.  1.
         13    1    3    3    0    0  0.19832767962E+01  0.98034948187E+01  0.37775391475E+02  0.39077273077E+02  0.10570000000E+00 0. -1.
<mgrwt>
<rscale>  0 0.20005608E+02</rscale>
<asrwt>0</asrwt>
<pdfrwt beam="1">  1        4 0.11888730E-01 0.20005608E+02</pdfrwt>
<pdfrwt beam="2">  1       -4 0.19919632E-03 0.20005608E+02</pdfrwt>
<totfact> 0.10452231E+06</totfact>
</mgrwt>
</event>
<event>
 5    1  0.4710515E-007  0.2000395E+02  0.7818608E-02  0.1745250E+00
         -4   -1    0    0    0  501 -0.00000000000E+00  0.00000000000E+00  0.40812582283E+02  0.40837277978E+02  0.14200000000E+01 0. -1.
          4   -1    0    0  501    0  0.00000000000E+00 -0.00000000000E+00 -0.22178753721E+01  0.26335092873E+01  0.14200000000E+01 0.  1.
       1023    2    1    2    0    0  0.00000000000E+00  0.00000000000E+00  0.38594706911E+02  0.43470787265E+02  0.20003948207E+02 0.  0.
        -13    1    3    3    0    0  0.83055522890E+01 -0.55718310414E+01  0.19235372167E+02  0.21680364731E+02  0.10570000000E+00 0. -1.
         13    1    3    3    0    0 -0.83055522890E+01  0.55718310414E+01  0.19359334744E+02  0.21790422534E+02  0.10570000000E+00 0.  1.
<mgrwt>
<rscale>  0 0.20003948E+02</rscale>
<asrwt>0</asrwt>
<pdfrwt beam="2">  1        4 0.37508310E-03 0.20003948E+02</pdfrwt>
<pdfrwt beam="1">  1       -4 0.63127304E-02 0.20003948E+02</pdfrwt>
<totfact> 0.11799255E+06</totfact>
</mgrwt>
</event>
<event>
 4    1  0.4710515E-007  0.2146699E+02  0.7818608E-02  0.1717636E+00
          4   -1    0    0  501    0  0.00000000000E+00  0.00000000000E+00  0.15285202844E+02  0.15351020356E+02  0.14200000000E+01 0. -1.
         -4   -1    0    0    0  501 -0.00000000000E+00 -0.00000000000E+00 -0.73874458514E+01  0.75226827800E+01  0.14200000000E+01 0.  1.
        -13    1    1    2    0    0  0.76987298887E+01  0.74180926684E+01  0.49587275366E+01  0.11785528924E+02  0.10570000000E+00 0.  1.
         13    1    1    2    0    0 -0.76987298887E+01 -0.74180926684E+01  0.29390294557E+01  0.11088174213E+02  0.10570000000E+00 0. -1.
<mgrwt>
<rscale>  0 0.21466992E+02</rscale>
<asrwt>0</asrwt>
<pdfrwt beam="1">  1        4 0.23670354E-02 0.21466992E+02</pdfrwt>
<pdfrwt beam="2">  1       -4 0.11519959E-02 0.21466992E+02</pdfrwt>
<totfact> 0.11097370E+06</totfact>
</mgrwt>
</event>
<event>
 4    1  0.4710515E-007  0.2009983E+02  0.7818608E-02  0.1743350E+00
         -4   -1    0    0    0  501 -0.00000000000E+00  0.00000000000E+00  0.71747975885E+02  0.71762026474E+02  0.14200000000E+01 0.  1.
          4   -1    0    0  501    0  0.00000000000E+00 -0.00000000000E+00 -0.10317396045E+01  0.17552454562E+01  0.14200000000E+01 0. -1.
        -13    1    1    2    0    0  0.89746744730E+01 -0.45038864501E+01  0.33895752177E+02  0.35351986694E+02  0.10570000000E+00 0. -1.
         13    1    1    2    0    0 -0.89746744730E+01  0.45038864501E+01  0.36820484103E+02  0.38165285236E+02  0.10570000000E+00 0.  1.
<mgrwt>
<rscale>  0 0.20099831E+02</rscale>
<asrwt>0</asrwt>
<pdfrwt beam="2">  1        4 0.21546428E-03 0.20099831E+02</pdfrwt>
<pdfrwt beam="1">  1       -4 0.11094885E-01 0.20099831E+02</pdfrwt>
<totfact> 0.10522695E+06</totfact>
</mgrwt>
</event>
<event>
 5    1  0.4710515E-007  0.2000508E+02  0.7818608E-02  0.1745227E+00
          4   -1    0    0  501    0  0.00000000000E+00  0.00000000000E+00  0.19983035554E+02  0.20033424818E+02  0.14200000000E+01 0.  1.
         -4   -1    0    0    0  501 -0.00000000000E+00 -0.00000000000E+00 -0.48481246943E+01  0.50518029506E+01  0.14200000000E+01 0. -1.
       1023    2    1    2    0    0  0.00000000000E+00  0.00000000000E+00  0.15134910860E+02  0.25085227769E+02  0.20005077493E+02 0.  0.
        -13    1    3    3    0    0 -0.75192162089E+01  0.65955129986E+01  0.75495117521E+01  0.12531787753E+02  0.10570000000E+00 0.  1.
         13    1    3    3    0    0  0.75192162089E+01 -0.65955129986E+01  0.75853991076E+01  0.12553440015E+02  0.10570000000E+00 0. -1.
<mgrwt>
<rscale>  0 0.20005077E+02</rscale>
<asrwt>0</asrwt>
<pdfrwt beam="1">  1        4 0.30938569E-02 0.20005077E+02</pdfrwt>
<pdfrwt beam="2">  1       -4 0.76540898E-03 0.20005077E+02</pdfrwt>
<totfact> 0.12714268E+06</totfact>
</mgrwt>
</event>
<event>
 4    1  0.4710515E-007  0.2007578E+02  0.7818608E-02  0.1743825E+00
          4   -1    0    0  501    0  0.00000000000E+00  0.00000000000E+00  0.30592235406E+01  0.33727212561E+01  0.14200000000E+01 0. -1.
         -4   -1    0    0    0  501 -0.00000000000E+00 -0.00000000000E+00 -0.31000327410E+02  0.31032832606E+02  0.14200000000E+01 0.  1.
        -13    1    1    2    0    0  0.66782326277E+01  0.74870167555E+01 -0.13445592749E+02  0.16776452181E+02  0.10570000000E+00 0.  1.
         13    1    1    2    0    0 -0.66782326277E+01 -0.74870167555E+01 -0.14495511121E+02  0.17629101681E+02  0.10570000000E+00 0. -1.
<mgrwt>
<rscale>  0 0.20075778E+02</rscale>
<asrwt>0</asrwt>
<pdfrwt beam="1">  1        4 0.49726540E-03 0.20075778E+02</pdfrwt>
<pdfrwt beam="2">  1       -4 0.47958965E-02 0.20075778E+02</pdfrwt>
<totfact> 0.12137869E+06</totfact>
</mgrwt>
</event>
<event>
 5    1  0.4847943E-007  0.2000224E+02  0.7818608E-02  0.1745284E+00
          4   -1    0    0  501    0  0.00000000000E+00  0.00000000000E+00  0.11694211805E+02  0.11780109920E+02  0.14200000000E+01 0.  1.
         -4   -1    0    0    0  501 -0.00000000000E+00 -0.00000000000E+00 -0.83759810131E+01  0.84954963322E+01  0.14200000000E+01 0. -1.
       1023    2    1    2    0    0  0.00000000000E+00  0.00000000000E+00  0.33182307917E+01  0.20275606253E+02  0.20002238708E+02 0.  0.
        -13    1    3    3    0    0 -0.72539756413E+01 -0.68840906767E+01  0.16401842174E+01  0.10134704920E+02  0.10570000000E+00 0.  1.
         13    1    3    3    0    0  0.72539756413E+01  0.68840906767E+01  0.16780465743E+01  0.10140901333E+02  0.10570000000E+00 0. -1.
<mgrwt>
<rscale>  0 0.20002239E+02</rscale>
<asrwt>0</asrwt>
<pdfrwt beam="1">  1        4 0.18149105E-02 0.20002239E+02</pdfrwt>
<pdfrwt beam="2">  1       -4 0.13044135E-02 0.20002239E+02</pdfrwt>
<totfact> 0.12994670E+06</totfact>
</mgrwt>
</event>
<event>
 4    1  0.4710515E-007  0.2001671E+02  0.7818608E-02  0.1744996E+00
          4   -1    0    0  501    0  0.00000000000E+00  0.00000000000E+00  0.21977536542E+02  0.22023362878E+02  0.14200000000E+01 0. -1.
         -4   -1    0    0    0  501 -0.00000000000E+00 -0.00000000000E+00 -0.43951705189E+01  0.46188660827E+01  0.14200000000E+01 0.  1.
        -13    1    1    2    0    0 -0.13738675126E+01  0.99118473797E+01  0.85858924227E+01  0.13185634289E+02  0.10570000000E+00 0. -1.
         13    1    1    2    0    0  0.13738675126E+01 -0.99118473797E+01  0.89964736003E+01  0.13456594671E+02  0.10570000000E+00 0.  1.
<mgrwt>
<rscale>  0 0.20016712E+02</rscale>
<asrwt>0</asrwt>
<pdfrwt beam="1">  1        4 0.34018919E-02 0.20016712E+02</pdfrwt>
<pdfrwt beam="2">  1       -4 0.69691254E-03 0.20016712E+02</pdfrwt>
<totfact> 0.12613511E+06</totfact>
</mgrwt>
</event>
<event>
 5    1  0.4812528E-007  0.2000347E+02  0.7818608E-02  0.1745259E+00
         -4   -1    0    0    0  501 -0.00000000000E+00  0.00000000000E+00  0.61627279854E+01  0.63242087427E+01  0.14200000000E+01 0. -1.
          4   -1    0    0  501    0  0.00000000000E+00 -0.00000000000E+00 -0.15828616635E+02  0.15892183757E+02  0.14200000000E+01 0.  1.
       1023    2    1    2    0    0  0.00000000000E+00  0.00000000000E+00 -0.96658886493E+01  0.22216392500E+02  0.20003467008E+02 0.  0.
        -13    1    3    3    0    0 -0.28184947499E+01 -0.95953086800E+01 -0.47239031852E+01  0.11060754726E+02  0.10570000000E+00 0. -1.
         13    1    3    3    0    0  0.28184947499E+01  0.95953086800E+01 -0.49419854641E+01  0.11155637774E+02  0.10570000000E+00 0.  1.
<mgrwt>
<rscale>  0 0.20003467E+02</rscale>
<asrwt>0</asrwt>
<pdfrwt beam="2">  1        4 0.24524831E-02 0.20003467E+02</pdfrwt>
<pdfrwt beam="1">  1       -4 0.96542338E-03 0.20003467E+02</pdfrwt>
<totfact> 0.12879130E+06</totfact>
</mgrwt>
</event>
<event>
 5    1  0.4710515E-007  0.2000285E+02  0.7818608E-02  0.1745271E+00
         -4   -1    0    0    0  501 -0.00000000000E+00  0.00000000000E+00  0.79288176047E+01  0.80549704288E+01  0.14200000000E+01 0. -1.
          4   -1    0    0  501    0  0.00000000000E+00 -0.00000000000E+00 -0.12349081928E+02  0.12430455521E+02  0.14200000000E+01 0.  1.
       1023    2    1    2    0    0  0.00000000000E+00  0.00000000000E+00 -0.44202643231E+01  0.20485425950E+02  0.20002848289E+02 0.  0.
        -13    1    3    3    0    0 -0.98825371937E+01  0.15320673270E+01 -0.22863641569E+01  0.10259162014E+02  0.10570000000E+00 0.  1.
         13    1    3    3    0    0  0.98825371937E+01 -0.15320673270E+01 -0.21339001662E+01  0.10226263936E+02  0.10570000000E+00 0. -1.
<mgrwt>
<rscale>  0 0.20002848E+02</rscale>
<asrwt>0</asrwt>
<pdfrwt beam="2">  1        4 0.19158223E-02 0.20002848E+02</pdfrwt>
<pdfrwt beam="1">  1       -4 0.12357817E-02 0.20002848E+02</pdfrwt>
<totfact> 0.12981411E+06</totfact>
</mgrwt>
</event>
<event>
 5    1  0.4710515E-007  0.2000725E+02  0.7818608E-02  0.1745184E+00
          4   -1    0    0  501    0  0.00000000000E+00  0.00000000000E+00  0.57098142513E+01  0.58837385041E+01  0.14200000000E+01 0. -1.
         -4   -1    0    0    0  501 -0.00000000000E+00 -0.00000000000E+00 -0.17059605691E+02  0.17118602348E+02  0.14200000000E+01 0.  1.
       1023    2    1    2    0    0  0.00000000000E+00  0.00000000000E+00 -0.11349791440E+02  0.23002340852E+02  0.20007246661E+02 0.  0.
        -13    1    3    3    0    0  0.62806984126E+01 -0.77852867752E+01 -0.56074197405E+01  0.11467876497E+02  0.10570000000E+00 0.  1.
         13    1    3    3    0    0 -0.62806984126E+01  0.77852867752E+01 -0.57423716995E+01  0.11534464355E+02  0.10570000000E+00 0. -1.
<mgrwt>
<rscale>  0 0.20007247E+02</rscale>
<asrwt>0</asrwt>
<pdfrwt beam="1">  1        4 0.89634996E-03 0.20007247E+02</pdfrwt>
<pdfrwt beam="2">  1       -4 0.26424717E-02 0.20007247E+02</pdfrwt>
<totfact> 0.12828965E+06</totfact>
</mgrwt>
</event>
<event>
 5    1  0.4710515E-007  0.2000281E+02  0.7818608E-02  0.1745272E+00
          4   -1    0    0  501    0  0.00000000000E+00  0.00000000000E+00  0.81031987071E+01  0.82266779010E+01  0.14200000000E+01 0.  1.
         -4   -1    0    0    0  501 -0.00000000000E+00 -0.00000000000E+00 -0.12085572982E+02  0.12168708818E+02  0.14200000000E+01 0. -1.
       1023    2    1    2    0    0  0.00000000000E+00  0.00000000000E+00 -0.39823742748E+01  0.20395386719E+02  0.20002812166E+02 0.  0.
        -13    1    3    3    0    0  0.85648941500E+01 -0.51621584311E+01 -0.21012863507E+01  0.10219191176E+02  0.10570000000E+00 0.  1.
         13    1    3    3    0    0 -0.85648941500E+01  0.51621584311E+01 -0.18810879241E+01  0.10176195543E+02  0.10570000000E+00 0. -1.
<mgrwt>
<rscale>  0 0.20002812E+02</rscale>
<asrwt>0</asrwt>
<pdfrwt beam="1">  1        4 0.12625394E-02 0.20002812E+02</pdfrwt>
<pdfrwt beam="2">  1       -4 0.18752124E-02 0.20002812E+02</pdfrwt>
<totfact> 0.12986795E+06</totfact>
</mgrwt>
</event>
<event>
 5    1  0.4710515E-007  0.2000516E+02  0.7818608E-02  0.1745226E+00
         -4   -1    0    0    0  501 -0.00000000000E+00  0.00000000000E+00  0.52755527145E+01  0.54633191783E+01  0.14200000000E+01 0. -1.
          4   -1    0    0  501    0  0.00000000000E+00 -0.00000000000E+00 -0.18417959942E+02  0.18472618883E+02  0.14200000000E+01 0.  1.
       1023    2    1    2    0    0  0.00000000000E+00  0.00000000000E+00 -0.13142407227E+02  0.23935938062E+02  0.20005155915E+02 0.  0.
        -13    1    3    3    0    0  0.46136544995E+01  0.88743775929E+01 -0.65745453996E+01  0.11969803892E+02  0.10570000000E+00 0.  1.
         13    1    3    3    0    0 -0.46136544995E+01 -0.88743775929E+01 -0.65678618275E+01  0.11966134170E+02  0.10570000000E+00 0. -1.
<mgrwt>
<rscale>  0 0.20005156E+02</rscale>
<asrwt>0</asrwt>
<pdfrwt beam="2">  1        4 0.28521804E-02 0.20005156E+02</pdfrwt>
<pdfrwt beam="1">  1       -4 0.83027161E-03 0.20005156E+02</pdfrwt>
<totfact> 0.12778662E+06</totfact>
</mgrwt>
</event>
<event>
 5    1  0.4710515E-007  0.2000693E+02  0.7818608E-02  0.1745190E+00
         -4   -1    0    0    0  501 -0.00000000000E+00  0.00000000000E+00  0.63613439108E+00  0.15559778159E+01  0.14200000000E+01 0. -1.
          4   -1    0    0  501    0  0.00000000000E+00 -0.00000000000E+00 -0.90371659751E+02  0.90382815215E+02  0.14200000000E+01 0.  1.
       1023    2    1    2    0    0  0.00000000000E+00  0.00000000000E+00 -0.89735525360E+02  0.91938793031E+02  0.20006927608E+02 0.  0.
        -13    1    3    3    0    0  0.99999354731E+01 -0.21006396765E+00 -0.45435790289E+02  0.46523811624E+02  0.10570000000E+00 0. -1.
         13    1    3    3    0    0 -0.99999354731E+01  0.21006396765E+00 -0.44299735071E+02  0.45414981407E+02  0.10570000000E+00 0.  1.
<mgrwt>
<rscale>  0 0.20006928E+02</rscale>
<asrwt>0</asrwt>
<pdfrwt beam="2">  1        4 0.13974942E-01 0.20006928E+02</pdfrwt>
<pdfrwt beam="1">  1       -4 0.16948220E-03 0.20006928E+02</pdfrwt>
<totfact> 0.10030106E+06</totfact>
</mgrwt>
</event>
<event>
 5    1  0.4710515E-007  0.2000522E+02  0.7818608E-02  0.1745224E+00
         -4   -1    0    0    0  501 -0.00000000000E+00  0.00000000000E+00  0.24827943224E+01  0.28601866455E+01  0.14200000000E+01 0.  1.
          4   -1    0    0  501    0  0.00000000000E+00 -0.00000000000E+00 -0.37059893978E+02  0.37087088611E+02  0.14200000000E+01 0.  1.
       1023    2    1    2    0    0  0.00000000000E+00  0.00000000000E+00 -0.34577099656E+02  0.39947275257E+02  0.20005223814E+02 0.  0.
        -13    1    3    3    0    0  0.12095958216E+00 -0.99997390609E+01 -0.17643852907E+02  0.20281176751E+02  0.10570000000E+00 0.  1.
         13    1    3    3    0    0 -0.12095958216E+00  0.99997390609E+01 -0.16933246749E+02  0.19666098506E+02  0.10570000000E+00 0. -1.
<mgrwt>
<rscale>  0 0.20005224E+02</rscale>
<asrwt>0</asrwt>
<pdfrwt beam="2">  1        4 0.57326439E-02 0.20005224E+02</pdfrwt>
<pdfrwt beam="1">  1       -4 0.41309046E-03 0.20005224E+02</pdfrwt>
<totfact> 0.11958741E+06</totfact>
</mgrwt>
</event>
<event>
 4    1  0.4710515E-007  0.2007244E+02  0.7818608E-02  0.1743891E+00
         -4   -1    0    0    0  501 -0.00000000000E+00  0.00000000000E+00  0.78247126220E+00  0.16213146752E+01  0.14200000000E+01 0.  1.
          4   -1    0    0  501    0  0.00000000000E+00 -0.00000000000E+00 -0.82958814334E+02  0.82970966462E+02  0.14200000000E+01 0. -1.
        -13    1    1    2    0    0  0.10027481508E+02  0.27311001663E+00 -0.42349100013E+02  0.43521057189E+02  0.10570000000E+00 0. -1.
         13    1    1    2    0    0 -0.10027481508E+02 -0.27311001663E+00 -0.39827243059E+02  0.41071223948E+02  0.10570000000E+00 0.  1.
<mgrwt>
<rscale>  0 0.20072436E+02</rscale>
<asrwt>0</asrwt>
<pdfrwt beam="2">  1        4 0.12828351E-01 0.20072436E+02</pdfrwt>
<pdfrwt beam="1">  1       -4 0.18584146E-03 0.20072436E+02</pdfrwt>
<totfact> 0.10189573E+06</totfact>
</mgrwt>
</event>
<event>
 5    1  0.4710515E-007  0.2000675E+02  0.7818608E-02  0.1745194E+00
          4   -1    0    0  501    0  0.00000000000E+00  0.00000000000E+00  0.56955775774E+02  0.56973474477E+02  0.14200000000E+01 0. -1.
         -4   -1    0    0    0  501 -0.00000000000E+00 -0.00000000000E+00 -0.14490240527E+01  0.20288101698E+01  0.14200000000E+01 0.  1.
       1023    2    1    2    0    0  0.00000000000E+00  0.00000000000E+00  0.55506751721E+02  0.59002284647E+02  0.20006751534E+02 0.  0.
        -13    1    3    3    0    0 -0.75693435419E+01  0.65382502913E+01  0.28085406767E+02  0.29813502382E+02  0.10570000000E+00 0.  1.
         13    1    3    3    0    0  0.75693435419E+01 -0.65382502913E+01  0.27421344954E+02  0.29188782265E+02  0.10570000000E+00 0. -1.
<mgrwt>
<rscale>  0 0.20006752E+02</rscale>
<asrwt>0</asrwt>
<pdfrwt beam="1">  1        4 0.88083852E-02 0.20006752E+02</pdfrwt>
<pdfrwt beam="2">  1       -4 0.26888722E-03 0.20006752E+02</pdfrwt>
<totfact> 0.11149722E+06</totfact>
</mgrwt>
</event>
<event>
 5    1  0.5352578E-007  0.2000159E+02  0.7818608E-02  0.1745297E+00
          4   -1    0    0  501    0  0.00000000000E+00  0.00000000000E+00  0.29639448541E+02  0.29673444522E+02  0.14200000000E+01 0.  1.
         -4   -1    0    0    0  501 -0.00000000000E+00 -0.00000000000E+00 -0.31874005045E+01  0.34894013779E+01  0.14200000000E+01 0. -1.
       1023    2    1    2    0    0  0.00000000000E+00  0.00000000000E+00  0.26452048037E+02  0.33162845900E+02  0.20001587509E+02 0.  0.
        -13    1    3    3    0    0  0.32357942186E+01  0.94620126386E+01  0.13339156123E+02  0.16671661764E+02  0.10570000000E+00 0. -1.
         13    1    3    3    0    0 -0.32357942186E+01 -0.94620126386E+01  0.13112891914E+02  0.16491184137E+02  0.10570000000E+00 0.  1.
<mgrwt>
<rscale>  0 0.20001588E+02</rscale>
<asrwt>0</asrwt>
<pdfrwt beam="1">  1        4 0.45857611E-02 0.20001588E+02</pdfrwt>
<pdfrwt beam="2">  1       -4 0.51621522E-03 0.20001588E+02</pdfrwt>
<totfact> 0.12291512E+06</totfact>
</mgrwt>
</event>
<event>
 5    1  0.4710515E-007  0.2000199E+02  0.7818608E-02  0.1745288E+00
          4   -1    0    0  501    0  0.00000000000E+00  0.00000000000E+00  0.17071530510E+02  0.17130486098E+02  0.14200000000E+01 0.  1.
         -4   -1    0    0    0  501 -0.00000000000E+00 -0.00000000000E+00 -0.57025983181E+01  0.58767361331E+01  0.14200000000E+01 0. -1.
       1023    2    1    2    0    0  0.00000000000E+00  0.00000000000E+00  0.11368932192E+02  0.23007222231E+02  0.20001991291E+02 0.  0.
        -13    1    3    3    0    0 -0.94808191737E+01 -0.31815620890E+01  0.56594794365E+01  0.11491264052E+02  0.10570000000E+00 0. -1.
         13    1    3    3    0    0  0.94808191737E+01  0.31815620890E+01  0.57094527557E+01  0.11515958179E+02  0.10570000000E+00 0.  1.
<mgrwt>
<rscale>  0 0.20001991E+02</rscale>
<asrwt>0</asrwt>
<pdfrwt beam="1">  1        4 0.26443195E-02 0.20001991E+02</pdfrwt>
<pdfrwt beam="2">  1       -4 0.89525309E-03 0.20001991E+02</pdfrwt>
<totfact> 0.12835558E+06</totfact>
</mgrwt>
</event>
<event>
 5    1  0.4710515E-007  0.2000451E+02  0.7818608E-02  0.1745238E+00
         -4   -1    0    0    0  501 -0.00000000000E+00  0.00000000000E+00  0.63062818221E+01  0.64641774744E+01  0.14200000000E+01 0.  1.
          4   -1    0    0  501    0  0.00000000000E+00 -0.00000000000E+00 -0.15477408929E+02  0.15542412527E+02  0.14200000000E+01 0. -1.
       1023    2    1    2    0    0  0.00000000000E+00  0.00000000000E+00 -0.91711271066E+01  0.22006590001E+02  0.20004510268E+02 0.  0.
        -13    1    3    3    0    0  0.23992809997E+01 -0.97084087107E+01 -0.44144796135E+01  0.10931996696E+02  0.10570000000E+00 0. -1.
         13    1    3    3    0    0 -0.23992809997E+01  0.97084087107E+01 -0.47566474931E+01  0.11074593305E+02  0.10570000000E+00 0.  1.
<mgrwt>
<rscale>  0 0.20004510E+02</rscale>
<asrwt>0</asrwt>
<pdfrwt beam="2">  1        4 0.23982859E-02 0.20004510E+02</pdfrwt>
<pdfrwt beam="1">  1       -4 0.98734330E-03 0.20004510E+02</pdfrwt>
<totfact> 0.12889912E+06</totfact>
</mgrwt>
</event>
<event>
 5    1  0.4710515E-007  0.2000196E+02  0.7818608E-02  0.1745289E+00
          4   -1    0    0  501    0  0.00000000000E+00  0.00000000000E+00  0.62016763145E+00  0.15495185998E+01  0.14200000000E+01 0. -1.
         -4   -1    0    0    0  501 -0.00000000000E+00 -0.00000000000E+00 -0.91260084287E+02  0.91271131165E+02  0.14200000000E+01 0.  1.
       1023    2    1    2    0    0  0.00000000000E+00  0.00000000000E+00 -0.90639916656E+02  0.92820649765E+02  0.20001963188E+02 0.  0.
        -13    1    3    3    0    0 -0.96155125031E-01 -0.99999607170E+01 -0.45322042570E+02  0.46412360157E+02  0.10570000000E+00 0. -1.
         13    1    3    3    0    0  0.96155125031E-01  0.99999607170E+01 -0.45317874086E+02  0.46408289608E+02  0.10570000000E+00 0.  1.
<mgrwt>
<rscale>  0 0.20001963E+02</rscale>
<asrwt>0</asrwt>
<pdfrwt beam="1">  1        4 0.16774877E-03 0.20001963E+02</pdfrwt>
<pdfrwt beam="2">  1       -4 0.14112345E-01 0.20001963E+02</pdfrwt>
<totfact> 0.10008662E+06</totfact>
</mgrwt>
</event>
<event>
 5    1  0.4710515E-007  0.2000601E+02  0.7818608E-02  0.1745209E+00
         -4   -1    0    0    0  501 -0.00000000000E+00  0.00000000000E+00  0.22836631333E+01  0.26891480633E+01  0.14200000000E+01 0.  1.
          4   -1    0    0  501    0  0.00000000000E+00 -0.00000000000E+00 -0.39823719354E+02  0.39849027883E+02  0.14200000000E+01 0. -1.
       1023    2    1    2    0    0  0.00000000000E+00  0.00000000000E+00 -0.37540056221E+02  0.42538175946E+02  0.20006013890E+02 0.  0.
        -13    1    3    3    0    0 -0.90020386279E+01  0.43575156231E+01 -0.19101709680E+02  0.21561797862E+02  0.10570000000E+00 0. -1.
         13    1    3    3    0    0  0.90020386279E+01 -0.43575156231E+01 -0.18438346542E+02  0.20976378084E+02  0.10570000000E+00 0.  1.
<mgrwt>
<rscale>  0 0.20006014E+02</rscale>
<asrwt>0</asrwt>
<pdfrwt beam="2">  1        4 0.61598636E-02 0.20006014E+02</pdfrwt>
<pdfrwt beam="1">  1       -4 0.38447077E-03 0.20006014E+02</pdfrwt>
<totfact> 0.11838868E+06</totfact>
</mgrwt>
</event>
<event>
 5    1  0.4710515E-007  0.2000197E+02  0.7818608E-02  0.1745289E+00
          4   -1    0    0  501    0  0.00000000000E+00  0.00000000000E+00  0.12595786417E+01  0.18981407626E+01  0.14200000000E+01 0. -1.
         -4   -1    0    0    0  501 -0.00000000000E+00 -0.00000000000E+00 -0.62701124737E+02  0.62717202132E+02  0.14200000000E+01 0.  1.
       1023    2    1    2    0    0  0.00000000000E+00  0.00000000000E+00 -0.61441546096E+02  0.64615342895E+02  0.20001973673E+02 0.  0.
        -13    1    3    3    0    0  0.88181764881E+01  0.47163071935E+01 -0.30497542398E+02  0.32095405511E+02  0.10570000000E+00 0. -1.
         13    1    3    3    0    0 -0.88181764881E+01 -0.47163071935E+01 -0.30944003698E+02  0.32519937384E+02  0.10570000000E+00 0.  1.
<mgrwt>
<rscale>  0 0.20001974E+02</rscale>
<asrwt>0</asrwt>
<pdfrwt beam="1">  1        4 0.24413826E-03 0.20001974E+02</pdfrwt>
<pdfrwt beam="2">  1       -4 0.96966818E-02 0.20001974E+02</pdfrwt>
<totfact> 0.10942969E+06</totfact>
</mgrwt>
</event>
<event>
 5    1  0.4710515E-007  0.2000722E+02  0.7818608E-02  0.1745185E+00
         -4   -1    0    0    0  501 -0.00000000000E+00  0.00000000000E+00  0.15693163858E+01  0.21164011715E+01  0.14200000000E+01 0.  1.
          4   -1    0    0  501    0  0.00000000000E+00 -0.00000000000E+00 -0.53744848790E+02  0.53763604524E+02  0.14200000000E+01 0. -1.
       1023    2    1    2    0    0  0.00000000000E+00  0.00000000000E+00 -0.52175532404E+02  0.55880005696E+02  0.20007220070E+02 0.  0.
        -13    1    3    3    0    0 -0.54890113458E+01 -0.83622909931E+01 -0.25913678947E+02  0.27777456422E+02  0.10570000000E+00 0.  1.
         13    1    3    3    0    0  0.54890113458E+01  0.83622909931E+01 -0.26261853457E+02  0.28102549274E+02  0.10570000000E+00 0. -1.
<mgrwt>
<rscale>  0 0.20007220E+02</rscale>
<asrwt>0</asrwt>
<pdfrwt beam="2">  1        4 0.83119633E-02 0.20007220E+02</pdfrwt>
<pdfrwt beam="1">  1       -4 0.28495953E-03 0.20007220E+02</pdfrwt>
<totfact> 0.11271565E+06</totfact>
</mgrwt>
</event>
<event>
 5    1  0.4710515E-007  0.2000258E+02  0.7818608E-02  0.1745277E+00
         -4   -1    0    0    0  501 -0.00000000000E+00  0.00000000000E+00  0.46325945789E+02  0.46347703862E+02  0.14200000000E+01 0. -1.
          4   -1    0    0  501    0  0.00000000000E+00 -0.00000000000E+00 -0.19009463985E+01  0.23727615156E+01  0.14200000000E+01 0.  1.
       1023    2    1    2    0    0  0.00000000000E+00  0.00000000000E+00  0.44424999390E+02  0.48720465377E+02  0.20002579227E+02 0.  0.
        -13    1    3    3    0    0  0.99961389616E+01  0.28811535591E+00  0.22441208037E+02  0.24568776836E+02  0.10570000000E+00 0.  1.
         13    1    3    3    0    0 -0.99961389616E+01 -0.28811535591E+00  0.21983791354E+02  0.24151688541E+02  0.10570000000E+00 0. -1.
<mgrwt>
<rscale>  0 0.20002579E+02</rscale>
<asrwt>0</asrwt>
<pdfrwt beam="2">  1        4 0.33042050E-03 0.20002579E+02</pdfrwt>
<pdfrwt beam="1">  1       -4 0.71650348E-02 0.20002579E+02</pdfrwt>
<totfact> 0.11571355E+06</totfact>
</mgrwt>
</event>
<event>
 5    1  0.4710515E-007  0.2000199E+02  0.7818608E-02  0.1745289E+00
          4   -1    0    0  501    0  0.00000000000E+00  0.00000000000E+00  0.51640934754E+01  0.53557689852E+01  0.14200000000E+01 0.  1.
         -4   -1    0    0    0  501 -0.00000000000E+00 -0.00000000000E+00 -0.18796488163E+02  0.18850049529E+02  0.14200000000E+01 0. -1.
       1023    2    1    2    0    0  0.00000000000E+00  0.00000000000E+00 -0.13632394687E+02  0.24205818514E+02  0.20001986527E+02 0.  0.
        -13    1    3    3    0    0 -0.99713298035E+01 -0.76027907781E+00 -0.67471916781E+01  0.12064046185E+02  0.10570000000E+00 0.  1.
         13    1    3    3    0    0  0.99713298035E+01  0.76027907781E+00 -0.68852030093E+01  0.12141772329E+02  0.10570000000E+00 0. -1.
<mgrwt>
<rscale>  0 0.20001987E+02</rscale>
<asrwt>0</asrwt>
<pdfrwt beam="1">  1        4 0.81334031E-03 0.20001987E+02</pdfrwt>
<pdfrwt beam="2">  1       -4 0.29106317E-02 0.20001987E+02</pdfrwt>
<totfact> 0.12767582E+06</totfact>
</mgrwt>
</event>
<event>
 5    1  0.4710515E-007  0.2000669E+02  0.7818608E-02  0.1745195E+00
         -4   -1    0    0    0  501 -0.00000000000E+00  0.00000000000E+00  0.57815956694E+02  0.57833392157E+02  0.14200000000E+01 0. -1.
          4   -1    0    0  501    0  0.00000000000E+00 -0.00000000000E+00 -0.14187711104E+01  0.20073144905E+01  0.14200000000E+01 0.  1.
       1023    2    1    2    0    0  0.00000000000E+00  0.00000000000E+00  0.56397185583E+02  0.59840706648E+02  0.20006689641E+02 0.  0.
        -13    1    3    3    0    0  0.37036919474E+01  0.92894665665E+01  0.27569678556E+02  0.29327629828E+02  0.10570000000E+00 0.  1.
         13    1    3    3    0    0 -0.37036919474E+01 -0.92894665665E+01  0.28827507027E+02  0.30513076820E+02  0.10570000000E+00 0. -1.
<mgrwt>
<rscale>  0 0.20006690E+02</rscale>
<asrwt>0</asrwt>
<pdfrwt beam="2">  1        4 0.26488621E-03 0.20006690E+02</pdfrwt>
<pdfrwt beam="1">  1       -4 0.89413772E-02 0.20006690E+02</pdfrwt>
<totfact> 0.11117492E+06</totfact>
</mgrwt>
</event>
<event>
 5    1  0.4710515E-007  0.2000624E+02  0.7818608E-02  0.1745204E+00
         -4   -1    0    0    0  501 -0.00000000000E+00  0.00000000000E+00  0.25426035820E+02  0.25465657217E+02  0.14200000000E+01 0. -1.
          4   -1    0    0  501    0  0.00000000000E+00 -0.00000000000E+00 -0.37631429028E+01  0.40221442673E+01  0.14200000000E+01 0.  1.
       1023    2    1    2    0    0  0.00000000000E+00  0.00000000000E+00  0.21662892917E+02  0.29487801485E+02  0.20006236699E+02 0.  0.
        -13    1    3    3    0    0 -0.68825171107E+01 -0.72567347844E+01  0.10613012572E+02  0.14583430662E+02  0.10570000000E+00 0.  1.
         13    1    3    3    0    0  0.68825171107E+01  0.72567347844E+01  0.11049880345E+02  0.14904370823E+02  0.10570000000E+00 0. -1.
<mgrwt>
<rscale>  0 0.20006237E+02</rscale>
<asrwt>0</asrwt>
<pdfrwt beam="2">  1        4 0.60191603E-03 0.20006237E+02</pdfrwt>
<pdfrwt beam="1">  1       -4 0.39346689E-02 0.20006237E+02</pdfrwt>
<totfact> 0.12474672E+06</totfact>
</mgrwt>
</event>
<event>
 5    1  0.4710515E-007  0.2000192E+02  0.7818608E-02  0.1745290E+00
          4   -1    0    0  501    0  0.00000000000E+00  0.00000000000E+00  0.32633650880E+01  0.35589256381E+01  0.14200000000E+01 0.  1.
         -4   -1    0    0    0  501 -0.00000000000E+00 -0.00000000000E+00 -0.29007610678E+02  0.29042346277E+02  0.14200000000E+01 0. -1.
       1023    2    1    2    0    0  0.00000000000E+00  0.00000000000E+00 -0.25744245590E+02  0.32601271915E+02  0.20001918644E+02 0.  0.
        -13    1    3    3    0    0 -0.17955563240E+01 -0.98378826256E+01 -0.12884515196E+02  0.16310421864E+02  0.10570000000E+00 0. -1.
         13    1    3    3    0    0  0.17955563240E+01  0.98378826256E+01 -0.12859730394E+02  0.16290850051E+02  0.10570000000E+00 0.  1.
<mgrwt>
<rscale>  0 0.20001919E+02</rscale>
<asrwt>0</asrwt>
<pdfrwt beam="1">  1        4 0.52746358E-03 0.20001919E+02</pdfrwt>
<pdfrwt beam="2">  1       -4 0.44881166E-02 0.20001919E+02</pdfrwt>
<totfact> 0.12319469E+06</totfact>
</mgrwt>
</event>
<event>
 5    1  0.4710515E-007  0.2000426E+02  0.7818608E-02  0.1745243E+00
          4   -1    0    0  501    0  0.00000000000E+00  0.00000000000E+00  0.37318901519E+00  0.14682200247E+01  0.14200000000E+01 0. -1.
         -4   -1    0    0    0  501 -0.00000000000E+00 -0.00000000000E+00 -0.10755621339E+03  0.10756558669E+03  0.14200000000E+01 0.  1.
       1023    2    1    2    0    0  0.00000000000E+00  0.00000000000E+00 -0.10718302438E+03  0.10903380671E+03  0.20004256832E+02 0.  0.
        -13    1    3    3    0    0  0.50070675418E+01  0.86579807569E+01 -0.53627751804E+02  0.54552527826E+02  0.10570000000E+00 0.  1.
         13    1    3    3    0    0 -0.50070675418E+01 -0.86579807569E+01 -0.53555272576E+02  0.54481278888E+02  0.10570000000E+00 0. -1.
<mgrwt>
<rscale>  0 0.20004257E+02</rscale>
<asrwt>0</asrwt>
<pdfrwt beam="1">  1        4 0.14236796E-03 0.20004257E+02</pdfrwt>
<pdfrwt beam="2">  1       -4 0.16632054E-01 0.20004257E+02</pdfrwt>
<totfact> 0.95471728E+05</totfact>
</mgrwt>
</event>
<event>
 5    1  0.4710515E-007  0.2000261E+02  0.7818608E-02  0.1745276E+00
          4   -1    0    0  501    0  0.00000000000E+00  0.00000000000E+00  0.38986647434E+02  0.39012498999E+02  0.14200000000E+01 0. -1.
         -4   -1    0    0    0  501 -0.00000000000E+00 -0.00000000000E+00 -0.23403293696E+01  0.27374333888E+01  0.14200000000E+01 0.  1.
       1023    2    1    2    0    0  0.00000000000E+00  0.00000000000E+00  0.36646318064E+02  0.41749932387E+02  0.20002605498E+02 0.  0.
        -13    1    3    3    0    0 -0.21340933863E+01 -0.97701162844E+01  0.18170386225E+02  0.20740868710E+02  0.10570000000E+00 0. -1.
         13    1    3    3    0    0  0.21340933863E+01  0.97701162844E+01  0.18475931839E+02  0.21009063677E+02  0.10570000000E+00 0.  1.
<mgrwt>
<rscale>  0 0.20002605E+02</rscale>
<asrwt>0</asrwt>
<pdfrwt beam="1">  1        4 0.60304810E-02 0.20002605E+02</pdfrwt>
<pdfrwt beam="2">  1       -4 0.39258570E-03 0.20002605E+02</pdfrwt>
<totfact> 0.11878799E+06</totfact>
</mgrwt>
</event>
<event>
 4    1  0.4710515E-007  0.2001540E+02  0.7818608E-02  0.1745022E+00
         -4   -1    0    0    0  501 -0.00000000000E+00  0.00000000000E+00  0.26568148492E+02  0.26606069125E+02  0.14200000000E+01 0. -1.
          4   -1    0    0  501    0  0.00000000000E+00 -0.00000000000E+00 -0.35938157442E+01  0.38641831742E+01  0.14200000000E+01 0.  1.
        -13    1    1    2    0    0 -0.32829440482E+01  0.94463860506E+01  0.12038106275E+02  0.15650530541E+02  0.10570000000E+00 0. -1.
         13    1    1    2    0    0  0.32829440482E+01 -0.94463860506E+01  0.10936226474E+02  0.14819721759E+02  0.10570000000E+00 0.  1.
<mgrwt>
<rscale>  0 0.20015402E+02</rscale>
<asrwt>0</asrwt>
<pdfrwt beam="2">  1        4 0.57660922E-03 0.20015402E+02</pdfrwt>
<pdfrwt beam="1">  1       -4 0.41111218E-02 0.20015402E+02</pdfrwt>
<totfact> 0.12411824E+06</totfact>
</mgrwt>
</event>
<event>
 5    1  0.5262256E-007  0.2000130E+02  0.7818608E-02  0.1745302E+00
         -4   -1    0    0    0  501 -0.00000000000E+00  0.00000000000E+00  0.34088010134E+01  0.36927394099E+01  0.14200000000E+01 0. -1.
          4   -1    0    0  501    0  0.00000000000E+00 -0.00000000000E+00 -0.27863832942E+02  0.27899992584E+02  0.14200000000E+01 0.  1.
       1023    2    1    2    0    0  0.00000000000E+00  0.00000000000E+00 -0.24455031928E+02  0.31592731994E+02  0.20001303164E+02 0.  0.
        -13    1    3    3    0    0 -0.89099553554E+01  0.45403131404E+01 -0.12210820554E+02  0.15783442557E+02  0.10570000000E+00 0.  1.
         13    1    3    3    0    0  0.89099553554E+01 -0.45403131404E+01 -0.12244211374E+02  0.15809289437E+02  0.10570000000E+00 0. -1.
<mgrwt>
<rscale>  0 0.20001303E+02</rscale>
<asrwt>0</asrwt>
<pdfrwt beam="2">  1        4 0.43113663E-02 0.20001303E+02</pdfrwt>
<pdfrwt beam="1">  1       -4 0.54905387E-03 0.20001303E+02</pdfrwt>
<totfact> 0.12371679E+06</totfact>
</mgrwt>
</event>
<event>
 5    1  0.4710515E-007  0.2000897E+02  0.7818608E-02  0.1745150E+00
         -4   -1    0    0    0  501 -0.00000000000E+00  0.00000000000E+00  0.71297857661E+01  0.72698174028E+01  0.14200000000E+01 0. -1.
          4   -1    0    0  501    0  0.00000000000E+00 -0.00000000000E+00 -0.13724711906E+02  0.13797975101E+02  0.14200000000E+01 0.  1.
       1023    2    1    2    0    0  0.00000000000E+00  0.00000000000E+00 -0.65949261395E+01  0.21067792504E+02  0.20008968744E+02 0.  0.
        -13    1    3    3    0    0  0.99475098449E+01 -0.10609334140E+01 -0.32955680061E+01  0.10533303033E+02  0.10570000000E+00 0. -1.
         13    1    3    3    0    0 -0.99475098449E+01  0.10609334140E+01 -0.32993581335E+01  0.10534489471E+02  0.10570000000E+00 0.  1.
<mgrwt>
<rscale>  0 0.20008969E+02</rscale>
<asrwt>0</asrwt>
<pdfrwt beam="2">  1        4 0.21279014E-02 0.20008969E+02</pdfrwt>
<pdfrwt beam="1">  1       -4 0.11132974E-02 0.20008969E+02</pdfrwt>
<totfact> 0.12938909E+06</totfact>
</mgrwt>
</event>
<event>
 5    1  0.4710515E-007  0.2000139E+02  0.7818608E-02  0.1745301E+00
         -4   -1    0    0    0  501 -0.00000000000E+00  0.00000000000E+00  0.52625271888E+02  0.52644426498E+02  0.14200000000E+01 0. -1.
          4   -1    0    0  501    0  0.00000000000E+00 -0.00000000000E+00 -0.16129378108E+01  0.21489458768E+01  0.14200000000E+01 0.  1.
       1023    2    1    2    0    0  0.00000000000E+00  0.00000000000E+00  0.51012334077E+02  0.54793372375E+02  0.20001385657E+02 0.  0.
        -13    1    3    3    0    0 -0.63672038733E+01 -0.77110033161E+01  0.25389064329E+02  0.27287664197E+02  0.10570000000E+00 0.  1.
         13    1    3    3    0    0  0.63672038733E+01  0.77110033161E+01  0.25623269748E+02  0.27505708178E+02  0.10570000000E+00 0. -1.
<mgrwt>
<rscale>  0 0.20001386E+02</rscale>
<asrwt>0</asrwt>
<pdfrwt beam="2">  1        4 0.29084909E-03 0.20001386E+02</pdfrwt>
<pdfrwt beam="1">  1       -4 0.81389007E-02 0.20001386E+02</pdfrwt>
<totfact> 0.11321623E+06</totfact>
</mgrwt>
</event>
<event>
 5    1  0.4710515E-007  0.2000533E+02  0.7818608E-02  0.1745222E+00
         -4   -1    0    0    0  501 -0.00000000000E+00  0.00000000000E+00  0.20231885771E+02  0.20281656783E+02  0.14200000000E+01 0.  1.
          4   -1    0    0  501    0  0.00000000000E+00 -0.00000000000E+00 -0.47862552507E+01  0.49924582447E+01  0.14200000000E+01 0. -1.
       1023    2    1    2    0    0  0.00000000000E+00  0.00000000000E+00  0.15445630521E+02  0.25274115028E+02  0.20005333995E+02 0.  0.
        -13    1    3    3    0    0 -0.70128726259E+01 -0.71297932446E+01  0.79336139222E+01  0.12765881737E+02  0.10570000000E+00 0. -1.
         13    1    3    3    0    0  0.70128726259E+01  0.71297932446E+01  0.75120165984E+01  0.12508233290E+02  0.10570000000E+00 0.  1.
<mgrwt>
<rscale>  0 0.20005334E+02</rscale>
<asrwt>0</asrwt>
<pdfrwt beam="2">  1        4 0.75603727E-03 0.20005334E+02</pdfrwt>
<pdfrwt beam="1">  1       -4 0.31322881E-02 0.20005334E+02</pdfrwt>
<totfact> 0.12703426E+06</totfact>
</mgrwt>
</event>
<event>
 4    1  0.4710515E-007  0.2001555E+02  0.7818608E-02  0.1745019E+00
         -4   -1    0    0    0  501 -0.00000000000E+00  0.00000000000E+00  0.88483188493E+00  0.16731190826E+01  0.14200000000E+01 0.  1.
          4   -1    0    0  501    0  0.00000000000E+00 -0.00000000000E+00 -0.77512419049E+02  0.77525424906E+02  0.14200000000E+01 0. -1.
        -13    1    1    2    0    0 -0.28995569987E+01  0.95769863019E+01 -0.37778609690E+02  0.39081461334E+02  0.10570000000E+00 0.  1.
         13    1    1    2    0    0  0.28995569987E+01 -0.95769863019E+01 -0.38848977474E+02  0.40117082654E+02  0.10570000000E+00 0. -1.
<mgrwt>
<rscale>  0 0.20015550E+02</rscale>
<asrwt>0</asrwt>
<pdfrwt beam="2">  1        4 0.11986622E-01 0.20015550E+02</pdfrwt>
<pdfrwt beam="1">  1       -4 0.19776597E-03 0.20015550E+02</pdfrwt>
<totfact> 0.10421202E+06</totfact>
</mgrwt>
</event>
<event>
 4    1  0.4710515E-007  0.2005435E+02  0.7818608E-02  0.1744249E+00
          4   -1    0    0  501    0  0.00000000000E+00  0.00000000000E+00  0.42421258518E+01  0.44734809425E+01  0.14200000000E+01 0.  1.
         -4   -1    0    0    0  501 -0.00000000000E+00 -0.00000000000E+00 -0.22818212013E+02  0.22862353323E+02  0.14200000000E+01 0. -1.
        -13    1    1    2    0    0 -0.98190091643E+01 -0.20147631005E+01 -0.89518528471E+01  0.13439458814E+02  0.10570000000E+00 0. -1.
         13    1    1    2    0    0  0.98190091643E+01  0.20147631005E+01 -0.96242333138E+01  0.13896375451E+02  0.10570000000E+00 0.  1.
<mgrwt>
<rscale>  0 0.20054348E+02</rscale>
<asrwt>0</asrwt>
<pdfrwt beam="1">  1        4 0.67382679E-03 0.20054348E+02</pdfrwt>
<pdfrwt beam="2">  1       -4 0.35316861E-02 0.20054348E+02</pdfrwt>
<totfact> 0.12527924E+06</totfact>
</mgrwt>
</event>
<event>
 4    1  0.4710515E-007  0.2001511E+02  0.7818608E-02  0.1745028E+00
          4   -1    0    0  501    0  0.00000000000E+00  0.00000000000E+00  0.42836902230E+02  0.42860431550E+02  0.14200000000E+01 0.  1.
         -4   -1    0    0    0  501 -0.00000000000E+00 -0.00000000000E+00 -0.20958592338E+01  0.25316054053E+01  0.14200000000E+01 0. -1.
        -13    1    1    2    0    0  0.89963827135E+01 -0.43777096708E+01  0.19913035631E+02  0.22285407881E+02  0.10570000000E+00 0.  1.
         13    1    1    2    0    0 -0.89963827135E+01  0.43777096708E+01  0.20828007365E+02  0.23106629074E+02  0.10570000000E+00 0. -1.
<mgrwt>
<rscale>  0 0.20015105E+02</rscale>
<asrwt>0</asrwt>
<pdfrwt beam="1">  1        4 0.66256217E-02 0.20015105E+02</pdfrwt>
<pdfrwt beam="2">  1       -4 0.35776876E-03 0.20015105E+02</pdfrwt>
<totfact> 0.11700644E+06</totfact>
</mgrwt>
</event>
<event>
 5    1  0.4953223E-007  0.2000150E+02  0.7818608E-02  0.1745298E+00
          4   -1    0    0  501    0  0.00000000000E+00  0.00000000000E+00  0.15521736720E+02  0.15586555450E+02  0.14200000000E+01 0.  1.
         -4   -1    0    0    0  501 -0.00000000000E+00 -0.00000000000E+00 -0.62859375130E+01  0.64443316502E+01  0.14200000000E+01 0. -1.
       1023    2    1    2    0    0  0.00000000000E+00  0.00000000000E+00  0.92357992067E+01  0.22030887100E+02  0.20001499930E+02 0.  0.
        -13    1    3    3    0    0 -0.76451806283E+01 -0.64462678361E+01  0.45893567378E+01  0.11003477796E+02  0.10570000000E+00 0. -1.
         13    1    3    3    0    0  0.76451806283E+01  0.64462678361E+01  0.46464424689E+01  0.11027409304E+02  0.10570000000E+00 0.  1.
<mgrwt>
<rscale>  0 0.20001500E+02</rscale>
<asrwt>0</asrwt>
<pdfrwt beam="1">  1        4 0.24051297E-02 0.20001500E+02</pdfrwt>
<pdfrwt beam="2">  1       -4 0.98423754E-03 0.20001500E+02</pdfrwt>
<totfact> 0.12892459E+06</totfact>
</mgrwt>
</event>
<event>
 5    1  0.4710515E-007  0.2000303E+02  0.7818608E-02  0.1745268E+00
          4   -1    0    0  501    0  0.00000000000E+00  0.00000000000E+00  0.10871419662E+03  0.10872347008E+03  0.14200000000E+01 0.  1.
         -4   -1    0    0    0  501 -0.00000000000E+00 -0.00000000000E+00 -0.35730758324E+00  0.14642638796E+01  0.14200000000E+01 0. -1.
       1023    2    1    2    0    0  0.00000000000E+00  0.00000000000E+00  0.10835688904E+03  0.11018773396E+03  0.20003032618E+02 0.  0.
        -13    1    3    3    0    0  0.96596590126E+01 -0.25898846292E+01  0.54461551919E+02  0.55372270357E+02  0.10570000000E+00 0. -1.
         13    1    3    3    0    0 -0.96596590126E+01  0.25898846292E+01  0.53895337120E+02  0.54815463606E+02  0.10570000000E+00 0.  1.
<mgrwt>
<rscale>  0 0.20003033E+02</rscale>
<asrwt>0</asrwt>
<pdfrwt beam="1">  1        4 0.16811116E-01 0.20003033E+02</pdfrwt>
<pdfrwt beam="2">  1       -4 0.14083430E-03 0.20003033E+02</pdfrwt>
<totfact> 0.95174086E+05</totfact>
</mgrwt>
</event>
<event>
 4    1  0.4710515E-007  0.2007052E+02  0.7818608E-02  0.1743929E+00
         -4   -1    0    0    0  501 -0.00000000000E+00  0.00000000000E+00  0.61497269002E+01  0.63115402991E+01  0.14200000000E+01 0. -1.
          4   -1    0    0  501    0  0.00000000000E+00 -0.00000000000E+00 -0.15969392606E+02  0.16032401573E+02  0.14200000000E+01 0.  1.
        -13    1    1    2    0    0  0.75507290240E+01 -0.66091932279E+01 -0.49309423247E+01  0.11181248080E+02  0.10570000000E+00 0.  1.
         13    1    1    2    0    0 -0.75507290240E+01  0.66091932279E+01 -0.48887233808E+01  0.11162693792E+02  0.10570000000E+00 0. -1.
<mgrwt>
<rscale>  0 0.20070523E+02</rscale>
<asrwt>0</asrwt>
<pdfrwt beam="2">  1        4 0.24741236E-02 0.20070523E+02</pdfrwt>
<pdfrwt beam="1">  1       -4 0.96340587E-03 0.20070523E+02</pdfrwt>
<totfact> 0.12784178E+06</totfact>
</mgrwt>
</event>
<event>
 5    1  0.5054388E-007  0.2000141E+02  0.7818608E-02  0.1745300E+00
          4   -1    0    0  501    0  0.00000000000E+00  0.00000000000E+00  0.10897855904E+02  0.10989980132E+02  0.14200000000E+01 0. -1.
         -4   -1    0    0    0  501 -0.00000000000E+00 -0.00000000000E+00 -0.89907011168E+01  0.91021484591E+01  0.14200000000E+01 0.  1.
       1023    2    1    2    0    0  0.00000000000E+00  0.00000000000E+00  0.19071547867E+01  0.20092128591E+02  0.20001409749E+02 0.  0.
        -13    1    3    3    0    0  0.51988508592E+01  0.85423633239E+01  0.10077113228E+01  0.10051202715E+02  0.10570000000E+00 0.  1.
         13    1    3    3    0    0 -0.51988508592E+01 -0.85423633239E+01  0.89944346394E+00  0.10040925876E+02  0.10570000000E+00 0. -1.
<mgrwt>
<rscale>  0 0.20001410E+02</rscale>
<asrwt>0</asrwt>
<pdfrwt beam="1">  1        4 0.16922526E-02 0.20001410E+02</pdfrwt>
<pdfrwt beam="2">  1       -4 0.13988441E-02 0.20001410E+02</pdfrwt>
<totfact> 0.13006707E+06</totfact>
</mgrwt>
</event>
<event>
 5    1  0.4710515E-007  0.2000465E+02  0.7818608E-02  0.1745236E+00
         -4   -1    0    0    0  501 -0.00000000000E+00  0.00000000000E+00  0.47323152658E+01  0.49407699577E+01  0.14200000000E+01 0.  1.
          4   -1    0    0  501    0  0.00000000000E+00 -0.00000000000E+00 -0.20451947887E+02  0.20501184657E+02  0.14200000000E+01 0. -1.
       1023    2    1    2    0    0  0.00000000000E+00  0.00000000000E+00 -0.15719632621E+02  0.25441954615E+02  0.20004654581E+02 0.  0.
        -13    1    3    3    0    0 -0.57641660042E+01  0.81717847688E+01 -0.76333687857E+01  0.12581063848E+02  0.10570000000E+00 0.  1.
         13    1    3    3    0    0  0.57641660042E+01 -0.81717847688E+01 -0.80862638350E+01  0.12860890767E+02  0.10570000000E+00 0. -1.
<mgrwt>
<rscale>  0 0.20004655E+02</rscale>
<asrwt>0</asrwt>
<pdfrwt beam="2">  1        4 0.31662759E-02 0.20004655E+02</pdfrwt>
<pdfrwt beam="1">  1       -4 0.74787094E-03 0.20004655E+02</pdfrwt>
<totfact> 0.12694989E+06</totfact>
</mgrwt>
</event>
<event>
 5    1  0.4710515E-007  0.2000284E+02  0.7818608E-02  0.1745272E+00
         -4   -1    0    0    0  501 -0.00000000000E+00  0.00000000000E+00  0.55903592772E+02  0.55921624483E+02  0.14200000000E+01 0. -1.
          4   -1    0    0  501    0  0.00000000000E+00 -0.00000000000E+00 -0.14862846491E+01  0.20555880079E+01  0.14200000000E+01 0.  1.
       1023    2    1    2    0    0  0.00000000000E+00  0.00000000000E+00  0.54417308123E+02  0.57977212491E+02  0.20002843420E+02 0.  0.
        -13    1    3    3    0    0 -0.59946553135E+01 -0.80048448006E+01  0.27388056581E+02  0.29156993130E+02  0.10570000000E+00 0.  1.
         13    1    3    3    0    0  0.59946553135E+01  0.80048448006E+01  0.27029251542E+02  0.28820219361E+02  0.10570000000E+00 0. -1.
<mgrwt>
<rscale>  0 0.20002843E+02</rscale>
<asrwt>0</asrwt>
<pdfrwt beam="2">  1        4 0.27383882E-03 0.20002843E+02</pdfrwt>
<pdfrwt beam="1">  1       -4 0.86457317E-02 0.20002843E+02</pdfrwt>
<totfact> 0.11193922E+06</totfact>
</mgrwt>
</event>
<event>
 5    1  0.5508696E-007  0.2000331E+02  0.7818608E-02  0.1745262E+00
          4   -1    0    0  501    0  0.00000000000E+00  0.00000000000E+00  0.46080217691E+01  0.48218528207E+01  0.14200000000E+01 0. -1.
         -4   -1    0    0    0  501 -0.00000000000E+00 -0.00000000000E+00 -0.20977838028E+02  0.21025843344E+02  0.14200000000E+01 0.  1.
       1023    2    1    2    0    0  0.00000000000E+00  0.00000000000E+00 -0.16369816259E+02  0.25847696164E+02  0.20003312542E+02 0.  0.
        -13    1    3    3    0    0 -0.99822488668E+01 -0.61286937039E+00 -0.81429498901E+01  0.12897275166E+02  0.10570000000E+00 0. -1.
         13    1    3    3    0    0  0.99822488668E+01  0.61286937039E+00 -0.82268663685E+01  0.12950420998E+02  0.10570000000E+00 0.  1.
<mgrwt>
<rscale>  0 0.20003313E+02</rscale>
<asrwt>0</asrwt>
<pdfrwt beam="1">  1        4 0.72906769E-03 0.20003313E+02</pdfrwt>
<pdfrwt beam="2">  1       -4 0.32475009E-02 0.20003313E+02</pdfrwt>
<totfact> 0.12674287E+06</totfact>
</mgrwt>
</event>
<event>
 4    1  0.4710515E-007  0.2005901E+02  0.7818608E-02  0.1744157E+00
         -4   -1    0    0    0  501 -0.00000000000E+00  0.00000000000E+00  0.37828407345E+02  0.37855049891E+02  0.14200000000E+01 0.  1.
          4   -1    0    0  501    0  0.00000000000E+00 -0.00000000000E+00 -0.24399282558E+01  0.28230568349E+01  0.14200000000E+01 0. -1.
        -13    1    1    2    0    0  0.94837666963E+01  0.32206091590E+01  0.16649019327E+02  0.19429749642E+02  0.10570000000E+00 0. -1.
         13    1    1    2    0    0 -0.94837666963E+01 -0.32206091590E+01  0.18739459762E+02  0.21248357084E+02  0.10570000000E+00 0.  1.
<mgrwt>
<rscale>  0 0.20059011E+02</rscale>
<asrwt>0</asrwt>
<pdfrwt beam="2">  1        4 0.40689443E-03 0.20059011E+02</pdfrwt>
<pdfrwt beam="1">  1       -4 0.58512759E-02 0.20059011E+02</pdfrwt>
<totfact> 0.11860214E+06</totfact>
</mgrwt>
</event>
<event>
 4    1  0.4710515E-007  0.2001562E+02  0.7818608E-02  0.1745018E+00
          4   -1    0    0  501    0  0.00000000000E+00  0.00000000000E+00  0.39279278281E+02  0.39304937377E+02  0.14200000000E+01 0.  1.
         -4   -1    0    0    0  501 -0.00000000000E+00 -0.00000000000E+00 -0.23235136680E+01  0.27230710173E+01  0.14200000000E+01 0. -1.
        -13    1    1    2    0    0 -0.36533873514E+01 -0.93156204819E+01  0.18203774720E+02  0.20772977896E+02  0.10570000000E+00 0. -1.
         13    1    1    2    0    0  0.36533873514E+01  0.93156204819E+01  0.18751989893E+02  0.21255030499E+02  0.10570000000E+00 0.  1.
<mgrwt>
<rscale>  0 0.20015618E+02</rscale>
<asrwt>0</asrwt>
<pdfrwt beam="1">  1        4 0.60756750E-02 0.20015618E+02</pdfrwt>
<pdfrwt beam="2">  1       -4 0.39017259E-03 0.20015618E+02</pdfrwt>
<totfact> 0.11850521E+06</totfact>
</mgrwt>
</event>
<event>
 5    1  0.4710515E-007  0.2000492E+02  0.7818608E-02  0.1745230E+00
         -4   -1    0    0    0  501 -0.00000000000E+00  0.00000000000E+00  0.10690773032E+03  0.10691716046E+03  0.14200000000E+01 0.  1.
          4   -1    0    0  501    0  0.00000000000E+00 -0.00000000000E+00 -0.38217316116E+00  0.14705292670E+01  0.14200000000E+01 0. -1.
       1023    2    1    2    0    0  0.00000000000E+00  0.00000000000E+00  0.10652555715E+03  0.10838768973E+03  0.20004923337E+02 0.  0.
        -13    1    3    3    0    0  0.95031869257E+01  0.31168040220E+01  0.53881430782E+02  0.54801868442E+02  0.10570000000E+00 0. -1.
         13    1    3    3    0    0 -0.95031869257E+01 -0.31168040220E+01  0.52644126373E+02  0.53585821288E+02  0.10570000000E+00 0.  1.
<mgrwt>
<rscale>  0 0.20004923E+02</rscale>
<asrwt>0</asrwt>
<pdfrwt beam="2">  1        4 0.14324104E-03 0.20004923E+02</pdfrwt>
<pdfrwt beam="1">  1       -4 0.16531780E-01 0.20004923E+02</pdfrwt>
<totfact> 0.95639501E+05</totfact>
</mgrwt>
</event>
<event>
 4    1  0.4710515E-007  0.2022252E+02  0.7818608E-02  0.1740939E+00
          4   -1    0    0  501    0  0.00000000000E+00  0.00000000000E+00  0.79750646348E+02  0.79763287250E+02  0.14200000000E+01 0. -1.
         -4   -1    0    0    0  501 -0.00000000000E+00 -0.00000000000E+00 -0.87200889040E+00  0.16663731590E+01  0.14200000000E+01 0.  1.
        -13    1    1    2    0    0 -0.75930684990E+01 -0.66315507854E+01  0.42543286063E+02  0.43721556658E+02  0.10570000000E+00 0. -1.
         13    1    1    2    0    0  0.75930684990E+01  0.66315507854E+01  0.36335351394E+02  0.37708103750E+02  0.10570000000E+00 0.  1.
<mgrwt>
<rscale>  0 0.20222516E+02</rscale>
<asrwt>0</asrwt>
<pdfrwt beam="1">  1        4 0.12331411E-01 0.20222516E+02</pdfrwt>
<pdfrwt beam="2">  1       -4 0.19623249E-03 0.20222516E+02</pdfrwt>
<totfact> 0.10137306E+06</totfact>
</mgrwt>
</event>
<event>
 4    1  0.4710515E-007  0.2160561E+02  0.7818608E-02  0.1715163E+00
          4   -1    0    0  501    0  0.00000000000E+00  0.00000000000E+00  0.76240422780E+01  0.77551544574E+01  0.14200000000E+01 0. -1.
         -4   -1    0    0    0  501 -0.00000000000E+00 -0.00000000000E+00 -0.15011516777E+02  0.15078528972E+02  0.14200000000E+01 0.  1.
        -13    1    1    2    0    0  0.93964083822E+01 -0.52540152976E+01 -0.27530659469E+01  0.11112502501E+02  0.10570000000E+00 0.  1.
         13    1    1    2    0    0 -0.93964083822E+01  0.52540152976E+01 -0.46344085520E+01  0.11721180928E+02  0.10570000000E+00 0. -1.
<mgrwt>
<rscale>  0 0.21605609E+02</rscale>
<asrwt>0</asrwt>
<pdfrwt beam="1">  1        4 0.11881699E-02 0.21605609E+02</pdfrwt>
<pdfrwt beam="2">  1       -4 0.23247045E-02 0.21605609E+02</pdfrwt>
<totfact> 0.10951048E+06</totfact>
</mgrwt>
</event>
<event>
 4    1  0.4710515E-007  0.2014809E+02  0.7818608E-02  0.1742399E+00
         -4   -1    0    0    0  501 -0.00000000000E+00  0.00000000000E+00  0.32490278582E+01  0.35457836966E+01  0.14200000000E+01 0. -1.
          4   -1    0    0  501    0  0.00000000000E+00 -0.00000000000E+00 -0.29557178519E+02  0.29591269016E+02  0.14200000000E+01 0.  1.
        -13    1    1    2    0    0 -0.94716660305E+01 -0.32999471797E+01 -0.11617306022E+02  0.15348455313E+02  0.10570000000E+00 0. -1.
         13    1    1    2    0    0  0.94716660305E+01  0.32999471797E+01 -0.14690844638E+02  0.17788597400E+02  0.10570000000E+00 0.  1.
<mgrwt>
<rscale>  0 0.20148089E+02</rscale>
<asrwt>0</asrwt>
<pdfrwt beam="2">  1        4 0.45727078E-02 0.20148089E+02</pdfrwt>
<pdfrwt beam="1">  1       -4 0.52530018E-03 0.20148089E+02</pdfrwt>
<totfact> 0.12111924E+06</totfact>
</mgrwt>
</event>
<event>
 4    1  0.4710515E-007  0.2001500E+02  0.7818608E-02  0.1745030E+00
          4   -1    0    0  501    0  0.00000000000E+00  0.00000000000E+00  0.76619353658E+01  0.77924099962E+01  0.14200000000E+01 0.  1.
         -4   -1    0    0    0  501 -0.00000000000E+00 -0.00000000000E+00 -0.12790667907E+02  0.12869249609E+02  0.14200000000E+01 0. -1.
        -13    1    1    2    0    0 -0.10000079331E+02  0.22033991974E+00 -0.22568123634E+01  0.10254487352E+02  0.10570000000E+00 0.  1.
         13    1    1    2    0    0  0.10000079331E+02 -0.22033991974E+00 -0.28719201774E+01  0.10407172253E+02  0.10570000000E+00 0. -1.
<mgrwt>
<rscale>  0 0.20015001E+02</rscale>
<asrwt>0</asrwt>
<pdfrwt beam="1">  1        4 0.11948405E-02 0.20015001E+02</pdfrwt>
<pdfrwt beam="2">  1       -4 0.19838763E-02 0.20015001E+02</pdfrwt>
<totfact> 0.12954923E+06</totfact>
</mgrwt>
</event>
<event>
 5    1  0.4710515E-007  0.2000797E+02  0.7818608E-02  0.1745170E+00
          4   -1    0    0  501    0  0.00000000000E+00  0.00000000000E+00  0.35972142296E+02  0.36000158630E+02  0.14200000000E+01 0.  1.
         -4   -1    0    0    0  501 -0.00000000000E+00 -0.00000000000E+00 -0.25698627121E+01  0.29360848691E+01  0.14200000000E+01 0. -1.
       1023    2    1    2    0    0  0.00000000000E+00  0.00000000000E+00  0.33402279584E+02  0.38936243499E+02  0.20007967823E+02 0.  0.
        -13    1    3    3    0    0 -0.93898022527E+01 -0.34493586285E+01  0.16789471811E+02  0.19543899239E+02  0.10570000000E+00 0. -1.
         13    1    3    3    0    0  0.93898022527E+01  0.34493586285E+01  0.16612807774E+02  0.19392344260E+02  0.10570000000E+00 0.  1.
<mgrwt>
<rscale>  0 0.20007968E+02</rscale>
<asrwt>0</asrwt>
<pdfrwt beam="1">  1        4 0.55645016E-02 0.20007968E+02</pdfrwt>
<pdfrwt beam="2">  1       -4 0.42568955E-03 0.20007968E+02</pdfrwt>
<totfact> 0.12002727E+06</totfact>
</mgrwt>
</event>
<event>
 4    1  0.4710515E-007  0.2005441E+02  0.7818608E-02  0.1744248E+00
          4   -1    0    0  501    0  0.00000000000E+00  0.00000000000E+00  0.46324631016E+01  0.48452156183E+01  0.14200000000E+01 0.  1.
         -4   -1    0    0    0  501 -0.00000000000E+00 -0.00000000000E+00 -0.20979889481E+02  0.21027890114E+02  0.14200000000E+01 0. -1.
        -13    1    1    2    0    0 -0.69602918350E+01  0.72162166195E+01 -0.80199987877E+01  0.12839431365E+02  0.10570000000E+00 0. -1.
         13    1    1    2    0    0  0.69602918350E+01 -0.72162166195E+01 -0.83274275919E+01  0.13033674367E+02  0.10570000000E+00 0.  1.
<mgrwt>
<rscale>  0 0.20054407E+02</rscale>
<asrwt>0</asrwt>
<pdfrwt beam="1">  1        4 0.73274458E-03 0.20054407E+02</pdfrwt>
<pdfrwt beam="2">  1       -4 0.32477332E-02 0.20054407E+02</pdfrwt>
<totfact> 0.12607223E+06</totfact>
</mgrwt>
</event>
<event>
 5    1  0.4710515E-007  0.2000432E+02  0.7818608E-02  0.1745242E+00
          4   -1    0    0  501    0  0.00000000000E+00  0.00000000000E+00  0.15203408652E+02  0.15269578732E+02  0.14200000000E+01 0.  1.
         -4   -1    0    0    0  501 -0.00000000000E+00 -0.00000000000E+00 -0.64221319568E+01  0.65772470587E+01  0.14200000000E+01 0. -1.
       1023    2    1    2    0    0  0.00000000000E+00  0.00000000000E+00  0.87812766952E+01  0.21846825790E+02  0.20004323950E+02 0.  0.
        -13    1    3    3    0    0 -0.35565096895E+01  0.93476316830E+01  0.43127042967E+01  0.10892087499E+02  0.10570000000E+00 0. -1.
         13    1    3    3    0    0  0.35565096895E+01 -0.93476316830E+01  0.44685723985E+01  0.10954738291E+02  0.10570000000E+00 0.  1.
<mgrwt>
<rscale>  0 0.20004324E+02</rscale>
<asrwt>0</asrwt>
<pdfrwt beam="1">  1        4 0.23560078E-02 0.20004324E+02</pdfrwt>
<pdfrwt beam="2">  1       -4 0.10050423E-02 0.20004324E+02</pdfrwt>
<totfact> 0.12899438E+06</totfact>
</mgrwt>
</event>
<event>
 5    1  0.4984407E-007  0.2000251E+02  0.7818608E-02  0.1745278E+00
          4   -1    0    0  501    0  0.00000000000E+00  0.00000000000E+00  0.35583524917E+02  0.35611846983E+02  0.14200000000E+01 0. -1.
         -4   -1    0    0    0  501 -0.00000000000E+00 -0.00000000000E+00 -0.26002490767E+01  0.29627175466E+01  0.14200000000E+01 0.  1.
       1023    2    1    2    0    0  0.00000000000E+00  0.00000000000E+00  0.32983275841E+02  0.38574564530E+02  0.20002513429E+02 0.  0.
        -13    1    3    3    0    0 -0.58026759678E+01  0.81442813079E+01  0.16716511013E+02  0.19479560553E+02  0.10570000000E+00 0. -1.
         13    1    3    3    0    0  0.58026759678E+01 -0.81442813079E+01  0.16266764828E+02  0.19095003976E+02  0.10570000000E+00 0.  1.
<mgrwt>
<rscale>  0 0.20002513E+02</rscale>
<asrwt>0</asrwt>
<pdfrwt beam="1">  1        4 0.55044491E-02 0.20002513E+02</pdfrwt>
<pdfrwt beam="2">  1       -4 0.43009914E-03 0.20002513E+02</pdfrwt>
<totfact> 0.12026418E+06</totfact>
</mgrwt>
</event>
<event>
 4    1  0.4710515E-007  0.2001283E+02  0.7818608E-02  0.1745073E+00
          4   -1    0    0  501    0  0.00000000000E+00  0.00000000000E+00  0.64170921085E+02  0.64186630328E+02  0.14200000000E+01 0.  1.
         -4   -1    0    0    0  501 -0.00000000000E+00 -0.00000000000E+00 -0.12179933060E+01  0.18708040233E+01  0.14200000000E+01 0. -1.
        -13    1    1    2    0    0  0.55494227561E+01  0.83249211457E+01  0.31048614498E+02  0.32620975456E+02  0.10570000000E+00 0.  1.
         13    1    1    2    0    0 -0.55494227561E+01 -0.83249211457E+01  0.31904313281E+02  0.33436458895E+02  0.10570000000E+00 0. -1.
<mgrwt>
<rscale>  0 0.20012834E+02</rscale>
<asrwt>0</asrwt>
<pdfrwt beam="1">  1        4 0.99238768E-02 0.20012834E+02</pdfrwt>
<pdfrwt beam="2">  1       -4 0.23880813E-03 0.20012834E+02</pdfrwt>
<totfact> 0.10878213E+06</totfact>
</mgrwt>
</event>
<event>
 5    1  0.4710515E-007  0.2000316E+02  0.7818608E-02  0.1745265E+00
          4   -1    0    0  501    0  0.00000000000E+00  0.00000000000E+00  0.14053410966E+02  0.14124969373E+02  0.14200000000E+01 0. -1.
         -4   -1    0    0    0  501 -0.00000000000E+00 -0.00000000000E+00 -0.69564172509E+01  0.70998690811E+01  0.14200000000E+01 0.  1.
       1023    2    1    2    0    0  0.00000000000E+00  0.00000000000E+00  0.70969937149E+01  0.21224838454E+02  0.20003160940E+02 0.  0.
        -13    1    3    3    0    0  0.85850238657E+01  0.51298471060E+01  0.34957271783E+01  0.10594774519E+02  0.10570000000E+00 0.  1.
         13    1    3    3    0    0 -0.85850238657E+01 -0.51298471060E+01  0.36012665366E+01  0.10630063935E+02  0.10570000000E+00 0. -1.
<mgrwt>
<rscale>  0 0.20003161E+02</rscale>
<asrwt>0</asrwt>
<pdfrwt beam="1">  1        4 0.21786025E-02 0.20003161E+02</pdfrwt>
<pdfrwt beam="2">  1       -4 0.10867573E-02 0.20003161E+02</pdfrwt>
<totfact> 0.12937333E+06</totfact>
</mgrwt>
</event>
<event>
 5    1  0.4710515E-007  0.2000650E+02  0.7818608E-02  0.1745199E+00
          4   -1    0    0  501    0  0.00000000000E+00  0.00000000000E+00  0.71820487935E+01  0.73210808541E+01  0.14200000000E+01 0.  1.
         -4   -1    0    0    0  501 -0.00000000000E+00 -0.00000000000E+00 -0.13622799082E+02  0.13696607421E+02  0.14200000000E+01 0. -1.
       1023    2    1    2    0    0  0.00000000000E+00  0.00000000000E+00 -0.64407502886E+01  0.21017688275E+02  0.20006497848E+02 0.  0.
        -13    1    3    3    0    0  0.93193758816E+01 -0.36277023640E+01 -0.30029729282E+01  0.10442222472E+02  0.10570000000E+00 0.  1.
         13    1    3    3    0    0 -0.93193758816E+01  0.36277023640E+01 -0.34377773605E+01  0.10575465802E+02  0.10570000000E+00 0. -1.
<mgrwt>
<rscale>  0 0.20006498E+02</rscale>
<asrwt>0</asrwt>
<pdfrwt beam="1">  1        4 0.11213029E-02 0.20006498E+02</pdfrwt>
<pdfrwt beam="2">  1       -4 0.21121876E-02 0.20006498E+02</pdfrwt>
<totfact> 0.12945123E+06</totfact>
</mgrwt>
</event>
<event>
 5    1  0.4710515E-007  0.2000806E+02  0.7818608E-02  0.1745168E+00
          4   -1    0    0  501    0  0.00000000000E+00  0.00000000000E+00  0.53809891300E+01  0.55651993691E+01  0.14200000000E+01 0.  1.
         -4   -1    0    0    0  501 -0.00000000000E+00 -0.00000000000E+00 -0.18073400657E+02  0.18129098469E+02  0.14200000000E+01 0. -1.
       1023    2    1    2    0    0  0.00000000000E+00  0.00000000000E+00 -0.12692411527E+02  0.23694297838E+02  0.20008059368E+02 0.  0.
        -13    1    3    3    0    0  0.90083841006E+01 -0.43487856784E+01 -0.62506087300E+01  0.11795940105E+02  0.10570000000E+00 0. -1.
         13    1    3    3    0    0 -0.90083841006E+01  0.43487856784E+01 -0.64418027970E+01  0.11898357733E+02  0.10570000000E+00 0.  1.
<mgrwt>
<rscale>  0 0.20008059E+02</rscale>
<asrwt>0</asrwt>
<pdfrwt beam="1">  1        4 0.84629895E-03 0.20008059E+02</pdfrwt>
<pdfrwt beam="2">  1       -4 0.27989776E-02 0.20008059E+02</pdfrwt>
<totfact> 0.12788538E+06</totfact>
</mgrwt>
</event>
<event>
 4    1  0.4710515E-007  0.2004236E+02  0.7818608E-02  0.1744487E+00
         -4   -1    0    0    0  501 -0.00000000000E+00  0.00000000000E+00  0.82789274260E+01  0.83998237675E+01  0.14200000000E+01 0. -1.
          4   -1    0    0  501    0  0.00000000000E+00 -0.00000000000E+00 -0.11878669778E+02  0.11963243527E+02  0.14200000000E+01 0.  1.
        -13    1    1    2    0    0  0.99553492282E+01  0.11329786059E+01 -0.19446286914E+01  0.10207123592E+02  0.10570000000E+00 0. -1.
         13    1    1    2    0    0 -0.99553492282E+01 -0.11329786059E+01 -0.16551136602E+01  0.10155943703E+02  0.10570000000E+00 0.  1.
<mgrwt>
<rscale>  0 0.20042364E+02</rscale>
<asrwt>0</asrwt>
<pdfrwt beam="2">  1        4 0.18432931E-02 0.20042364E+02</pdfrwt>
<pdfrwt beam="1">  1       -4 0.12894865E-02 0.20042364E+02</pdfrwt>
<totfact> 0.12936434E+06</totfact>
</mgrwt>
</event>
<event>
 5    1  0.4710515E-007  0.2000192E+02  0.7818608E-02  0.1745290E+00
          4   -1    0    0  501    0  0.00000000000E+00  0.00000000000E+00  0.51308421753E+01  0.53237150025E+01  0.14200000000E+01 0. -1.
         -4   -1    0    0    0  501 -0.00000000000E+00 -0.00000000000E+00 -0.18914106267E+02  0.18967335498E+02  0.14200000000E+01 0.  1.
       1023    2    1    2    0    0  0.00000000000E+00  0.00000000000E+00 -0.13783264092E+02  0.24291050500E+02  0.20001919042E+02 0.  0.
        -13    1    3    3    0    0  0.96174589847E+01 -0.27395231518E+01 -0.69969064370E+01  0.12205260202E+02  0.10570000000E+00 0. -1.
         13    1    3    3    0    0 -0.96174589847E+01  0.27395231518E+01 -0.67863576549E+01  0.12085790298E+02  0.10570000000E+00 0.  1.
<mgrwt>
<rscale>  0 0.20001919E+02</rscale>
<asrwt>0</asrwt>
<pdfrwt beam="1">  1        4 0.80829127E-03 0.20001919E+02</pdfrwt>
<pdfrwt beam="2">  1       -4 0.29287934E-02 0.20001919E+02</pdfrwt>
<totfact> 0.12762867E+06</totfact>
</mgrwt>
</event>
<event>
 5    1  0.4722054E-007  0.2000175E+02  0.7818608E-02  0.1745293E+00
         -4   -1    0    0    0  501 -0.00000000000E+00  0.00000000000E+00  0.54179724807E+01  0.56009665060E+01  0.14200000000E+01 0.  1.
          4   -1    0    0  501    0  0.00000000000E+00 -0.00000000000E+00 -0.17942225653E+02  0.17998329405E+02  0.14200000000E+01 0. -1.
       1023    2    1    2    0    0  0.00000000000E+00  0.00000000000E+00 -0.12524253172E+02  0.23599295911E+02  0.20001746173E+02 0.  0.
        -13    1    3    3    0    0  0.60147707206E+01  0.79890163490E+01 -0.61834999940E+01  0.11757920467E+02  0.10570000000E+00 0.  1.
         13    1    3    3    0    0 -0.60147707206E+01 -0.79890163490E+01 -0.63407531780E+01  0.11841375444E+02  0.10570000000E+00 0. -1.
<mgrwt>
<rscale>  0 0.20001746E+02</rscale>
<asrwt>0</asrwt>
<pdfrwt beam="2">  1        4 0.27787345E-02 0.20001746E+02</pdfrwt>
<pdfrwt beam="1">  1       -4 0.85192638E-03 0.20001746E+02</pdfrwt>
<totfact> 0.12802150E+06</totfact>
</mgrwt>
</event>
<event>
 4    1  0.4710515E-007  0.2001781E+02  0.7818608E-02  0.1744974E+00
          4   -1    0    0  501    0  0.00000000000E+00  0.00000000000E+00  0.14407173195E+01  0.20228856603E+01  0.14200000000E+01 0.  1.
         -4   -1    0    0    0  501 -0.00000000000E+00 -0.00000000000E+00 -0.57253747297E+02  0.57271353917E+02  0.14200000000E+01 0. -1.
        -13    1    1    2    0    0 -0.95575126979E+01  0.29536743765E+01 -0.26985318348E+02  0.28780007299E+02  0.10570000000E+00 0.  1.
         13    1    1    2    0    0  0.95575126979E+01 -0.29536743765E+01 -0.28827711630E+02  0.30514232279E+02  0.10570000000E+00 0. -1.
<mgrwt>
<rscale>  0 0.20017805E+02</rscale>
<asrwt>0</asrwt>
<pdfrwt beam="1">  1        4 0.26778540E-03 0.20017805E+02</pdfrwt>
<pdfrwt beam="2">  1       -4 0.88544039E-02 0.20017805E+02</pdfrwt>
<totfact> 0.11126077E+06</totfact>
</mgrwt>
</event>
<event>
 5    1  0.4710515E-007  0.2000405E+02  0.7818608E-02  0.1745248E+00
         -4   -1    0    0    0  501 -0.00000000000E+00  0.00000000000E+00  0.21782032259E+01  0.26001863959E+01  0.14200000000E+01 0.  1.
          4   -1    0    0  501    0  0.00000000000E+00 -0.00000000000E+00 -0.41436818510E+02  0.41461142389E+02  0.14200000000E+01 0. -1.
       1023    2    1    2    0    0  0.00000000000E+00  0.00000000000E+00 -0.39258615284E+02  0.44061328785E+02  0.20004045098E+02 0.  0.
        -13    1    3    3    0    0  0.10082452962E+01  0.99500872519E+01 -0.19832232114E+02  0.22211469965E+02  0.10570000000E+00 0. -1.
         13    1    3    3    0    0 -0.10082452962E+01 -0.99500872519E+01 -0.19426383170E+02  0.21849858820E+02  0.10570000000E+00 0.  1.
<mgrwt>
<rscale>  0 0.20004045E+02</rscale>
<asrwt>0</asrwt>
<pdfrwt beam="2">  1        4 0.64092259E-02 0.20004045E+02</pdfrwt>
<pdfrwt beam="1">  1       -4 0.36943953E-03 0.20004045E+02</pdfrwt>
<totfact> 0.11772703E+06</totfact>
</mgrwt>
</event>
<event>
 5    1  0.4710515E-007  0.2000476E+02  0.7818608E-02  0.1745233E+00
         -4   -1    0    0    0  501 -0.00000000000E+00  0.00000000000E+00  0.20521757543E+02  0.20570827223E+02  0.14200000000E+01 0. -1.
          4   -1    0    0  501    0  0.00000000000E+00 -0.00000000000E+00 -0.47155984024E+01  0.49247607346E+01  0.14200000000E+01 0.  1.
       1023    2    1    2    0    0  0.00000000000E+00  0.00000000000E+00  0.15806159140E+02  0.25495587958E+02  0.20004757898E+02 0.  0.
        -13    1    3    3    0    0  0.24967282077E+01  0.96844661374E+01  0.77529506232E+01  0.12654720541E+02  0.10570000000E+00 0. -1.
         13    1    3    3    0    0 -0.24967282077E+01 -0.96844661374E+01  0.80532085172E+01  0.12840867417E+02  0.10570000000E+00 0.  1.
<mgrwt>
<rscale>  0 0.20004758E+02</rscale>
<asrwt>0</asrwt>
<pdfrwt beam="2">  1        4 0.74534067E-03 0.20004758E+02</pdfrwt>
<pdfrwt beam="1">  1       -4 0.31770575E-02 0.20004758E+02</pdfrwt>
<totfact> 0.12691883E+06</totfact>
</mgrwt>
</event>
<event>
 5    1  0.4710515E-007  0.2000148E+02  0.7818608E-02  0.1745299E+00
          4   -1    0    0  501    0  0.00000000000E+00  0.00000000000E+00  0.22048289124E+02  0.22093968709E+02  0.14200000000E+01 0. -1.
         -4   -1    0    0    0  501 -0.00000000000E+00 -0.00000000000E+00 -0.43733017180E+01  0.45980613215E+01  0.14200000000E+01 0.  1.
       1023    2    1    2    0    0  0.00000000000E+00  0.00000000000E+00  0.17674987406E+02  0.26692030030E+02  0.20001482128E+02 0.  0.
        -13    1    3    3    0    0 -0.21502601597E+01 -0.97661492137E+01  0.89023253055E+01  0.13388945349E+02  0.10570000000E+00 0.  1.
         13    1    3    3    0    0  0.21502601597E+01  0.97661492137E+01  0.87726621008E+01  0.13303084681E+02  0.10570000000E+00 0. -1.
<mgrwt>
<rscale>  0 0.20001482E+02</rscale>
<asrwt>0</asrwt>
<pdfrwt beam="1">  1        4 0.34128475E-02 0.20001482E+02</pdfrwt>
<pdfrwt beam="2">  1       -4 0.69361866E-03 0.20001482E+02</pdfrwt>
<totfact> 0.12630350E+06</totfact>
</mgrwt>
</event>
<event>
 5    1  0.5906456E-007  0.2000257E+02  0.7818608E-02  0.1745277E+00
          4   -1    0    0  501    0  0.00000000000E+00  0.00000000000E+00  0.83790143237E+01  0.84984869851E+01  0.14200000000E+01 0. -1.
         -4   -1    0    0    0  501 -0.00000000000E+00 -0.00000000000E+00 -0.11690406596E+02  0.11776332468E+02  0.14200000000E+01 0.  1.
       1023    2    1    2    0    0  0.00000000000E+00  0.00000000000E+00 -0.33113922727E+01  0.20274819453E+02  0.20002574461E+02 0.  0.
        -13    1    3    3    0    0 -0.99852358420E+01 -0.55083600739E+00 -0.15757644265E+01  0.10124354851E+02  0.10570000000E+00 0.  1.
         13    1    3    3    0    0  0.99852358420E+01  0.55083600739E+00 -0.17356278462E+01  0.10150464602E+02  0.10570000000E+00 0. -1.
<mgrwt>
<rscale>  0 0.20002574E+02</rscale>
<asrwt>0</asrwt>
<pdfrwt beam="1">  1        4 0.13048790E-02 0.20002574E+02</pdfrwt>
<pdfrwt beam="2">  1       -4 0.18143240E-02 0.20002574E+02</pdfrwt>
<totfact> 0.12994272E+06</totfact>
</mgrwt>
</event>
<event>
 4    1  0.4710515E-007  0.2001555E+02  0.7818608E-02  0.1745019E+00
          4   -1    0    0  501    0  0.00000000000E+00  0.00000000000E+00  0.99890693178E+01  0.10089494826E+02  0.14200000000E+01 0.  1.
         -4   -1    0    0    0  501 -0.00000000000E+00 -0.00000000000E+00 -0.98246381771E+01  0.99267273213E+01  0.14200000000E+01 0.  1.
        -13    1    1    2    0    0  0.69509599955E+00 -0.99796677246E+01  0.34189532774E+00  0.10010244315E+02  0.10570000000E+00 0. -1.
         13    1    1    2    0    0 -0.69509599955E+00  0.99796677246E+01 -0.17746418711E+00  0.10005977832E+02  0.10570000000E+00 0.  1.
<mgrwt>
<rscale>  0 0.20015547E+02</rscale>
<asrwt>0</asrwt>
<pdfrwt beam="1">  1        4 0.15523579E-02 0.20015547E+02</pdfrwt>
<pdfrwt beam="2">  1       -4 0.15270609E-02 0.20015547E+02</pdfrwt>
<totfact> 0.12992448E+06</totfact>
</mgrwt>
</event>
<event>
 5    1  0.4710515E-007  0.2000364E+02  0.7818608E-02  0.1745256E+00
         -4   -1    0    0    0  501 -0.00000000000E+00  0.00000000000E+00  0.17264779359E+02  0.17323077276E+02  0.14200000000E+01 0.  1.
          4   -1    0    0  501    0  0.00000000000E+00 -0.00000000000E+00 -0.56379985647E+01  0.58140715351E+01  0.14200000000E+01 0. -1.
       1023    2    1    2    0    0  0.00000000000E+00  0.00000000000E+00  0.11626780794E+02  0.23137148811E+02  0.20003640255E+02 0.  0.
        -13    1    3    3    0    0  0.93307211331E+01  0.35969284668E+01  0.56305738815E+01  0.11476706234E+02  0.10570000000E+00 0.  1.
         13    1    3    3    0    0 -0.93307211331E+01 -0.35969284668E+01  0.59962069126E+01  0.11660442577E+02  0.10570000000E+00 0. -1.
<mgrwt>
<rscale>  0 0.20003640E+02</rscale>
<asrwt>0</asrwt>
<pdfrwt beam="2">  1        4 0.88541294E-03 0.20003640E+02</pdfrwt>
<pdfrwt beam="1">  1       -4 0.26741484E-02 0.20003640E+02</pdfrwt>
<totfact> 0.12825976E+06</totfact>
</mgrwt>
</event>
<event>
 4    1  0.4710515E-007  0.2001872E+02  0.7818608E-02  0.1744956E+00
         -4   -1    0    0    0  501 -0.00000000000E+00  0.00000000000E+00  0.50380303550E+02  0.50400311366E+02  0.14200000000E+01 0.  1.
          4   -1    0    0  501    0  0.00000000000E+00 -0.00000000000E+00 -0.17120405780E+01  0.22242938072E+01  0.14200000000E+01 0. -1.
        -13    1    1    2    0    0 -0.94723560322E+00  0.99604187973E+01  0.23643901367E+02  0.25673964287E+02  0.10570000000E+00 0.  1.
         13    1    1    2    0    0  0.94723560322E+00 -0.99604187973E+01  0.25024361605E+02  0.26950640886E+02  0.10570000000E+00 0. -1.
<mgrwt>
<rscale>  0 0.20018722E+02</rscale>
<asrwt>0</asrwt>
<pdfrwt beam="2">  1        4 0.30433404E-03 0.20018722E+02</pdfrwt>
<pdfrwt beam="1">  1       -4 0.77917584E-02 0.20018722E+02</pdfrwt>
<totfact> 0.11389723E+06</totfact>
</mgrwt>
</event>
<event>
 5    1  0.4710515E-007  0.2000773E+02  0.7818608E-02  0.1745174E+00
          4   -1    0    0  501    0  0.00000000000E+00  0.00000000000E+00  0.10211880448E+02  0.10310135900E+02  0.14200000000E+01 0. -1.
         -4   -1    0    0    0  501 -0.00000000000E+00 -0.00000000000E+00 -0.96024474619E+01  0.97068737118E+01  0.14200000000E+01 0.  1.
       1023    2    1    2    0    0  0.00000000000E+00  0.00000000000E+00  0.60943298616E+00  0.20017009612E+02  0.20007730137E+02 0.  0.
        -13    1    3    3    0    0  0.84117652058E+01 -0.54133319637E+01  0.36945350894E+00  0.10010475773E+02  0.10570000000E+00 0. -1.
         13    1    3    3    0    0 -0.84117652058E+01  0.54133319637E+01  0.23997947722E+00  0.10006533839E+02  0.10570000000E+00 0.  1.
<mgrwt>
<rscale>  0 0.20007730E+02</rscale>
<asrwt>0</asrwt>
<pdfrwt beam="1">  1        4 0.15866494E-02 0.20007730E+02</pdfrwt>
<pdfrwt beam="2">  1       -4 0.14928905E-02 0.20007730E+02</pdfrwt>
<totfact> 0.13002770E+06</totfact>
</mgrwt>
</event>
<event>
 4    1  0.4710515E-007  0.2009713E+02  0.7818608E-02  0.1743403E+00
         -4   -1    0    0    0  501 -0.00000000000E+00  0.00000000000E+00  0.40116798177E+02  0.40141921926E+02  0.14200000000E+01 0. -1.
          4   -1    0    0  501    0  0.00000000000E+00 -0.00000000000E+00 -0.22886489910E+01  0.26933834120E+01  0.14200000000E+01 0.  1.
        -13    1    1    2    0    0 -0.18213694239E+01 -0.98812359610E+01  0.18745639306E+02  0.21268906323E+02  0.10570000000E+00 0. -1.
         13    1    1    2    0    0  0.18213694239E+01  0.98812359610E+01  0.19082509880E+02  0.21566399016E+02  0.10570000000E+00 0.  1.
<mgrwt>
<rscale>  0 0.20097127E+02</rscale>
<asrwt>0</asrwt>
<pdfrwt beam="2">  1        4 0.38516591E-03 0.20097127E+02</pdfrwt>
<pdfrwt beam="1">  1       -4 0.62048803E-02 0.20097127E+02</pdfrwt>
<totfact> 0.11717185E+06</totfact>
</mgrwt>
</event>
<event>
 5    1  0.4710515E-007  0.2000114E+02  0.7818608E-02  0.1745306E+00
          4   -1    0    0  501    0  0.00000000000E+00  0.00000000000E+00  0.35350755981E+02  0.35379264385E+02  0.14200000000E+01 0. -1.
         -4   -1    0    0    0  501 -0.00000000000E+00 -0.00000000000E+00 -0.26193189987E+01  0.29794684118E+01  0.14200000000E+01 0.  1.
       1023    2    1    2    0    0  0.00000000000E+00  0.00000000000E+00  0.32731436982E+02  0.38358732797E+02  0.20001135339E+02 0.  0.
        -13    1    3    3    0    0 -0.90474906745E+01 -0.42594689774E+01  0.16373797856E+02  0.19186260506E+02  0.10570000000E+00 0.  1.
         13    1    3    3    0    0  0.90474906745E+01  0.42594689774E+01  0.16357639126E+02  0.19172472291E+02  0.10570000000E+00 0. -1.
<mgrwt>
<rscale>  0 0.20001135E+02</rscale>
<asrwt>0</asrwt>
<pdfrwt beam="1">  1        4 0.54684751E-02 0.20001135E+02</pdfrwt>
<pdfrwt beam="2">  1       -4 0.43286887E-03 0.20001135E+02</pdfrwt>
<totfact> 0.12038313E+06</totfact>
</mgrwt>
</event>
<event>
 5    1  0.4710515E-007  0.2001085E+02  0.7818608E-02  0.1745112E+00
         -4   -1    0    0    0  501 -0.00000000000E+00  0.00000000000E+00  0.57301440314E+02  0.57319032285E+02  0.14200000000E+01 0. -1.
          4   -1    0    0  501    0  0.00000000000E+00 -0.00000000000E+00 -0.14376141858E+01  0.20206767548E+01  0.14200000000E+01 0.  1.
       1023    2    1    2    0    0  0.00000000000E+00  0.00000000000E+00  0.55863826128E+02  0.59339709040E+02  0.20010847039E+02 0.  0.
        -13    1    3    3    0    0 -0.79270697363E+01  0.61021005825E+01  0.27479645024E+02  0.29244078533E+02  0.10570000000E+00 0. -1.
         13    1    3    3    0    0  0.79270697363E+01 -0.61021005825E+01  0.28384181105E+02  0.30095630507E+02  0.10570000000E+00 0.  1.
<mgrwt>
<rscale>  0 0.20010847E+02</rscale>
<asrwt>0</asrwt>
<pdfrwt beam="2">  1        4 0.26737562E-03 0.20010847E+02</pdfrwt>
<pdfrwt beam="1">  1       -4 0.88618100E-02 0.20010847E+02</pdfrwt>
<totfact> 0.11132113E+06</totfact>
</mgrwt>
</event>
<event>
 5    1  0.4859641E-007  0.2000244E+02  0.7818608E-02  0.1745279E+00
          4   -1    0    0  501    0  0.00000000000E+00  0.00000000000E+00  0.86562458908E+01  0.87719435088E+01  0.14200000000E+01 0.  1.
         -4   -1    0    0    0  501 -0.00000000000E+00 -0.00000000000E+00 -0.11318109675E+02  0.11406840343E+02  0.14200000000E+01 0. -1.
       1023    2    1    2    0    0  0.00000000000E+00  0.00000000000E+00 -0.26618637843E+01  0.20178783852E+02  0.20002444824E+02 0.  0.
        -13    1    3    3    0    0 -0.70363294960E+01 -0.71065145452E+01 -0.13593849466E+01  0.10093145282E+02  0.10570000000E+00 0.  1.
         13    1    3    3    0    0  0.70363294960E+01  0.71065145452E+01 -0.13024788378E+01  0.10085638570E+02  0.10570000000E+00 0. -1.
<mgrwt>
<rscale>  0 0.20002445E+02</rscale>
<asrwt>0</asrwt>
<pdfrwt beam="1">  1        4 0.13474554E-02 0.20002445E+02</pdfrwt>
<pdfrwt beam="2">  1       -4 0.17569729E-02 0.20002445E+02</pdfrwt>
<totfact> 0.13000165E+06</totfact>
</mgrwt>
</event>
<event>
 5    1  0.4934658E-007  0.2000149E+02  0.7818608E-02  0.1745299E+00
          4   -1    0    0  501    0  0.00000000000E+00  0.00000000000E+00  0.15406329980E+02  0.15471632217E+02  0.14200000000E+01 0.  1.
         -4   -1    0    0    0  501 -0.00000000000E+00 -0.00000000000E+00 -0.63339948688E+01  0.64912164498E+01  0.14200000000E+01 0. -1.
       1023    2    1    2    0    0  0.00000000000E+00  0.00000000000E+00  0.90723351115E+01  0.21962848667E+02  0.20001486375E+02 0.  0.
        -13    1    3    3    0    0 -0.96867919372E+01  0.24834395861E+01  0.45886175872E+01  0.11003090205E+02  0.10570000000E+00 0.  1.
         13    1    3    3    0    0  0.96867919372E+01 -0.24834395861E+01  0.44837175243E+01  0.10959758462E+02  0.10570000000E+00 0. -1.
<mgrwt>
<rscale>  0 0.20001486E+02</rscale>
<asrwt>0</asrwt>
<pdfrwt beam="1">  1        4 0.23873218E-02 0.20001486E+02</pdfrwt>
<pdfrwt beam="2">  1       -4 0.99157796E-03 0.20001486E+02</pdfrwt>
<totfact> 0.12896426E+06</totfact>
</mgrwt>
</event>
<event>
 4    1  0.4710515E-007  0.2002055E+02  0.7818608E-02  0.1744920E+00
         -4   -1    0    0    0  501 -0.00000000000E+00  0.00000000000E+00  0.90078767632E+00  0.16816118571E+01  0.14200000000E+01 0.  1.
          4   -1    0    0  501    0  0.00000000000E+00 -0.00000000000E+00 -0.76817191943E+02  0.76830315488E+02  0.14200000000E+01 0. -1.
        -13    1    1    2    0    0 -0.74853569347E+01 -0.66388154690E+01 -0.39134429949E+02  0.40393306614E+02  0.10570000000E+00 0. -1.
         13    1    1    2    0    0  0.74853569347E+01  0.66388154690E+01 -0.36781974318E+02  0.38118620731E+02  0.10570000000E+00 0.  1.
<mgrwt>
<rscale>  0 0.20020547E+02</rscale>
<asrwt>0</asrwt>
<pdfrwt beam="2">  1        4 0.11879099E-01 0.20020547E+02</pdfrwt>
<pdfrwt beam="1">  1       -4 0.19965568E-03 0.20020547E+02</pdfrwt>
<totfact> 0.10438579E+06</totfact>
</mgrwt>
</event>
<event>
 4    1  0.4710515E-007  0.2003999E+02  0.7818608E-02  0.1744534E+00
          4   -1    0    0  501    0  0.00000000000E+00  0.00000000000E+00  0.90330820473E+01  0.91440128649E+01  0.14200000000E+01 0. -1.
         -4   -1    0    0    0  501 -0.00000000000E+00 -0.00000000000E+00 -0.10889594564E+02  0.10981788095E+02  0.14200000000E+01 0.  1.
        -13    1    1    2    0    0  0.93709968979E+01 -0.35014032165E+01 -0.14907676225E+01  0.10114789565E+02  0.10570000000E+00 0.  1.
         13    1    1    2    0    0 -0.93709968979E+01  0.35014032165E+01 -0.36574489435E+00  0.10011011396E+02  0.10570000000E+00 0. -1.
<mgrwt>
<rscale>  0 0.20039991E+02</rscale>
<asrwt>0</asrwt>
<pdfrwt beam="1">  1        4 0.14053299E-02 0.20039991E+02</pdfrwt>
<pdfrwt beam="2">  1       -4 0.16909472E-02 0.20039991E+02</pdfrwt>
<totfact> 0.12953626E+06</totfact>
</mgrwt>
</event>
<event>
 5    1  0.4710515E-007  0.2000284E+02  0.7818608E-02  0.1745272E+00
         -4   -1    0    0    0  501 -0.00000000000E+00  0.00000000000E+00  0.35805596470E+02  0.35833743017E+02  0.14200000000E+01 0. -1.
          4   -1    0    0  501    0  0.00000000000E+00 -0.00000000000E+00 -0.25819792978E+01  0.29466959623E+01  0.14200000000E+01 0.  1.
       1023    2    1    2    0    0  0.00000000000E+00  0.00000000000E+00  0.33223617173E+02  0.38780438979E+02  0.20002842533E+02 0.  0.
        -13    1    3    3    0    0  0.11515846246E+01 -0.99340634932E+01  0.16468155167E+02  0.19267150067E+02  0.10570000000E+00 0. -1.
         13    1    3    3    0    0 -0.11515846246E+01  0.99340634932E+01  0.16755462006E+02  0.19513288912E+02  0.10570000000E+00 0.  1.
<mgrwt>
<rscale>  0 0.20002843E+02</rscale>
<asrwt>0</asrwt>
<pdfrwt beam="2">  1        4 0.42744783E-03 0.20002843E+02</pdfrwt>
<pdfrwt beam="1">  1       -4 0.55387735E-02 0.20002843E+02</pdfrwt>
<totfact> 0.12016297E+06</totfact>
</mgrwt>
</event>
<event>
 4    1  0.4710515E-007  0.2001743E+02  0.7818608E-02  0.1744982E+00
         -4   -1    0    0    0  501 -0.00000000000E+00  0.00000000000E+00  0.16951715668E+02  0.17011086505E+02  0.14200000000E+01 0. -1.
          4   -1    0    0  501    0  0.00000000000E+00 -0.00000000000E+00 -0.57532197708E+01  0.59258702088E+01  0.14200000000E+01 0.  1.
        -13    1    1    2    0    0  0.63717521587E+01  0.77108820441E+01  0.52256268933E+01  0.11286065585E+02  0.10570000000E+00 0.  1.
         13    1    1    2    0    0 -0.63717521587E+01 -0.77108820441E+01  0.59728690037E+01  0.11650891129E+02  0.10570000000E+00 0. -1.
<mgrwt>
<rscale>  0 0.20017434E+02</rscale>
<asrwt>0</asrwt>
<pdfrwt beam="2">  1        4 0.90295852E-03 0.20017434E+02</pdfrwt>
<pdfrwt beam="1">  1       -4 0.26258041E-02 0.20017434E+02</pdfrwt>
<totfact> 0.12819394E+06</totfact>
</mgrwt>
</event>
<event>
 5    1  0.4710515E-007  0.2000983E+02  0.7818608E-02  0.1745133E+00
         -4   -1    0    0    0  501 -0.00000000000E+00  0.00000000000E+00  0.19339221451E+02  0.19391283772E+02  0.14200000000E+01 0. -1.
          4   -1    0    0  501    0  0.00000000000E+00 -0.00000000000E+00 -0.50182495290E+01  0.52152879436E+01  0.14200000000E+01 0.  1.
       1023    2    1    2    0    0  0.00000000000E+00  0.00000000000E+00  0.14320971922E+02  0.24606571716E+02  0.20009825956E+02 0.  0.
        -13    1    3    3    0    0 -0.75595684898E+01  0.65497473423E+01  0.69119562121E+01  0.12158642077E+02  0.10570000000E+00 0. -1.
         13    1    3    3    0    0  0.75595684898E+01 -0.65497473423E+01  0.74090157098E+01  0.12447929638E+02  0.10570000000E+00 0.  1.
<mgrwt>
<rscale>  0 0.20009826E+02</rscale>
<asrwt>0</asrwt>
<pdfrwt beam="2">  1        4 0.79119999E-03 0.20009826E+02</pdfrwt>
<pdfrwt beam="1">  1       -4 0.29944264E-02 0.20009826E+02</pdfrwt>
<totfact> 0.12734868E+06</totfact>
</mgrwt>
</event>
<event>
 5    1  0.4875798E-007  0.2000227E+02  0.7818608E-02  0.1745283E+00
         -4   -1    0    0    0  501 -0.00000000000E+00  0.00000000000E+00  0.27105664274E+01  0.30599951564E+01  0.14200000000E+01 0. -1.
          4   -1    0    0  501    0  0.00000000000E+00 -0.00000000000E+00 -0.34301532680E+02  0.34330912371E+02  0.14200000000E+01 0.  1.
       1023    2    1    2    0    0  0.00000000000E+00  0.00000000000E+00 -0.31590966253E+02  0.37390907527E+02  0.20002270294E+02 0.  0.
        -13    1    3    3    0    0  0.99934783711E+01  0.37256096451E+00 -0.15899900294E+02  0.18783674121E+02  0.10570000000E+00 0. -1.
         13    1    3    3    0    0 -0.99934783711E+01 -0.37256096451E+00 -0.15691065958E+02  0.18607233406E+02  0.10570000000E+00 0.  1.
<mgrwt>
<rscale>  0 0.20002270E+02</rscale>
<asrwt>0</asrwt>
<pdfrwt beam="2">  1        4 0.53062977E-02 0.20002270E+02</pdfrwt>
<pdfrwt beam="1">  1       -4 0.44614935E-03 0.20002270E+02</pdfrwt>
<totfact> 0.12083044E+06</totfact>
</mgrwt>
</event>
<event>
 5    1  0.4710515E-007  0.2000412E+02  0.7818608E-02  0.1745246E+00
         -4   -1    0    0    0  501 -0.00000000000E+00  0.00000000000E+00  0.39878082711E+02  0.39903356760E+02  0.14200000000E+01 0. -1.
          4   -1    0    0  501    0  0.00000000000E+00 -0.00000000000E+00 -0.22794844121E+01  0.26856003398E+01  0.14200000000E+01 0.  1.
       1023    2    1    2    0    0  0.00000000000E+00  0.00000000000E+00  0.37598598299E+02  0.42588957100E+02  0.20004116396E+02 0.  0.
        -13    1    3    3    0    0  0.55467589340E+00  0.99861064615E+01  0.18805358417E+02  0.21299827823E+02  0.10570000000E+00 0.  1.
         13    1    3    3    0    0 -0.55467589340E+00 -0.99861064615E+01  0.18793239882E+02  0.21289129276E+02  0.10570000000E+00 0. -1.
<mgrwt>
<rscale>  0 0.20004116E+02</rscale>
<asrwt>0</asrwt>
<pdfrwt beam="2">  1        4 0.38387380E-03 0.20004116E+02</pdfrwt>
<pdfrwt beam="1">  1       -4 0.61682727E-02 0.20004116E+02</pdfrwt>
<totfact> 0.11838837E+06</totfact>
</mgrwt>
</event>
<event>
 4    1  0.4710515E-007  0.2001569E+02  0.7818608E-02  0.1745016E+00
         -4   -1    0    0    0  501 -0.00000000000E+00  0.00000000000E+00  0.15305505354E+01  0.20878182252E+01  0.14200000000E+01 0. -1.
          4   -1    0    0  501    0  0.00000000000E+00 -0.00000000000E+00 -0.54792418895E+02  0.54810816162E+02  0.14200000000E+01 0.  1.
        -13    1    1    2    0    0  0.62626465106E+01  0.78052376044E+01 -0.26466508329E+02  0.28295400880E+02  0.10570000000E+00 0.  1.
         13    1    1    2    0    0 -0.62626465106E+01 -0.78052376044E+01 -0.26795360031E+02  0.28603233507E+02  0.10570000000E+00 0. -1.
<mgrwt>
<rscale>  0 0.20015693E+02</rscale>
<asrwt>0</asrwt>
<pdfrwt beam="2">  1        4 0.84738836E-02 0.20015693E+02</pdfrwt>
<pdfrwt beam="1">  1       -4 0.27975127E-03 0.20015693E+02</pdfrwt>
<totfact> 0.11221691E+06</totfact>
</mgrwt>
</event>
<event>
 5    1  0.4710515E-007  0.2000326E+02  0.7818608E-02  0.1745263E+00
          4   -1    0    0  501    0  0.00000000000E+00  0.00000000000E+00  0.28524384337E+01  0.31863466569E+01  0.14200000000E+01 0. -1.
         -4   -1    0    0    0  501 -0.00000000000E+00 -0.00000000000E+00 -0.32779920574E+02  0.32810662792E+02  0.14200000000E+01 0.  1.
       1023    2    1    2    0    0  0.00000000000E+00  0.00000000000E+00 -0.29927482140E+02  0.35997009449E+02  0.20003262284E+02 0.  0.
        -13    1    3    3    0    0 -0.12533815538E+01 -0.99218696808E+01 -0.14813289867E+02  0.17873421398E+02  0.10570000000E+00 0. -1.
         13    1    3    3    0    0  0.12533815538E+01  0.99218696808E+01 -0.15114192273E+02  0.18123588051E+02  0.10570000000E+00 0.  1.
<mgrwt>
<rscale>  0 0.20003262E+02</rscale>
<asrwt>0</asrwt>
<pdfrwt beam="1">  1        4 0.46688674E-03 0.20003262E+02</pdfrwt>
<pdfrwt beam="2">  1       -4 0.50711145E-02 0.20003262E+02</pdfrwt>
<totfact> 0.12149138E+06</totfact>
</mgrwt>
</event>
<event>
 5    1  0.4710515E-007  0.2000291E+02  0.7818608E-02  0.1745270E+00
          4   -1    0    0  501    0  0.00000000000E+00  0.00000000000E+00  0.46739457762E+02  0.46761023427E+02  0.14200000000E+01 0. -1.
         -4   -1    0    0    0  501 -0.00000000000E+00 -0.00000000000E+00 -0.18800249607E+01  0.23560334999E+01  0.14200000000E+01 0. -1.
       1023    2    1    2    0    0  0.00000000000E+00  0.00000000000E+00  0.44859432801E+02  0.49117056926E+02  0.20002914034E+02 0.  0.
        -13    1    3    3    0    0  0.69192013505E+01 -0.72208509777E+01  0.22537696801E+02  0.24657148776E+02  0.10570000000E+00 0.  1.
         13    1    3    3    0    0 -0.69192013505E+01  0.72208509777E+01  0.22321736000E+02  0.24459908151E+02  0.10570000000E+00 0. -1.
<mgrwt>
<rscale>  0 0.20002914E+02</rscale>
<asrwt>0</asrwt>
<pdfrwt beam="1">  1        4 0.72289605E-02 0.20002914E+02</pdfrwt>
<pdfrwt beam="2">  1       -4 0.32750956E-03 0.20002914E+02</pdfrwt>
<totfact> 0.11554113E+06</totfact>
</mgrwt>
</event>
<event>
 5    1  0.4710515E-007  0.2000367E+02  0.7818608E-02  0.1745255E+00
         -4   -1    0    0    0  501 -0.00000000000E+00  0.00000000000E+00  0.20447930679E+02  0.20497177099E+02  0.14200000000E+01 0. -1.
          4   -1    0    0  501    0  0.00000000000E+00 -0.00000000000E+00 -0.47327932659E+01  0.49412277926E+01  0.14200000000E+01 0.  1.
       1023    2    1    2    0    0  0.00000000000E+00  0.00000000000E+00  0.15715137413E+02  0.25438404892E+02  0.20003672151E+02 0.  0.
        -13    1    3    3    0    0  0.22711807038E+01  0.97397785289E+01  0.79380456145E+01  0.12768918836E+02  0.10570000000E+00 0.  1.
         13    1    3    3    0    0 -0.22711807038E+01 -0.97397785289E+01  0.77770917983E+01  0.12669486056E+02  0.10570000000E+00 0. -1.
<mgrwt>
<rscale>  0 0.20003672E+02</rscale>
<asrwt>0</asrwt>
<pdfrwt beam="2">  1        4 0.74794365E-03 0.20003672E+02</pdfrwt>
<pdfrwt beam="1">  1       -4 0.31656571E-02 0.20003672E+02</pdfrwt>
<totfact> 0.12696455E+06</totfact>
</mgrwt>
</event>
<event>
 5    1  0.4710515E-007  0.2000194E+02  0.7818608E-02  0.1745290E+00
          4   -1    0    0  501    0  0.00000000000E+00  0.00000000000E+00  0.60037918090E+01  0.61694340167E+01  0.14200000000E+01 0.  1.
         -4   -1    0    0    0  501 -0.00000000000E+00 -0.00000000000E+00 -0.16235631734E+02  0.16297611414E+02  0.14200000000E+01 0. -1.
       1023    2    1    2    0    0  0.00000000000E+00  0.00000000000E+00 -0.10231839925E+02  0.22467045431E+02  0.20001939459E+02 0.  0.
        -13    1    3    3    0    0  0.72740061600E+01  0.68625906018E+01 -0.50668603428E+01  0.11211180206E+02  0.10570000000E+00 0. -1.
         13    1    3    3    0    0 -0.72740061600E+01 -0.68625906018E+01 -0.51649795820E+01  0.11255865225E+02  0.10570000000E+00 0.  1.
<mgrwt>
<rscale>  0 0.20001939E+02</rscale>
<asrwt>0</asrwt>
<pdfrwt beam="1">  1        4 0.94116966E-03 0.20001939E+02</pdfrwt>
<pdfrwt beam="2">  1       -4 0.25152989E-02 0.20001939E+02</pdfrwt>
<totfact> 0.12866656E+06</totfact>
</mgrwt>
</event>
<event>
 5    1  0.4830429E-007  0.2000138E+02  0.7818608E-02  0.1745301E+00
         -4   -1    0    0    0  501 -0.00000000000E+00  0.00000000000E+00  0.13673207014E+02  0.13746744708E+02  0.14200000000E+01 0.  1.
          4   -1    0    0  501    0  0.00000000000E+00 -0.00000000000E+00 -0.71514321298E+01  0.72910480390E+01  0.14200000000E+01 0. -1.
       1023    2    1    2    0    0  0.00000000000E+00  0.00000000000E+00  0.65217748847E+01  0.21037792747E+02  0.20001379353E+02 0.  0.
        -13    1    3    3    0    0  0.94338707968E+01  0.33173306963E+01  0.32561422521E+01  0.10517425351E+02  0.10570000000E+00 0.  1.
         13    1    3    3    0    0 -0.94338707968E+01 -0.33173306963E+01  0.32656326326E+01  0.10520367396E+02  0.10570000000E+00 0. -1.
<mgrwt>
<rscale>  0 0.20001379E+02</rscale>
<asrwt>0</asrwt>
<pdfrwt beam="2">  1        4 0.11166168E-02 0.20001379E+02</pdfrwt>
<pdfrwt beam="1">  1       -4 0.21199667E-02 0.20001379E+02</pdfrwt>
<totfact> 0.12950697E+06</totfact>
</mgrwt>
</event>
<event>
 4    1  0.4710515E-007  0.2007281E+02  0.7818608E-02  0.1743884E+00
         -4   -1    0    0    0  501 -0.00000000000E+00  0.00000000000E+00  0.13908689303E+01  0.19876912188E+01  0.14200000000E+01 0. -1.
          4   -1    0    0  501    0  0.00000000000E+00 -0.00000000000E+00 -0.59021753978E+02  0.59038833344E+02  0.14200000000E+01 0.  1.
        -13    1    1    2    0    0 -0.88440223268E+01 -0.46697013960E+01 -0.26280092276E+02  0.28118984060E+02  0.10570000000E+00 0. -1.
         13    1    1    2    0    0  0.88440223268E+01  0.46697013960E+01 -0.31350792772E+02  0.32907540503E+02  0.10570000000E+00 0.  1.
<mgrwt>
<rscale>  0 0.20072812E+02</rscale>
<asrwt>0</asrwt>
<pdfrwt beam="2">  1        4 0.91274915E-02 0.20072812E+02</pdfrwt>
<pdfrwt beam="1">  1       -4 0.26120308E-03 0.20072812E+02</pdfrwt>
<totfact> 0.10998894E+06</totfact>
</mgrwt>
</event>
<event>
 5    1  0.4710515E-007  0.2000156E+02  0.7818608E-02  0.1745297E+00
         -4   -1    0    0    0  501 -0.00000000000E+00  0.00000000000E+00  0.29740129186E+02  0.29774010210E+02  0.14200000000E+01 0.  1.
          4   -1    0    0  501    0  0.00000000000E+00 -0.00000000000E+00 -0.31755880329E+01  0.34786145740E+01  0.14200000000E+01 0. -1.
       1023    2    1    2    0    0  0.00000000000E+00  0.00000000000E+00  0.26564541153E+02  0.33252624784E+02  0.20001555149E+02 0.  0.
        -13    1    3    3    0    0  0.27764884265E+00  0.99963367622E+01  0.13320977191E+02  0.16657233965E+02  0.10570000000E+00 0. -1.
         13    1    3    3    0    0 -0.27764884265E+00 -0.99963367622E+01  0.13243563962E+02  0.16595390819E+02  0.10570000000E+00 0.  1.
<mgrwt>
<rscale>  0 0.20001555E+02</rscale>
<asrwt>0</asrwt>
<pdfrwt beam="2">  1        4 0.51446796E-03 0.20001555E+02</pdfrwt>
<pdfrwt beam="1">  1       -4 0.46013205E-02 0.20001555E+02</pdfrwt>
<totfact> 0.12287035E+06</totfact>
</mgrwt>
</event>
<event>
 5    1  0.4710515E-007  0.2000149E+02  0.7818608E-02  0.1745298E+00
          4   -1    0    0  501    0  0.00000000000E+00  0.00000000000E+00  0.29198156334E+01  0.32468020163E+01  0.14200000000E+01 0. -1.
         -4   -1    0    0    0  501 -0.00000000000E+00 -0.00000000000E+00 -0.32094007664E+02  0.32125406268E+02  0.14200000000E+01 0.  1.
       1023    2    1    2    0    0  0.00000000000E+00  0.00000000000E+00 -0.29174192030E+02  0.35372208285E+02  0.20001490903E+02 0.  0.
        -13    1    3    3    0    0  0.76847766245E+01  0.63988706792E+01 -0.14673721720E+02  0.17757551051E+02  0.10570000000E+00 0. -1.
         13    1    3    3    0    0 -0.76847766245E+01 -0.63988706792E+01 -0.14500470310E+02  0.17614657233E+02  0.10570000000E+00 0.  1.
<mgrwt>
<rscale>  0 0.20001491E+02</rscale>
<asrwt>0</asrwt>
<pdfrwt beam="1">  1        4 0.47677050E-03 0.20001491E+02</pdfrwt>
<pdfrwt beam="2">  1       -4 0.49651075E-02 0.20001491E+02</pdfrwt>
<totfact> 0.12181850E+06</totfact>
</mgrwt>
</event>
<event>
 4    1  0.4710515E-007  0.2002397E+02  0.7818608E-02  0.1744852E+00
         -4   -1    0    0    0  501 -0.00000000000E+00  0.00000000000E+00  0.27101807334E+00  0.14456316253E+01  0.14200000000E+01 0.  1.
          4   -1    0    0  501    0  0.00000000000E+00 -0.00000000000E+00 -0.11560342979E+03  0.11561215065E+03  0.14200000000E+01 0. -1.
        -13    1    1    2    0    0 -0.46030859892E+01  0.88883248746E+01 -0.56528015922E+02  0.57407477529E+02  0.10570000000E+00 0. -1.
         13    1    1    2    0    0  0.46030859892E+01 -0.88883248746E+01 -0.58804395794E+02  0.59650304751E+02  0.10570000000E+00 0.  1.
<mgrwt>
<rscale>  0 0.20023966E+02</rscale>
<asrwt>0</asrwt>
<pdfrwt beam="2">  1        4 0.17876156E-01 0.20023966E+02</pdfrwt>
<pdfrwt beam="1">  1       -4 0.13272090E-03 0.20023966E+02</pdfrwt>
<totfact> 0.93183149E+05</totfact>
</mgrwt>
</event>
<event>
 5    1  0.4710515E-007  0.2000497E+02  0.7818608E-02  0.1745229E+00
          4   -1    0    0  501    0  0.00000000000E+00  0.00000000000E+00  0.47819921829E+01  0.49883714013E+01  0.14200000000E+01 0.  1.
         -4   -1    0    0    0  501 -0.00000000000E+00 -0.00000000000E+00 -0.20248470147E+02  0.20298200494E+02  0.14200000000E+01 0. -1.
       1023    2    1    2    0    0  0.00000000000E+00  0.00000000000E+00 -0.15466477964E+02  0.25286571895E+02  0.20004968823E+02 0.  0.
        -13    1    3    3    0    0 -0.23995655678E+01  0.97097768824E+01 -0.77698711972E+01  0.12665691964E+02  0.10570000000E+00 0.  1.
         13    1    3    3    0    0  0.23995655678E+01 -0.97097768824E+01 -0.76966067669E+01  0.12620879931E+02  0.10570000000E+00 0. -1.
<mgrwt>
<rscale>  0 0.20004969E+02</rscale>
<asrwt>0</asrwt>
<pdfrwt beam="1">  1        4 0.75539185E-03 0.20004969E+02</pdfrwt>
<pdfrwt beam="2">  1       -4 0.31348499E-02 0.20004969E+02</pdfrwt>
<totfact> 0.12703206E+06</totfact>
</mgrwt>
</event>
<event>
 5    1  0.4710515E-007  0.2000634E+02  0.7818608E-02  0.1745202E+00
         -4   -1    0    0    0  501 -0.00000000000E+00  0.00000000000E+00  0.84095169572E+02  0.84107157516E+02  0.14200000000E+01 0. -1.
          4   -1    0    0  501    0  0.00000000000E+00 -0.00000000000E+00 -0.74977147980E+00  0.16057886760E+01  0.14200000000E+01 0.  1.
       1023    2    1    2    0    0  0.00000000000E+00  0.00000000000E+00  0.83345398092E+02  0.85712946192E+02  0.20006343036E+02 0.  0.
        -13    1    3    3    0    0 -0.21635693833E+01 -0.97657381109E+01  0.41843781369E+02  0.43022829812E+02  0.10570000000E+00 0. -1.
         13    1    3    3    0    0  0.21635693833E+01  0.97657381109E+01  0.41501616724E+02  0.42690116379E+02  0.10570000000E+00 0.  1.
<mgrwt>
<rscale>  0 0.20006343E+02</rscale>
<asrwt>0</asrwt>
<pdfrwt beam="2">  1        4 0.18211901E-03 0.20006343E+02</pdfrwt>
<pdfrwt beam="1">  1       -4 0.13004493E-01 0.20006343E+02</pdfrwt>
<totfact> 0.10221781E+06</totfact>
</mgrwt>
</event>
<event>
 5    1  0.4727284E-007  0.2000174E+02  0.7818608E-02  0.1745293E+00
         -4   -1    0    0    0  501 -0.00000000000E+00  0.00000000000E+00  0.30175926827E+02  0.30209319089E+02  0.14200000000E+01 0. -1.
          4   -1    0    0  501    0  0.00000000000E+00 -0.00000000000E+00 -0.31254394015E+01  0.34328954910E+01  0.14200000000E+01 0.  1.
       1023    2    1    2    0    0  0.00000000000E+00  0.00000000000E+00  0.27050487425E+02  0.33642214580E+02  0.20001743223E+02 0.  0.
        -13    1    3    3    0    0 -0.93389365125E+01 -0.35759479703E+01  0.13431272874E+02  0.16745548739E+02  0.10570000000E+00 0. -1.
         13    1    3    3    0    0  0.93389365125E+01  0.35759479703E+01  0.13619214551E+02  0.16896665841E+02  0.10570000000E+00 0.  1.
<mgrwt>
<rscale>  0 0.20001743E+02</rscale>
<asrwt>0</asrwt>
<pdfrwt beam="2">  1        4 0.50705593E-03 0.20001743E+02</pdfrwt>
<pdfrwt beam="1">  1       -4 0.46686694E-02 0.20001743E+02</pdfrwt>
<totfact> 0.12267253E+06</totfact>
</mgrwt>
</event>
<event>
 4    1  0.4710515E-007  0.2001853E+02  0.7818608E-02  0.1744960E+00
          4   -1    0    0  501    0  0.00000000000E+00  0.00000000000E+00  0.27748492029E+02  0.27784801779E+02  0.14200000000E+01 0. -1.
         -4   -1    0    0    0  501 -0.00000000000E+00 -0.00000000000E+00 -0.34305821056E+01  0.37128551794E+01  0.14200000000E+01 0.  1.
        -13    1    1    2    0    0 -0.60141088171E+01 -0.80002206562E+01  0.12104341035E+02  0.15706663548E+02  0.10570000000E+00 0.  1.
         13    1    1    2    0    0  0.60141088171E+01  0.80002206562E+01  0.12213568888E+02  0.15790993411E+02  0.10570000000E+00 0. -1.
<mgrwt>
<rscale>  0 0.20018533E+02</rscale>
<asrwt>0</asrwt>
<pdfrwt beam="1">  1        4 0.42935053E-02 0.20018533E+02</pdfrwt>
<pdfrwt beam="2">  1       -4 0.55228821E-03 0.20018533E+02</pdfrwt>
<totfact> 0.12354937E+06</totfact>
</mgrwt>
</event>
<event>
 5    1  0.4710515E-007  0.2000440E+02  0.7818608E-02  0.1745241E+00
         -4   -1    0    0    0  501 -0.00000000000E+00  0.00000000000E+00  0.28914205804E+02  0.28949053478E+02  0.14200000000E+01 0. -1.
          4   -1    0    0  501    0  0.00000000000E+00 -0.00000000000E+00 -0.32757418702E+01  0.35702779724E+01  0.14200000000E+01 0.  1.
       1023    2    1    2    0    0  0.00000000000E+00  0.00000000000E+00  0.25638463934E+02  0.32519331451E+02  0.20004401643E+02 0.  0.
        -13    1    3    3    0    0 -0.58762410073E+01 -0.80914198307E+01  0.12530415059E+02  0.16031960494E+02  0.10570000000E+00 0.  1.
         13    1    3    3    0    0  0.58762410073E+01  0.80914198307E+01  0.13108048875E+02  0.16487370956E+02  0.10570000000E+00 0. -1.
<mgrwt>
<rscale>  0 0.20004402E+02</rscale>
<asrwt>0</asrwt>
<pdfrwt beam="2">  1        4 0.52929751E-03 0.20004402E+02</pdfrwt>
<pdfrwt beam="1">  1       -4 0.44736765E-02 0.20004402E+02</pdfrwt>
<totfact> 0.12320519E+06</totfact>
</mgrwt>
</event>
<event>
 5    1  0.4710515E-007  0.2000936E+02  0.7818608E-02  0.1745142E+00
         -4   -1    0    0    0  501 -0.00000000000E+00  0.00000000000E+00  0.67718149113E+00  0.15732052542E+01  0.14200000000E+01 0.  1.
          4   -1    0    0  501    0  0.00000000000E+00 -0.00000000000E+00 -0.88052816036E+02  0.88064265238E+02  0.14200000000E+01 0. -1.
       1023    2    1    2    0    0  0.00000000000E+00  0.00000000000E+00 -0.87375634545E+02  0.89637470492E+02  0.20009362911E+02 0.  0.
        -13    1    3    3    0    0  0.13686755516E+01  0.99089141792E+01 -0.43013978567E+02  0.44161899615E+02  0.10570000000E+00 0. -1.
         13    1    3    3    0    0 -0.13686755516E+01 -0.99089141792E+01 -0.44361655978E+02  0.45475570877E+02  0.10570000000E+00 0.  1.
<mgrwt>
<rscale>  0 0.20009363E+02</rscale>
<asrwt>0</asrwt>
<pdfrwt beam="2">  1        4 0.13616387E-01 0.20009363E+02</pdfrwt>
<pdfrwt beam="1">  1       -4 0.17398745E-03 0.20009363E+02</pdfrwt>
<totfact> 0.10097314E+06</totfact>
</mgrwt>
</event>
<event>
 4    1  0.4710515E-007  0.2007811E+02  0.7818608E-02  0.1743779E+00
         -4   -1    0    0    0  501 -0.00000000000E+00  0.00000000000E+00  0.10510084111E+02  0.10605577213E+02  0.14200000000E+01 0. -1.
          4   -1    0    0  501    0  0.00000000000E+00 -0.00000000000E+00 -0.93966904850E+01  0.95033779295E+01  0.14200000000E+01 0. -1.
        -13    1    1    2    0    0 -0.55241753005E+00  0.10022275707E+02  0.69925282193E+00  0.10062370619E+02  0.10570000000E+00 0. -1.
         13    1    1    2    0    0  0.55241753005E+00 -0.10022275707E+02  0.41414080365E+00  0.10046584523E+02  0.10570000000E+00 0.  1.
<mgrwt>
<rscale>  0 0.20078108E+02</rscale>
<asrwt>0</asrwt>
<pdfrwt beam="2">  1        4 0.14611970E-02 0.20078108E+02</pdfrwt>
<pdfrwt beam="1">  1       -4 0.16324884E-02 0.20078108E+02</pdfrwt>
<totfact> 0.12904411E+06</totfact>
</mgrwt>
</event>
<event>
 5    1  0.4710515E-007  0.2000274E+02  0.7818608E-02  0.1745274E+00
          4   -1    0    0  501    0  0.00000000000E+00  0.00000000000E+00  0.55193801290E+01  0.56991189677E+01  0.14200000000E+01 0. -1.
         -4   -1    0    0    0  501 -0.00000000000E+00 -0.00000000000E+00 -0.17623832578E+02  0.17680946659E+02  0.14200000000E+01 0.  1.
       1023    2    1    2    0    0  0.00000000000E+00  0.00000000000E+00 -0.12104452449E+02  0.23380065626E+02  0.20002742302E+02 0.  0.
        -13    1    3    3    0    0  0.75022352383E+01 -0.66124257679E+01 -0.59441837487E+01  0.11634096486E+02  0.10570000000E+00 0.  1.
         13    1    3    3    0    0 -0.75022352383E+01  0.66124257679E+01 -0.61602687006E+01  0.11745969141E+02  0.10570000000E+00 0. -1.
<mgrwt>
<rscale>  0 0.20002742E+02</rscale>
<asrwt>0</asrwt>
<pdfrwt beam="1">  1        4 0.86735487E-03 0.20002742E+02</pdfrwt>
<pdfrwt beam="2">  1       -4 0.27295783E-02 0.20002742E+02</pdfrwt>
<totfact> 0.12813305E+06</totfact>
</mgrwt>
</event>
<event>
 5    1  0.5057822E-007  0.2000256E+02  0.7818608E-02  0.1745277E+00
          4   -1    0    0  501    0  0.00000000000E+00  0.00000000000E+00  0.34768721317E+02  0.34797706562E+02  0.14200000000E+01 0. -1.
         -4   -1    0    0    0  501 -0.00000000000E+00 -0.00000000000E+00 -0.26695390236E+01  0.30237127176E+01  0.14200000000E+01 0.  1.
       1023    2    1    2    0    0  0.00000000000E+00  0.00000000000E+00  0.32099182293E+02  0.37821419280E+02  0.20002556148E+02 0.  0.
        -13    1    3    3    0    0 -0.89669459859E+01 -0.44272042209E+01  0.16220113131E+02  0.19055432296E+02  0.10570000000E+00 0. -1.
         13    1    3    3    0    0  0.89669459859E+01  0.44272042209E+01  0.15879069162E+02  0.18765986984E+02  0.10570000000E+00 0.  1.
<mgrwt>
<rscale>  0 0.20002556E+02</rscale>
<asrwt>0</asrwt>
<pdfrwt beam="1">  1        4 0.53785078E-02 0.20002556E+02</pdfrwt>
<pdfrwt beam="2">  1       -4 0.44017208E-03 0.20002556E+02</pdfrwt>
<totfact> 0.12062119E+06</totfact>
</mgrwt>
</event>
<event>
 5    1  0.4710515E-007  0.2000232E+02  0.7818608E-02  0.1745282E+00
          4   -1    0    0  501    0  0.00000000000E+00  0.00000000000E+00  0.34052625153E+01  0.36894732413E+01  0.14200000000E+01 0. -1.
         -4   -1    0    0    0  501 -0.00000000000E+00 -0.00000000000E+00 -0.27893452828E+02  0.27929574122E+02  0.14200000000E+01 0.  1.
       1023    2    1    2    0    0  0.00000000000E+00  0.00000000000E+00 -0.24488190312E+02  0.31619047363E+02  0.20002317151E+02 0.  0.
        -13    1    3    3    0    0  0.57624687156E+01 -0.81734285557E+01 -0.12193601830E+02  0.15770417817E+02  0.10570000000E+00 0.  1.
         13    1    3    3    0    0 -0.57624687156E+01  0.81734285557E+01 -0.12294588482E+02  0.15848629546E+02  0.10570000000E+00 0. -1.
<mgrwt>
<rscale>  0 0.20002317E+02</rscale>
<asrwt>0</asrwt>
<pdfrwt beam="1">  1        4 0.54852748E-03 0.20002317E+02</pdfrwt>
<pdfrwt beam="2">  1       -4 0.43159412E-02 0.20002317E+02</pdfrwt>
<totfact> 0.12369056E+06</totfact>
</mgrwt>
</event>
<event>
 5    1  0.4710515E-007  0.2000609E+02  0.7818608E-02  0.1745207E+00
         -4   -1    0    0    0  501 -0.00000000000E+00  0.00000000000E+00  0.13623359158E+02  0.13697164478E+02  0.14200000000E+01 0.  1.
          4   -1    0    0  501    0  0.00000000000E+00 -0.00000000000E+00 -0.71814498761E+01  0.73204933114E+01  0.14200000000E+01 0. -1.
       1023    2    1    2    0    0  0.00000000000E+00  0.00000000000E+00  0.64419092817E+01  0.21017657790E+02  0.20006092666E+02 0.  0.
        -13    1    3    3    0    0  0.10000154870E+02  0.72353028159E-01  0.30071165329E+01  0.10443287544E+02  0.10570000000E+00 0.  1.
         13    1    3    3    0    0 -0.10000154870E+02 -0.72353028159E-01  0.34347927488E+01  0.10574370246E+02  0.10570000000E+00 0. -1.
<mgrwt>
<rscale>  0 0.20006093E+02</rscale>
<asrwt>0</asrwt>
<pdfrwt beam="2">  1        4 0.11212114E-02 0.20006093E+02</pdfrwt>
<pdfrwt beam="1">  1       -4 0.21122744E-02 0.20006093E+02</pdfrwt>
<totfact> 0.12945660E+06</totfact>
</mgrwt>
</event>
<event>
 5    1  0.5031428E-007  0.2000307E+02  0.7818608E-02  0.1745267E+00
          4   -1    0    0  501    0  0.00000000000E+00  0.00000000000E+00  0.25013215145E+02  0.25053489415E+02  0.14200000000E+01 0.  1.
         -4   -1    0    0    0  501 -0.00000000000E+00 -0.00000000000E+00 -0.38280769896E+01  0.40829613565E+01  0.14200000000E+01 0. -1.
       1023    2    1    2    0    0  0.00000000000E+00  0.00000000000E+00  0.21185138155E+02  0.29136450772E+02  0.20003066888E+02 0.  0.
        -13    1    3    3    0    0 -0.95403112636E+01  0.29973575393E+01  0.10786944666E+02  0.14709556041E+02  0.10570000000E+00 0.  1.
         13    1    3    3    0    0  0.95403112636E+01 -0.29973575393E+01  0.10398193490E+02  0.14426894730E+02  0.10570000000E+00 0. -1.
<mgrwt>
<rscale>  0 0.20003067E+02</rscale>
<asrwt>0</asrwt>
<pdfrwt beam="1">  1        4 0.38708914E-02 0.20003067E+02</pdfrwt>
<pdfrwt beam="2">  1       -4 0.61163944E-03 0.20003067E+02</pdfrwt>
<totfact> 0.12497196E+06</totfact>
</mgrwt>
</event>
<event>
 5    1  0.4710515E-007  0.2000430E+02  0.7818608E-02  0.1745243E+00
         -4   -1    0    0    0  501 -0.00000000000E+00  0.00000000000E+00  0.21668902136E+02  0.21715379798E+02  0.14200000000E+01 0.  1.
          4   -1    0    0  501    0  0.00000000000E+00 -0.00000000000E+00 -0.44549332322E+01  0.46757705358E+01  0.14200000000E+01 0. -1.
       1023    2    1    2    0    0  0.00000000000E+00  0.00000000000E+00  0.17213968904E+02  0.26391150334E+02  0.20004301801E+02 0.  0.
        -13    1    3    3    0    0  0.79837196612E+01 -0.60234272629E+01  0.87414890681E+01  0.13283307541E+02  0.10570000000E+00 0.  1.
         13    1    3    3    0    0 -0.79837196612E+01  0.60234272629E+01  0.84724798355E+01  0.13107842792E+02  0.10570000000E+00 0. -1.
<mgrwt>
<rscale>  0 0.20004302E+02</rscale>
<asrwt>0</asrwt>
<pdfrwt beam="2">  1        4 0.70593703E-03 0.20004302E+02</pdfrwt>
<pdfrwt beam="1">  1       -4 0.33542400E-02 0.20004302E+02</pdfrwt>
<totfact> 0.12643159E+06</totfact>
</mgrwt>
</event>
<event>
 5    1  0.4710515E-007  0.2000845E+02  0.7818608E-02  0.1745160E+00
          4   -1    0    0  501    0  0.00000000000E+00  0.00000000000E+00  0.15964278956E+01  0.21365818557E+01  0.14200000000E+01 0.  1.
         -4   -1    0    0    0  501 -0.00000000000E+00 -0.00000000000E+00 -0.53070307245E+02  0.53089301286E+02  0.14200000000E+01 0. -1.
       1023    2    1    2    0    0  0.00000000000E+00  0.00000000000E+00 -0.51473879349E+02  0.55225883142E+02  0.20008446055E+02 0.  0.
        -13    1    3    3    0    0 -0.97281099343E+01  0.23307219768E+01 -0.25543374760E+02  0.27432527307E+02  0.10570000000E+00 0.  1.
         13    1    3    3    0    0  0.97281099343E+01 -0.23307219768E+01 -0.25930504589E+02  0.27793355835E+02  0.10570000000E+00 0. -1.
<mgrwt>
<rscale>  0 0.20008446E+02</rscale>
<asrwt>0</asrwt>
<pdfrwt beam="1">  1        4 0.28861572E-03 0.20008446E+02</pdfrwt>
<pdfrwt beam="2">  1       -4 0.82076729E-02 0.20008446E+02</pdfrwt>
<totfact> 0.11296249E+06</totfact>
</mgrwt>
</event>
<event>
 4    1  0.4710515E-007  0.2001854E+02  0.7818608E-02  0.1744960E+00
          4   -1    0    0  501    0  0.00000000000E+00  0.00000000000E+00  0.84564686261E+00  0.16527306545E+01  0.14200000000E+01 0. -1.
         -4   -1    0    0    0  501 -0.00000000000E+00 -0.00000000000E+00 -0.79384989228E+02  0.79397688346E+02  0.14200000000E+01 0.  1.
        -13    1    1    2    0    0 -0.96470187242E+01  0.26530401427E+01 -0.40346715444E+02  0.41568885141E+02  0.10570000000E+00 0. -1.
         13    1    1    2    0    0  0.96470187242E+01 -0.26530401427E+01 -0.38192626921E+02  0.39481533859E+02  0.10570000000E+00 0.  1.
<mgrwt>
<rscale>  0 0.20018544E+02</rscale>
<asrwt>0</asrwt>
<pdfrwt beam="1">  1        4 0.19315980E-03 0.20018544E+02</pdfrwt>
<pdfrwt beam="2">  1       -4 0.12276131E-01 0.20018544E+02</pdfrwt>
<totfact> 0.10357724E+06</totfact>
</mgrwt>
</event>
<event>
 4    1  0.4710515E-007  0.2089747E+02  0.7818608E-02  0.1728048E+00
          4   -1    0    0  501    0  0.00000000000E+00  0.00000000000E+00  0.80022273533E+00  0.16299559583E+01  0.14200000000E+01 0.  1.
         -4   -1    0    0    0  501 -0.00000000000E+00 -0.00000000000E+00 -0.89012868261E+02  0.89024193993E+02  0.14200000000E+01 0. -1.
        -13    1    1    2    0    0  0.83860909787E+00  0.10367412750E+02 -0.39815530440E+02  0.41151842596E+02  0.10570000000E+00 0.  1.
         13    1    1    2    0    0 -0.83860909787E+00 -0.10367412750E+02 -0.48397115085E+02  0.49502307354E+02  0.10570000000E+00 0. -1.
<mgrwt>
<rscale>  0 0.20897466E+02</rscale>
<asrwt>0</asrwt>
<pdfrwt beam="1">  1        4 0.18780810E-03 0.20897466E+02</pdfrwt>
<pdfrwt beam="2">  1       -4 0.13758979E-01 0.20897466E+02</pdfrwt>
<totfact> 0.92222254E+05</totfact>
</mgrwt>
</event>
<event>
 4    1  0.4710515E-007  0.2002009E+02  0.7818608E-02  0.1744929E+00
         -4   -1    0    0    0  501 -0.00000000000E+00  0.00000000000E+00  0.54763255844E+02  0.54781662905E+02  0.14200000000E+01 0.  1.
          4   -1    0    0  501    0  0.00000000000E+00 -0.00000000000E+00 -0.15325897774E+01  0.20893136255E+01  0.14200000000E+01 0. -1.
        -13    1    1    2    0    0  0.72624453623E+01 -0.68846517219E+01  0.25990858456E+02  0.27850986298E+02  0.10570000000E+00 0.  1.
         13    1    1    2    0    0 -0.72624453623E+01  0.68846517219E+01  0.27239807610E+02  0.29019990233E+02  0.10570000000E+00 0. -1.
<mgrwt>
<rscale>  0 0.20020094E+02</rscale>
<asrwt>0</asrwt>
<pdfrwt beam="2">  1        4 0.28002389E-03 0.20020094E+02</pdfrwt>
<pdfrwt beam="1">  1       -4 0.84693570E-02 0.20020094E+02</pdfrwt>
<totfact> 0.11217811E+06</totfact>
</mgrwt>
</event>
<event>
 5    1  0.4710515E-007  0.2000834E+02  0.7818608E-02  0.1745162E+00
          4   -1    0    0  501    0  0.00000000000E+00  0.00000000000E+00  0.36901835876E+02  0.36929146904E+02  0.14200000000E+01 0.  1.
         -4   -1    0    0    0  501 -0.00000000000E+00 -0.00000000000E+00 -0.24959369144E+01  0.28716025283E+01  0.14200000000E+01 0. -1.
       1023    2    1    2    0    0  0.00000000000E+00  0.00000000000E+00  0.34405898962E+02  0.39800749432E+02  0.20008342559E+02 0.  0.
        -13    1    3    3    0    0 -0.97405285973E+01 -0.22748054466E+01  0.16924223733E+02  0.19659429255E+02  0.10570000000E+00 0.  1.
         13    1    3    3    0    0  0.97405285973E+01  0.22748054466E+01  0.17481675228E+02  0.20141320177E+02  0.10570000000E+00 0. -1.
<mgrwt>
<rscale>  0 0.20008343E+02</rscale>
<asrwt>0</asrwt>
<pdfrwt beam="1">  1        4 0.57082037E-02 0.20008343E+02</pdfrwt>
<pdfrwt beam="2">  1       -4 0.41498850E-03 0.20008343E+02</pdfrwt>
<totfact> 0.11961790E+06</totfact>
</mgrwt>
</event>
<event>
 5    1  0.4710515E-007  0.2001035E+02  0.7818608E-02  0.1745122E+00
         -4   -1    0    0    0  501 -0.00000000000E+00  0.00000000000E+00  0.37784247613E+02  0.37810921275E+02  0.14200000000E+01 0. -1.
          4   -1    0    0  501    0  0.00000000000E+00 -0.00000000000E+00 -0.24293859896E+01  0.28139502992E+01  0.14200000000E+01 0.  1.
       1023    2    1    2    0    0  0.00000000000E+00  0.00000000000E+00  0.35354861623E+02  0.40624871574E+02  0.20010346075E+02 0.  0.
        -13    1    3    3    0    0  0.68073669023E+01 -0.73294121173E+01  0.17315458726E+02  0.19997420071E+02  0.10570000000E+00 0. -1.
         13    1    3    3    0    0 -0.68073669023E+01  0.73294121173E+01  0.18039402897E+02  0.20627451503E+02  0.10570000000E+00 0.  1.
<mgrwt>
<rscale>  0 0.20010346E+02</rscale>
<asrwt>0</asrwt>
<pdfrwt beam="2">  1        4 0.40538538E-03 0.20010346E+02</pdfrwt>
<pdfrwt beam="1">  1       -4 0.58445949E-02 0.20010346E+02</pdfrwt>
<totfact> 0.11921140E+06</totfact>
</mgrwt>
</event>
<event>
 4    1  0.4710515E-007  0.2006450E+02  0.7818608E-02  0.1744048E+00
          4   -1    0    0  501    0  0.00000000000E+00  0.00000000000E+00  0.10613598241E+02  0.10708168267E+02  0.14200000000E+01 0.  1.
         -4   -1    0    0    0  501 -0.00000000000E+00 -0.00000000000E+00 -0.92919377150E+01  0.93998141736E+01  0.14200000000E+01 0. -1.
        -13    1    1    2    0    0  0.95140188554E+01  0.31295386568E+01  0.12315407642E+01  0.10091502967E+02  0.10570000000E+00 0.  1.
         13    1    1    2    0    0 -0.95140188554E+01 -0.31295386568E+01  0.90119762266E-01  0.10016479474E+02  0.10570000000E+00 0. -1.
<mgrwt>
<rscale>  0 0.20064500E+02</rscale>
<asrwt>0</asrwt>
<pdfrwt beam="1">  1        4 0.16484341E-02 0.20064500E+02</pdfrwt>
<pdfrwt beam="2">  1       -4 0.14451017E-02 0.20064500E+02</pdfrwt>
<totfact> 0.12922362E+06</totfact>
</mgrwt>
</event>
<event>
 5    1  0.4798952E-007  0.2000349E+02  0.7818608E-02  0.1745259E+00
         -4   -1    0    0    0  501 -0.00000000000E+00  0.00000000000E+00  0.63405138385E+01  0.64975776822E+01  0.14200000000E+01 0. -1.
          4   -1    0    0  501    0  0.00000000000E+00 -0.00000000000E+00 -0.15393932601E+02  0.15459287207E+02  0.14200000000E+01 0.  1.
       1023    2    1    2    0    0  0.00000000000E+00  0.00000000000E+00 -0.90534187629E+01  0.21956864889E+02  0.20003487807E+02 0.  0.
        -13    1    3    3    0    0 -0.39943979858E+01 -0.91688843899E+01 -0.45187638982E+01  0.10975156303E+02  0.10570000000E+00 0. -1.
         13    1    3    3    0    0  0.39943979858E+01  0.91688843899E+01 -0.45346548647E+01  0.10981708585E+02  0.10570000000E+00 0.  1.
<mgrwt>
<rscale>  0 0.20003488E+02</rscale>
<asrwt>0</asrwt>
<pdfrwt beam="2">  1        4 0.23854064E-02 0.20003488E+02</pdfrwt>
<pdfrwt beam="1">  1       -4 0.99257278E-03 0.20003488E+02</pdfrwt>
<totfact> 0.12894142E+06</totfact>
</mgrwt>
</event>
<event>
 5    1  0.4710515E-007  0.2000285E+02  0.7818608E-02  0.1745271E+00
         -4   -1    0    0    0  501 -0.00000000000E+00  0.00000000000E+00  0.21639340033E+02  0.21685881054E+02  0.14200000000E+01 0.  1.
          4   -1    0    0  501    0  0.00000000000E+00 -0.00000000000E+00 -0.44606190149E+01  0.46811880967E+01  0.14200000000E+01 0. -1.
       1023    2    1    2    0    0  0.00000000000E+00  0.00000000000E+00  0.17178721018E+02  0.26367069151E+02  0.20002846791E+02 0.  0.
        -13    1    3    3    0    0  0.13342001556E+01  0.99113783043E+01  0.86450910800E+01  0.13219844258E+02  0.10570000000E+00 0.  1.
         13    1    3    3    0    0 -0.13342001556E+01 -0.99113783043E+01  0.85336299385E+01  0.13147224892E+02  0.10570000000E+00 0. -1.
<mgrwt>
<rscale>  0 0.20002847E+02</rscale>
<asrwt>0</asrwt>
<pdfrwt beam="2">  1        4 0.70679600E-03 0.20002847E+02</pdfrwt>
<pdfrwt beam="1">  1       -4 0.33496762E-02 0.20002847E+02</pdfrwt>
<totfact> 0.12646349E+06</totfact>
</mgrwt>
</event>
<event>
 5    1  0.4710515E-007  0.2000282E+02  0.7818608E-02  0.1745272E+00
          4   -1    0    0  501    0  0.00000000000E+00  0.00000000000E+00  0.17572206662E+02  0.17629487995E+02  0.14200000000E+01 0.  1.
         -4   -1    0    0    0  501 -0.00000000000E+00 -0.00000000000E+00 -0.55361117035E+01  0.57153243822E+01  0.14200000000E+01 0. -1.
       1023    2    1    2    0    0  0.00000000000E+00  0.00000000000E+00  0.12036094958E+02  0.23344812377E+02  0.20002816879E+02 0.  0.
        -13    1    3    3    0    0  0.57454584723E+01  0.81857558474E+01  0.60300875825E+01  0.11678613813E+02  0.10570000000E+00 0.  1.
         13    1    3    3    0    0 -0.57454584723E+01 -0.81857558474E+01  0.60060073758E+01  0.11666198564E+02  0.10570000000E+00 0. -1.
<mgrwt>
<rscale>  0 0.20002817E+02</rscale>
<asrwt>0</asrwt>
<pdfrwt beam="1">  1        4 0.27216082E-02 0.20002817E+02</pdfrwt>
<pdfrwt beam="2">  1       -4 0.86990134E-03 0.20002817E+02</pdfrwt>
<totfact> 0.12815214E+06</totfact>
</mgrwt>
</event>
<event>
 5    1  0.4710515E-007  0.2000192E+02  0.7818608E-02  0.1745290E+00
         -4   -1    0    0    0  501 -0.00000000000E+00  0.00000000000E+00  0.20551988865E+01  0.24980477303E+01  0.14200000000E+01 0.  1.
          4   -1    0    0  501    0  0.00000000000E+00 -0.00000000000E+00 -0.43477587528E+02  0.43500770307E+02  0.14200000000E+01 0. -1.
       1023    2    1    2    0    0  0.00000000000E+00  0.00000000000E+00 -0.41422388642E+02  0.45998818037E+02  0.20001924408E+02 0.  0.
        -13    1    3    3    0    0  0.99959881952E+01  0.29556357910E+00 -0.20640885890E+02  0.22936095584E+02  0.10570000000E+00 0. -1.
         13    1    3    3    0    0 -0.99959881952E+01 -0.29556357910E+00 -0.20781502752E+02  0.23062722453E+02  0.10570000000E+00 0.  1.
<mgrwt>
<rscale>  0 0.20001924E+02</rscale>
<asrwt>0</asrwt>
<pdfrwt beam="2">  1        4 0.67247076E-02 0.20001924E+02</pdfrwt>
<pdfrwt beam="1">  1       -4 0.35203306E-03 0.20001924E+02</pdfrwt>
<totfact> 0.11689595E+06</totfact>
</mgrwt>
</event>
<event>
 4    1  0.4710515E-007  0.2005688E+02  0.7818608E-02  0.1744199E+00
          4   -1    0    0  501    0  0.00000000000E+00  0.00000000000E+00  0.24956201299E+02  0.24996567430E+02  0.14200000000E+01 0. -1.
         -4   -1    0    0    0  501 -0.00000000000E+00 -0.00000000000E+00 -0.38596577005E+01  0.41125852654E+01  0.14200000000E+01 0.  1.
        -13    1    1    2    0    0  0.66763963058E+01 -0.74785963336E+01  0.10208488677E+02  0.14308322205E+02  0.10570000000E+00 0. -1.
         13    1    1    2    0    0 -0.66763963058E+01  0.74785963336E+01  0.10888054922E+02  0.14800830491E+02  0.10570000000E+00 0.  1.
<mgrwt>
<rscale>  0 0.20056885E+02</rscale>
<asrwt>0</asrwt>
<pdfrwt beam="1">  1        4 0.38619767E-02 0.20056885E+02</pdfrwt>
<pdfrwt beam="2">  1       -4 0.61635454E-03 0.20056885E+02</pdfrwt>
<totfact> 0.12430534E+06</totfact>
</mgrwt>
</event>
<event>
 5    1  0.4710515E-007  0.2000259E+02  0.7818608E-02  0.1745277E+00
         -4   -1    0    0    0  501 -0.00000000000E+00  0.00000000000E+00  0.52966948467E+02  0.52985979560E+02  0.14200000000E+01 0. -1.
          4   -1    0    0  501    0  0.00000000000E+00 -0.00000000000E+00 -0.15993284395E+01  0.21387499754E+01  0.14200000000E+01 0.  1.
       1023    2    1    2    0    0  0.00000000000E+00  0.00000000000E+00  0.51367620028E+02  0.55124729536E+02  0.20002585309E+02 0.  0.
        -13    1    3    3    0    0  0.79326911399E+01  0.60894833940E+01  0.25483452766E+02  0.27375663171E+02  0.10570000000E+00 0.  1.
         13    1    3    3    0    0 -0.79326911399E+01 -0.60894833940E+01  0.25884167262E+02  0.27749066364E+02  0.10570000000E+00 0. -1.
<mgrwt>
<rscale>  0 0.20002585E+02</rscale>
<asrwt>0</asrwt>
<pdfrwt beam="2">  1        4 0.28900841E-03 0.20002585E+02</pdfrwt>
<pdfrwt beam="1">  1       -4 0.81917197E-02 0.20002585E+02</pdfrwt>
<totfact> 0.11306966E+06</totfact>
</mgrwt>
</event>
<event>
 5    1  0.4710515E-007  0.2000276E+02  0.7818608E-02  0.1745273E+00
         -4   -1    0    0    0  501 -0.00000000000E+00  0.00000000000E+00  0.47473629022E+02  0.47494861328E+02  0.14200000000E+01 0. -1.
          4   -1    0    0  501    0  0.00000000000E+00 -0.00000000000E+00 -0.18435113348E+01  0.23270010833E+01  0.14200000000E+01 0.  1.
       1023    2    1    2    0    0  0.00000000000E+00  0.00000000000E+00  0.45630117688E+02  0.49821862411E+02  0.20002758158E+02 0.  0.
        -13    1    3    3    0    0 -0.32244720223E+01  0.94663411132E+01  0.22598247715E+02  0.24712361404E+02  0.10570000000E+00 0. -1.
         13    1    3    3    0    0  0.32244720223E+01 -0.94663411132E+01  0.23031869973E+02  0.25109501007E+02  0.10570000000E+00 0.  1.
<mgrwt>
<rscale>  0 0.20002758E+02</rscale>
<asrwt>0</asrwt>
<pdfrwt beam="2">  1        4 0.32244189E-03 0.20002758E+02</pdfrwt>
<pdfrwt beam="1">  1       -4 0.73424603E-02 0.20002758E+02</pdfrwt>
<totfact> 0.11524508E+06</totfact>
</mgrwt>
</event>
<event>
 4    1  0.4710515E-007  0.2036379E+02  0.7818608E-02  0.1738189E+00
         -4   -1    0    0    0  501 -0.00000000000E+00  0.00000000000E+00  0.36829908094E+02  0.36857272420E+02  0.14200000000E+01 0.  1.
          4   -1    0    0  501    0  0.00000000000E+00 -0.00000000000E+00 -0.26054652240E+01  0.29672965867E+01  0.14200000000E+01 0.  1.
        -13    1    1    2    0    0  0.72320512329E+01  0.69905889374E+01  0.20197501312E+02  0.22563712692E+02  0.10570000000E+00 0.  1.
         13    1    1    2    0    0 -0.72320512329E+01 -0.69905889374E+01  0.14026941558E+02  0.17260856314E+02  0.10570000000E+00 0. -1.
<mgrwt>
<rscale>  0 0.20363787E+02</rscale>
<asrwt>0</asrwt>
<pdfrwt beam="2">  1        4 0.43077894E-03 0.20363787E+02</pdfrwt>
<pdfrwt beam="1">  1       -4 0.56960778E-02 0.20363787E+02</pdfrwt>
<totfact> 0.11540087E+06</totfact>
</mgrwt>
</event>
<event>
 4    1  0.4710515E-007  0.2005091E+02  0.7818608E-02  0.1744318E+00
          4   -1    0    0  501    0  0.00000000000E+00  0.00000000000E+00  0.43215870371E+00  0.14843049367E+01  0.14200000000E+01 0. -1.
         -4   -1    0    0    0  501 -0.00000000000E+00 -0.00000000000E+00 -0.10383120332E+03  0.10384091285E+03  0.14200000000E+01 0.  1.
        -13    1    1    2    0    0 -0.10007170371E+02  0.55184106395E+00 -0.50517808691E+02  0.51502506297E+02  0.10570000000E+00 0. -1.
         13    1    1    2    0    0  0.10007170371E+02 -0.55184106395E+00 -0.52881235921E+02  0.53822711493E+02  0.10570000000E+00 0.  1.
<mgrwt>
<rscale>  0 0.20050912E+02</rscale>
<asrwt>0</asrwt>
<pdfrwt beam="1">  1        4 0.14816725E-03 0.20050912E+02</pdfrwt>
<pdfrwt beam="2">  1       -4 0.16055704E-01 0.20050912E+02</pdfrwt>
<totfact> 0.96033794E+05</totfact>
</mgrwt>
</event>
<event>
 5    1  0.5400459E-007  0.2000383E+02  0.7818608E-02  0.1745252E+00
          4   -1    0    0  501    0  0.00000000000E+00  0.00000000000E+00  0.22736595919E+02  0.22780895373E+02  0.14200000000E+01 0. -1.
         -4   -1    0    0    0  501 -0.00000000000E+00 -0.00000000000E+00 -0.42353311263E+01  0.44670381406E+01  0.14200000000E+01 0.  1.
       1023    2    1    2    0    0  0.00000000000E+00  0.00000000000E+00  0.18501264793E+02  0.27247933514E+02  0.20003826680E+02 0.  0.
        -13    1    3    3    0    0 -0.99799823332E+01 -0.64630604809E+00  0.91189969906E+01  0.13534586713E+02  0.10570000000E+00 0. -1.
         13    1    3    3    0    0  0.99799823332E+01  0.64630604809E+00  0.93822678023E+01  0.13713346801E+02  0.10570000000E+00 0.  1.
<mgrwt>
<rscale>  0 0.20003827E+02</rscale>
<asrwt>0</asrwt>
<pdfrwt beam="1">  1        4 0.35191691E-02 0.20003827E+02</pdfrwt>
<pdfrwt beam="2">  1       -4 0.67282067E-03 0.20003827E+02</pdfrwt>
<totfact> 0.12597151E+06</totfact>
</mgrwt>
</event>
<event>
 5    1  0.4710515E-007  0.2000248E+02  0.7818608E-02  0.1745279E+00
          4   -1    0    0  501    0  0.00000000000E+00  0.00000000000E+00  0.45558833538E+01  0.47720512501E+01  0.14200000000E+01 0.  1.
         -4   -1    0    0    0  501 -0.00000000000E+00 -0.00000000000E+00 -0.21205819211E+02  0.21253309587E+02  0.14200000000E+01 0. -1.
       1023    2    1    2    0    0  0.00000000000E+00  0.00000000000E+00 -0.16649935857E+02  0.26025360837E+02  0.20002475913E+02 0.  0.
        -13    1    3    3    0    0  0.48534173360E+01  0.87434158279E+01 -0.84589756266E+01  0.13098412931E+02  0.10570000000E+00 0. -1.
         13    1    3    3    0    0 -0.48534173360E+01 -0.87434158279E+01 -0.81909602306E+01  0.12926947906E+02  0.10570000000E+00 0.  1.
<mgrwt>
<rscale>  0 0.20002476E+02</rscale>
<asrwt>0</asrwt>
<pdfrwt beam="1">  1        4 0.72118655E-03 0.20002476E+02</pdfrwt>
<pdfrwt beam="2">  1       -4 0.32827151E-02 0.20002476E+02</pdfrwt>
<totfact> 0.12665581E+06</totfact>
</mgrwt>
</event>
<event>
 5    1  0.4710515E-007  0.2000186E+02  0.7818608E-02  0.1745291E+00
         -4   -1    0    0    0  501 -0.00000000000E+00  0.00000000000E+00  0.16306538594E+01  0.21622747303E+01  0.14200000000E+01 0.  1.
          4   -1    0    0  501    0  0.00000000000E+00 -0.00000000000E+00 -0.52196872829E+02  0.52216184590E+02  0.14200000000E+01 0. -1.
       1023    2    1    2    0    0  0.00000000000E+00  0.00000000000E+00 -0.50566218969E+02  0.54378459320E+02  0.20001858343E+02 0.  0.
        -13    1    3    3    0    0 -0.87205752747E+01 -0.48943900062E+01 -0.25453436853E+02  0.27347616108E+02  0.10570000000E+00 0. -1.
         13    1    3    3    0    0  0.87205752747E+01  0.48943900062E+01 -0.25112782116E+02  0.27030843212E+02  0.10570000000E+00 0.  1.
<mgrwt>
<rscale>  0 0.20001858E+02</rscale>
<asrwt>0</asrwt>
<pdfrwt beam="2">  1        4 0.80726665E-02 0.20001858E+02</pdfrwt>
<pdfrwt beam="1">  1       -4 0.29324930E-03 0.20001858E+02</pdfrwt>
<totfact> 0.11337784E+06</totfact>
</mgrwt>
</event>
<event>
 4    1  0.4710515E-007  0.2003683E+02  0.7818608E-02  0.1744597E+00
          4   -1    0    0  501    0  0.00000000000E+00  0.00000000000E+00  0.17304301036E+02  0.17362466251E+02  0.14200000000E+01 0. -1.
         -4   -1    0    0    0  501 -0.00000000000E+00 -0.00000000000E+00 -0.56442246729E+01  0.58201092909E+01  0.14200000000E+01 0.  1.
        -13    1    1    2    0    0  0.63764459948E+01  0.77127858714E+01  0.52981899549E+01  0.11323785529E+02  0.10570000000E+00 0.  1.
         13    1    1    2    0    0 -0.63764459948E+01 -0.77127858714E+01  0.63618864078E+01  0.11858790013E+02  0.10570000000E+00 0. -1.
<mgrwt>
<rscale>  0 0.20036827E+02</rscale>
<asrwt>0</asrwt>
<pdfrwt beam="1">  1        4 0.26802039E-02 0.20036827E+02</pdfrwt>
<pdfrwt beam="2">  1       -4 0.88634611E-03 0.20036827E+02</pdfrwt>
<totfact> 0.12780120E+06</totfact>
</mgrwt>
</event>
<event>
 5    1  0.4710515E-007  0.2000138E+02  0.7818608E-02  0.1745301E+00
          4   -1    0    0  501    0  0.00000000000E+00  0.00000000000E+00  0.69299892643E+02  0.69314439479E+02  0.14200000000E+01 0. -1.
         -4   -1    0    0    0  501 -0.00000000000E+00 -0.00000000000E+00 -0.10755715340E+01  0.17813629963E+01  0.14200000000E+01 0.  1.
       1023    2    1    2    0    0  0.00000000000E+00  0.00000000000E+00  0.68224321109E+02  0.71095802475E+02  0.20001378424E+02 0.  0.
        -13    1    3    3    0    0  0.80324957811E+01 -0.59565717373E+01  0.34217418912E+02  0.35648908326E+02  0.10570000000E+00 0.  1.
         13    1    3    3    0    0 -0.80324957811E+01  0.59565717373E+01  0.34006902197E+02  0.35446894150E+02  0.10570000000E+00 0. -1.
<mgrwt>
<rscale>  0 0.20001378E+02</rscale>
<asrwt>0</asrwt>
<pdfrwt beam="1">  1        4 0.10716935E-01 0.20001378E+02</pdfrwt>
<pdfrwt beam="2">  1       -4 0.22088314E-03 0.20001378E+02</pdfrwt>
<totfact> 0.10710803E+06</totfact>
</mgrwt>
</event>
<event>
 5    1  0.4897746E-007  0.2000307E+02  0.7818608E-02  0.1745267E+00
          4   -1    0    0  501    0  0.00000000000E+00  0.00000000000E+00  0.61315784162E+01  0.62938584251E+01  0.14200000000E+01 0.  1.
         -4   -1    0    0    0  501 -0.00000000000E+00 -0.00000000000E+00 -0.15906636796E+02  0.15969893367E+02  0.14200000000E+01 0. -1.
       1023    2    1    2    0    0  0.00000000000E+00  0.00000000000E+00 -0.97750583796E+01  0.22263751792E+02  0.20003071703E+02 0.  0.
        -13    1    3    3    0    0 -0.82592570516E+01 -0.56388457712E+01 -0.47902549848E+01  0.11089166965E+02  0.10570000000E+00 0.  1.
         13    1    3    3    0    0  0.82592570516E+01  0.56388457712E+01 -0.49848033948E+01  0.11174584827E+02  0.10570000000E+00 0. -1.
<mgrwt>
<rscale>  0 0.20003072E+02</rscale>
<asrwt>0</asrwt>
<pdfrwt beam="1">  1        4 0.96066873E-03 0.20003072E+02</pdfrwt>
<pdfrwt beam="2">  1       -4 0.24645238E-02 0.20003072E+02</pdfrwt>
<totfact> 0.12876911E+06</totfact>
</mgrwt>
</event>
<event>
 5    1  0.4710515E-007  0.2000178E+02  0.7818608E-02  0.1745293E+00
         -4   -1    0    0    0  501 -0.00000000000E+00  0.00000000000E+00  0.71193567665E+01  0.72595895730E+01  0.14200000000E+01 0. -1.
          4   -1    0    0  501    0  0.00000000000E+00 -0.00000000000E+00 -0.13734505496E+02  0.13807716727E+02  0.14200000000E+01 0.  1.
       1023    2    1    2    0    0  0.00000000000E+00  0.00000000000E+00 -0.66151487296E+01  0.21067306300E+02  0.20001779972E+02 0.  0.
        -13    1    3    3    0    0  0.83722726903E+01  0.54691211103E+01 -0.32867126803E+01  0.10527102567E+02  0.10570000000E+00 0. -1.
         13    1    3    3    0    0 -0.83722726903E+01 -0.54691211103E+01 -0.33284360493E+01  0.10540203734E+02  0.10570000000E+00 0.  1.
<mgrwt>
<rscale>  0 0.20001780E+02</rscale>
<asrwt>0</asrwt>
<pdfrwt beam="2">  1        4 0.21294196E-02 0.20001780E+02</pdfrwt>
<pdfrwt beam="1">  1       -4 0.11117044E-02 0.20001780E+02</pdfrwt>
<totfact> 0.12948428E+06</totfact>
</mgrwt>
</event>
<event>
 5    1  0.4710515E-007  0.2000457E+02  0.7818608E-02  0.1745237E+00
         -4   -1    0    0    0  501 -0.00000000000E+00  0.00000000000E+00  0.16552572106E+01  0.21808889089E+01  0.14200000000E+01 0. -1.
          4   -1    0    0  501    0  0.00000000000E+00 -0.00000000000E+00 -0.51622740096E+02  0.51642266556E+02  0.14200000000E+01 0.  1.
       1023    2    1    2    0    0  0.00000000000E+00  0.00000000000E+00 -0.49967482886E+02  0.53823155465E+02  0.20004567435E+02 0.  0.
        -13    1    3    3    0    0 -0.97991226937E+01  0.20022689146E+01 -0.24846004878E+02  0.26783708056E+02  0.10570000000E+00 0.  1.
         13    1    3    3    0    0  0.97991226937E+01 -0.20022689146E+01 -0.25121478008E+02  0.27039447409E+02  0.10570000000E+00 0. -1.
<mgrwt>
<rscale>  0 0.20004567E+02</rscale>
<asrwt>0</asrwt>
<pdfrwt beam="2">  1        4 0.79838942E-02 0.20004567E+02</pdfrwt>
<pdfrwt beam="1">  1       -4 0.29659024E-03 0.20004567E+02</pdfrwt>
<totfact> 0.11357135E+06</totfact>
</mgrwt>
</event>
<event>
 4    1  0.4710515E-007  0.2001403E+02  0.7818608E-02  0.1745049E+00
          4   -1    0    0  501    0  0.00000000000E+00  0.00000000000E+00  0.60798263249E+01  0.62434516208E+01  0.14200000000E+01 0. -1.
         -4   -1    0    0    0  501 -0.00000000000E+00 -0.00000000000E+00 -0.16056853585E+02  0.16119520683E+02  0.14200000000E+01 0.  1.
        -13    1    1    2    0    0 -0.99220178374E+01 -0.12894082444E+01 -0.51472433524E+01  0.11252301907E+02  0.10570000000E+00 0.  1.
         13    1    1    2    0    0  0.99220178374E+01  0.12894082444E+01 -0.48297839081E+01  0.11110670397E+02  0.10570000000E+00 0. -1.
<mgrwt>
<rscale>  0 0.20014032E+02</rscale>
<asrwt>0</asrwt>
<pdfrwt beam="1">  1        4 0.95276501E-03 0.20014032E+02</pdfrwt>
<pdfrwt beam="2">  1       -4 0.24876923E-02 0.20014032E+02</pdfrwt>
<totfact> 0.12856810E+06</totfact>
</mgrwt>
</event>
<event>
 5    1  0.4710515E-007  0.2000281E+02  0.7818608E-02  0.1745272E+00
         -4   -1    0    0    0  501 -0.00000000000E+00  0.00000000000E+00  0.11023390583E+02  0.11114474344E+02  0.14200000000E+01 0.  1.
          4   -1    0    0  501    0  0.00000000000E+00 -0.00000000000E+00 -0.88891678883E+01  0.90018723467E+01  0.14200000000E+01 0. -1.
       1023    2    1    2    0    0  0.00000000000E+00  0.00000000000E+00  0.21342226949E+01  0.20116346691E+02  0.20002812244E+02 0.  0.
        -13    1    3    3    0    0  0.54265396940E+01 -0.84002392092E+01  0.11423699710E+01  0.10066157830E+02  0.10570000000E+00 0.  1.
         13    1    3    3    0    0 -0.54265396940E+01  0.84002392092E+01  0.99185272389E+00  0.10050188861E+02  0.10570000000E+00 0. -1.
<mgrwt>
<rscale>  0 0.20002812E+02</rscale>
<asrwt>0</asrwt>
<pdfrwt beam="2">  1        4 0.13832403E-02 0.20002812E+02</pdfrwt>
<pdfrwt beam="1">  1       -4 0.17115823E-02 0.20002812E+02</pdfrwt>
<totfact> 0.13003408E+06</totfact>
</mgrwt>
</event>
<event>
 5    1  0.4710515E-007  0.2000169E+02  0.7818608E-02  0.1745295E+00
          4   -1    0    0  501    0  0.00000000000E+00  0.00000000000E+00  0.28521322809E+01  0.31860725898E+01  0.14200000000E+01 0. -1.
         -4   -1    0    0    0  501 -0.00000000000E+00 -0.00000000000E+00 -0.32777856153E+02  0.32808600305E+02  0.14200000000E+01 0.  1.
       1023    2    1    2    0    0  0.00000000000E+00  0.00000000000E+00 -0.29925723872E+02  0.35994672895E+02  0.20001688117E+02 0.  0.
        -13    1    3    3    0    0  0.75079531163E+01  0.66057738992E+01 -0.14980910854E+02  0.18012342194E+02  0.10570000000E+00 0.  1.
         13    1    3    3    0    0 -0.75079531163E+01 -0.66057738992E+01 -0.14944813017E+02  0.17982330700E+02  0.10570000000E+00 0. -1.
<mgrwt>
<rscale>  0 0.20001688E+02</rscale>
<asrwt>0</asrwt>
<pdfrwt beam="1">  1        4 0.46684226E-03 0.20001688E+02</pdfrwt>
<pdfrwt beam="2">  1       -4 0.50707995E-02 0.20001688E+02</pdfrwt>
<totfact> 0.12151190E+06</totfact>
</mgrwt>
</event>
<event>
 4    1  0.7121651E-007  0.2073667E+02  0.7818608E-02  0.1731063E+00
          4   -1    0    0  501    0  0.00000000000E+00  0.00000000000E+00  0.33316711975E+01  0.36216616308E+01  0.14200000000E+01 0.  1.
         -4   -1    0    0    0  501 -0.00000000000E+00 -0.00000000000E+00 -0.30613977655E+02  0.30646892630E+02  0.14200000000E+01 0. -1.
        -13    1    1    2    0    0 -0.98836976780E+01  0.23450677228E+01 -0.17069721938E+02  0.19863871777E+02  0.10570000000E+00 0. -1.
         13    1    1    2    0    0  0.98836976780E+01 -0.23450677228E+01 -0.10212584519E+02  0.14404682484E+02  0.10570000000E+00 0.  1.
<mgrwt>
<rscale>  0 0.20736672E+02</rscale>
<asrwt>0</asrwt>
<pdfrwt beam="1">  1        4 0.53740370E-03 0.20736672E+02</pdfrwt>
<pdfrwt beam="2">  1       -4 0.47346814E-02 0.20736672E+02</pdfrwt>
<totfact> 0.11365416E+06</totfact>
</mgrwt>
</event>
<event>
 5    1  0.4715977E-007  0.2000387E+02  0.7818608E-02  0.1745251E+00
          4   -1    0    0  501    0  0.00000000000E+00  0.00000000000E+00  0.53652304449E+01  0.55499637590E+01  0.14200000000E+01 0. -1.
         -4   -1    0    0    0  501 -0.00000000000E+00 -0.00000000000E+00 -0.18117194764E+02  0.18172758352E+02  0.14200000000E+01 0.  1.
       1023    2    1    2    0    0  0.00000000000E+00  0.00000000000E+00 -0.12751964319E+02  0.23722722111E+02  0.20003873384E+02 0.  0.
        -13    1    3    3    0    0  0.22264467419E+01  0.97503474407E+01 -0.63344790331E+01  0.11839051373E+02  0.10570000000E+00 0.  1.
         13    1    3    3    0    0 -0.22264467419E+01 -0.97503474407E+01 -0.64174852856E+01  0.11883670737E+02  0.10570000000E+00 0. -1.
<mgrwt>
<rscale>  0 0.20003873E+02</rscale>
<asrwt>0</asrwt>
<pdfrwt beam="1">  1        4 0.84390446E-03 0.20003873E+02</pdfrwt>
<pdfrwt beam="2">  1       -4 0.28057451E-02 0.20003873E+02</pdfrwt>
<totfact> 0.12792383E+06</totfact>
</mgrwt>
</event>
<event>
 4    1  0.4710515E-007  0.2036333E+02  0.7818608E-02  0.1738198E+00
         -4   -1    0    0    0  501 -0.00000000000E+00  0.00000000000E+00  0.17551767858E+01  0.22576637370E+01  0.14200000000E+01 0. -1.
          4   -1    0    0  501    0  0.00000000000E+00 -0.00000000000E+00 -0.51153739362E+02  0.51173444780E+02  0.14200000000E+01 0.  1.
        -13    1    1    2    0    0 -0.17095298974E+01 -0.99616164260E+01 -0.21486891670E+02  0.23745609708E+02  0.10570000000E+00 0. -1.
         13    1    1    2    0    0  0.17095298974E+01  0.99616164260E+01 -0.27911670906E+02  0.29685498809E+02  0.10570000000E+00 0.  1.
<mgrwt>
<rscale>  0 0.20363334E+02</rscale>
<asrwt>0</asrwt>
<pdfrwt beam="2">  1        4 0.79099737E-02 0.20363334E+02</pdfrwt>
<pdfrwt beam="1">  1       -4 0.31019588E-03 0.20363334E+02</pdfrwt>
<totfact> 0.10971170E+06</totfact>
</mgrwt>
</event>
<event>
 4    1  0.5601420E-007  0.2080210E+02  0.7818608E-02  0.1729832E+00
         -4   -1    0    0    0  501 -0.00000000000E+00  0.00000000000E+00  0.96847282352E+01  0.97882767120E+01  0.14200000000E+01 0.  1.
          4   -1    0    0  501    0  0.00000000000E+00 -0.00000000000E+00 -0.10961367118E+02  0.11052962006E+02  0.14200000000E+01 0. -1.
        -13    1    1    2    0    0 -0.10341949452E+02  0.41294079649E+00 -0.16621251089E+01  0.10483333007E+02  0.10570000000E+00 0. -1.
         13    1    1    2    0    0  0.10341949452E+02 -0.41294079649E+00  0.38548622611E+00  0.10357905710E+02  0.10570000000E+00 0.  1.
<mgrwt>
<rscale>  0 0.20802101E+02</rscale>
<asrwt>0</asrwt>
<pdfrwt beam="2">  1        4 0.17013752E-02 0.20802101E+02</pdfrwt>
<pdfrwt beam="1">  1       -4 0.15049692E-02 0.20802101E+02</pdfrwt>
<totfact> 0.11955805E+06</totfact>
</mgrwt>
</event>
<event>
 4    1  0.4710515E-007  0.2001461E+02  0.7818608E-02  0.1745038E+00
          4   -1    0    0  501    0  0.00000000000E+00  0.00000000000E+00  0.66246428532E+00  0.15669265871E+01  0.14200000000E+01 0. -1.
         -4   -1    0    0    0  501 -0.00000000000E+00 -0.00000000000E+00 -0.88929254551E+02  0.88940590930E+02  0.14200000000E+01 0.  1.
        -13    1    1    2    0    0  0.89648593478E+01 -0.44367435977E+01 -0.45424733828E+02  0.46513127316E+02  0.10570000000E+00 0. -1.
         13    1    1    2    0    0 -0.89648593478E+01  0.44367435977E+01 -0.42842056438E+02  0.43994390201E+02  0.10570000000E+00 0.  1.
<mgrwt>
<rscale>  0 0.20014606E+02</rscale>
<asrwt>0</asrwt>
<pdfrwt beam="1">  1        4 0.17236371E-03 0.20014606E+02</pdfrwt>
<pdfrwt beam="2">  1       -4 0.13751864E-01 0.20014606E+02</pdfrwt>
<totfact> 0.10065580E+06</totfact>
</mgrwt>
</event>
<event>
 5    1  0.4710515E-007  0.2001190E+02  0.7818608E-02  0.1745092E+00
          4   -1    0    0  501    0  0.00000000000E+00  0.00000000000E+00  0.42423274291E+01  0.44736720953E+01  0.14200000000E+01 0.  1.
         -4   -1    0    0    0  501 -0.00000000000E+00 -0.00000000000E+00 -0.22719525530E+02  0.22763858204E+02  0.14200000000E+01 0. -1.
       1023    2    1    2    0    0  0.00000000000E+00  0.00000000000E+00 -0.18477198101E+02  0.27237530299E+02  0.20011901637E+02 0.  0.
        -13    1    3    3    0    0 -0.95160318985E+01 -0.30864820353E+01 -0.90164287782E+01  0.13468050893E+02  0.10570000000E+00 0. -1.
         13    1    3    3    0    0  0.95160318985E+01  0.30864820353E+01 -0.94607693231E+01  0.13769479406E+02  0.10570000000E+00 0.  1.
<mgrwt>
<rscale>  0 0.20011902E+02</rscale>
<asrwt>0</asrwt>
<pdfrwt beam="1">  1        4 0.67387172E-03 0.20011902E+02</pdfrwt>
<pdfrwt beam="2">  1       -4 0.35165175E-02 0.20011902E+02</pdfrwt>
<totfact> 0.12587373E+06</totfact>
</mgrwt>
</event>
<event>
 4    1  0.4710515E-007  0.2002258E+02  0.7818608E-02  0.1744879E+00
         -4   -1    0    0    0  501 -0.00000000000E+00  0.00000000000E+00  0.85489479447E+01  0.86660781765E+01  0.14200000000E+01 0.  1.
          4   -1    0    0  501    0  0.00000000000E+00 -0.00000000000E+00 -0.11482848783E+02  0.11570316165E+02  0.14200000000E+01 0. -1.
        -13    1    1    2    0    0  0.95581842088E+01  0.29699938283E+01 -0.16561640494E+01  0.10145629628E+02  0.10570000000E+00 0.  1.
         13    1    1    2    0    0 -0.95581842088E+01 -0.29699938283E+01 -0.12777367886E+01  0.10090764713E+02  0.10570000000E+00 0. -1.
<mgrwt>
<rscale>  0 0.20022584E+02</rscale>
<asrwt>0</asrwt>
<pdfrwt beam="2">  1        4 0.17823304E-02 0.20022584E+02</pdfrwt>
<pdfrwt beam="1">  1       -4 0.13309610E-02 0.20022584E+02</pdfrwt>
<totfact> 0.12970058E+06</totfact>
</mgrwt>
</event>
<event>
 5    1  0.4851499E-007  0.2000169E+02  0.7818608E-02  0.1745294E+00
         -4   -1    0    0    0  501 -0.00000000000E+00  0.00000000000E+00  0.75653217556E+02  0.75666542980E+02  0.14200000000E+01 0. -1.
          4   -1    0    0  501    0  0.00000000000E+00 -0.00000000000E+00 -0.92333892651E+00  0.16937989176E+01  0.14200000000E+01 0.  1.
       1023    2    1    2    0    0  0.00000000000E+00  0.00000000000E+00  0.74729878630E+02  0.77360341898E+02  0.20001693392E+02 0.  0.
        -13    1    3    3    0    0 -0.30365185044E+01 -0.95278577122E+01  0.37084833645E+02  0.38409589638E+02  0.10570000000E+00 0.  1.
         13    1    3    3    0    0  0.30365185044E+01  0.95278577122E+01  0.37645044984E+02  0.38950752259E+02  0.10570000000E+00 0. -1.
<mgrwt>
<rscale>  0 0.20001693E+02</rscale>
<asrwt>0</asrwt>
<pdfrwt beam="2">  1        4 0.20234331E-03 0.20001693E+02</pdfrwt>
<pdfrwt beam="1">  1       -4 0.11699249E-01 0.20001693E+02</pdfrwt>
<totfact> 0.10496519E+06</totfact>
</mgrwt>
</event>
<event>
 5    1  0.4846408E-007  0.2000212E+02  0.7818608E-02  0.1745286E+00
          4   -1    0    0  501    0  0.00000000000E+00  0.00000000000E+00  0.70594083654E+01  0.72008087372E+01  0.14200000000E+01 0.  1.
         -4   -1    0    0    0  501 -0.00000000000E+00 -0.00000000000E+00 -0.13849945080E+02  0.13922549290E+02  0.14200000000E+01 0. -1.
       1023    2    1    2    0    0  0.00000000000E+00  0.00000000000E+00 -0.67905367151E+01  0.21123358027E+02  0.20002121524E+02 0.  0.
        -13    1    3    3    0    0  0.66320238378E+01 -0.74844646558E+01 -0.34959681876E+01  0.10594051039E+02  0.10570000000E+00 0. -1.
         13    1    3    3    0    0 -0.66320238378E+01  0.74844646558E+01 -0.32945685275E+01  0.10529306988E+02  0.10570000000E+00 0.  1.
<mgrwt>
<rscale>  0 0.20002122E+02</rscale>
<asrwt>0</asrwt>
<pdfrwt beam="1">  1        4 0.11025247E-02 0.20002122E+02</pdfrwt>
<pdfrwt beam="2">  1       -4 0.21472227E-02 0.20002122E+02</pdfrwt>
<totfact> 0.12944675E+06</totfact>
</mgrwt>
</event>
<event>
 5    1  0.4799949E-007  0.2000181E+02  0.7818608E-02  0.1745292E+00
         -4   -1    0    0    0  501 -0.00000000000E+00  0.00000000000E+00  0.16621111435E+02  0.16681658951E+02  0.14200000000E+01 0. -1.
          4   -1    0    0  501    0  0.00000000000E+00 -0.00000000000E+00 -0.58611084292E+01  0.60306709426E+01  0.14200000000E+01 0.  1.
       1023    2    1    2    0    0  0.00000000000E+00  0.00000000000E+00  0.10760003006E+02  0.22712329893E+02  0.20001806531E+02 0.  0.
        -13    1    3    3    0    0 -0.16751142287E+01  0.98590215526E+01  0.53526552501E+01  0.11343209615E+02  0.10570000000E+00 0.  1.
         13    1    3    3    0    0  0.16751142287E+01 -0.98590215526E+01  0.54073477559E+01  0.11369120278E+02  0.10570000000E+00 0. -1.
<mgrwt>
<rscale>  0 0.20001807E+02</rscale>
<asrwt>0</asrwt>
<pdfrwt beam="2">  1        4 0.91940977E-03 0.20001807E+02</pdfrwt>
<pdfrwt beam="1">  1       -4 0.25747948E-02 0.20001807E+02</pdfrwt>
<totfact> 0.12852709E+06</totfact>
</mgrwt>
</event>
<event>
 4    1  0.4710515E-007  0.2004038E+02  0.7818608E-02  0.1744526E+00
         -4   -1    0    0    0  501 -0.00000000000E+00  0.00000000000E+00  0.67031983879E+01  0.68519536358E+01  0.14200000000E+01 0.  1.
          4   -1    0    0  501    0  0.00000000000E+00 -0.00000000000E+00 -0.14630667351E+02  0.14699415877E+02  0.14200000000E+01 0. -1.
        -13    1    1    2    0    0 -0.65386675610E+01 -0.75857047011E+01 -0.36306577713E+01  0.10653165615E+02  0.10570000000E+00 0. -1.
         13    1    1    2    0    0  0.65386675610E+01  0.75857047011E+01 -0.42968111914E+01  0.10898203897E+02  0.10570000000E+00 0.  1.
<mgrwt>
<rscale>  0 0.20040378E+02</rscale>
<asrwt>0</asrwt>
<pdfrwt beam="2">  1        4 0.22676030E-02 0.20040378E+02</pdfrwt>
<pdfrwt beam="1">  1       -4 0.10479923E-02 0.20040378E+02</pdfrwt>
<totfact> 0.12869292E+06</totfact>
</mgrwt>
</event>
<event>
 5    1  0.4710515E-007  0.2000154E+02  0.7818608E-02  0.1745297E+00
          4   -1    0    0  501    0  0.00000000000E+00  0.00000000000E+00  0.13597108304E+01  0.19660146343E+01  0.14200000000E+01 0. -1.
         -4   -1    0    0    0  501 -0.00000000000E+00 -0.00000000000E+00 -0.59530199329E+02  0.59547132863E+02  0.14200000000E+01 0.  1.
       1023    2    1    2    0    0  0.00000000000E+00  0.00000000000E+00 -0.58170488499E+02  0.61513147497E+02  0.20001539511E+02 0.  0.
        -13    1    3    3    0    0 -0.57679986673E+01  0.81689766617E+01 -0.29230633413E+02  0.30894062383E+02  0.10570000000E+00 0. -1.
         13    1    3    3    0    0  0.57679986673E+01 -0.81689766617E+01 -0.28939855086E+02  0.30619085114E+02  0.10570000000E+00 0.  1.
<mgrwt>
<rscale>  0 0.20001540E+02</rscale>
<asrwt>0</asrwt>
<pdfrwt beam="1">  1        4 0.25712766E-03 0.20001540E+02</pdfrwt>
<pdfrwt beam="2">  1       -4 0.92064319E-02 0.20001540E+02</pdfrwt>
<totfact> 0.11059428E+06</totfact>
</mgrwt>
</event>
<event>
 5    1  0.4710515E-007  0.2000392E+02  0.7818608E-02  0.1745250E+00
          4   -1    0    0  501    0  0.00000000000E+00  0.00000000000E+00  0.26856666315E+02  0.26894180143E+02  0.14200000000E+01 0.  1.
         -4   -1    0    0    0  501 -0.00000000000E+00 -0.00000000000E+00 -0.35479124780E+01  0.38215288762E+01  0.14200000000E+01 0. -1.
       1023    2    1    2    0    0  0.00000000000E+00  0.00000000000E+00  0.23308753837E+02  0.30715709019E+02  0.20003918994E+02 0.  0.
        -13    1    3    3    0    0  0.99990444333E+01 -0.20273561085E+00  0.11535142013E+02  0.15267372566E+02  0.10570000000E+00 0.  1.
         13    1    3    3    0    0 -0.99990444333E+01  0.20273561085E+00  0.11773611824E+02  0.15448336453E+02  0.10570000000E+00 0. -1.
<mgrwt>
<rscale>  0 0.20003919E+02</rscale>
<asrwt>0</asrwt>
<pdfrwt beam="1">  1        4 0.41557279E-02 0.20003919E+02</pdfrwt>
<pdfrwt beam="2">  1       -4 0.56976579E-03 0.20003919E+02</pdfrwt>
<totfact> 0.12413584E+06</totfact>
</mgrwt>
</event>
<event>
 4    1  0.4710515E-007  0.2004708E+02  0.7818608E-02  0.1744393E+00
          4   -1    0    0  501    0  0.00000000000E+00  0.00000000000E+00  0.15902099540E+02  0.15965374088E+02  0.14200000000E+01 0. -1.
         -4   -1    0    0    0  501 -0.00000000000E+00 -0.00000000000E+00 -0.61613821910E+01  0.63228973187E+01  0.14200000000E+01 0.  1.
        -13    1    1    2    0    0 -0.26922699708E+01  0.96354014584E+01  0.55474742330E+01  0.11440057767E+02  0.10570000000E+00 0.  1.
         13    1    1    2    0    0  0.26922699708E+01 -0.96354014584E+01  0.41932431161E+01  0.10848213640E+02  0.10570000000E+00 0. -1.
<mgrwt>
<rscale>  0 0.20047081E+02</rscale>
<asrwt>0</asrwt>
<pdfrwt beam="1">  1        4 0.24637684E-02 0.20047081E+02</pdfrwt>
<pdfrwt beam="2">  1       -4 0.96519647E-03 0.20047081E+02</pdfrwt>
<totfact> 0.12817902E+06</totfact>
</mgrwt>
</event>
<event>
 5    1  0.4738688E-007  0.2000126E+02  0.7818608E-02  0.1745303E+00
          4   -1    0    0  501    0  0.00000000000E+00  0.00000000000E+00  0.59350217752E+01  0.61025309071E+01  0.14200000000E+01 0.  1.
         -4   -1    0    0    0  501 -0.00000000000E+00 -0.00000000000E+00 -0.16418192247E+02  0.16479485327E+02  0.14200000000E+01 0. -1.
       1023    2    1    2    0    0  0.00000000000E+00  0.00000000000E+00 -0.10483170472E+02  0.22582016235E+02  0.20001264812E+02 0.  0.
        -13    1    3    3    0    0  0.62083826696E+01 -0.78394801867E+01 -0.52453399576E+01  0.11292751159E+02  0.10570000000E+00 0.  1.
         13    1    3    3    0    0 -0.62083826696E+01  0.78394801867E+01 -0.52378305141E+01  0.11289265076E+02  0.10570000000E+00 0. -1.
<mgrwt>
<rscale>  0 0.20001265E+02</rscale>
<asrwt>0</asrwt>
<pdfrwt beam="1">  1        4 0.93068046E-03 0.20001265E+02</pdfrwt>
<pdfrwt beam="2">  1       -4 0.25434759E-02 0.20001265E+02</pdfrwt>
<totfact> 0.12860915E+06</totfact>
</mgrwt>
</event>
<event>
 5    1  0.4710515E-007  0.2000743E+02  0.7818608E-02  0.1745180E+00
         -4   -1    0    0    0  501 -0.00000000000E+00  0.00000000000E+00  0.54347245657E+02  0.54365793570E+02  0.14200000000E+01 0.  1.
          4   -1    0    0  501    0  0.00000000000E+00 -0.00000000000E+00 -0.15458755321E+01  0.20990786457E+01  0.14200000000E+01 0. -1.
       1023    2    1    2    0    0  0.00000000000E+00  0.00000000000E+00  0.52801370125E+02  0.56464872216E+02  0.20007426303E+02 0.  0.
        -13    1    3    3    0    0 -0.96180522895E+01  0.27409518073E+01  0.26988336934E+02  0.28781960489E+02  0.10570000000E+00 0. -1.
         13    1    3    3    0    0  0.96180522895E+01 -0.27409518073E+01  0.25813033191E+02  0.27682911727E+02  0.10570000000E+00 0.  1.
<mgrwt>
<rscale>  0 0.20007426E+02</rscale>
<asrwt>0</asrwt>
<pdfrwt beam="2">  1        4 0.28180786E-03 0.20007426E+02</pdfrwt>
<pdfrwt beam="1">  1       -4 0.84050953E-02 0.20007426E+02</pdfrwt>
<totfact> 0.11248146E+06</totfact>
</mgrwt>
</event>
<event>
 4    1  0.4710515E-007  0.2009772E+02  0.7818608E-02  0.1743392E+00
         -4   -1    0    0    0  501 -0.00000000000E+00  0.00000000000E+00  0.53070694656E+02  0.53089688559E+02  0.14200000000E+01 0. -1.
          4   -1    0    0  501    0  0.00000000000E+00 -0.00000000000E+00 -0.16156946954E+01  0.21510158876E+01  0.14200000000E+01 0.  1.
        -13    1    1    2    0    0 -0.23380044140E+01  0.97344321681E+01  0.28096719551E+02  0.29827206646E+02  0.10570000000E+00 0. -1.
         13    1    1    2    0    0  0.23380044140E+01 -0.97344321681E+01  0.23358280410E+02  0.25413497801E+02  0.10570000000E+00 0.  1.
<mgrwt>
<rscale>  0 0.20097721E+02</rscale>
<asrwt>0</asrwt>
<pdfrwt beam="2">  1        4 0.29120808E-03 0.20097721E+02</pdfrwt>
<pdfrwt beam="1">  1       -4 0.82073606E-02 0.20097721E+02</pdfrwt>
<totfact> 0.11194735E+06</totfact>
</mgrwt>
</event>
<event>
 5    1  0.4710515E-007  0.2000171E+02  0.7818608E-02  0.1745294E+00
         -4   -1    0    0    0  501 -0.00000000000E+00  0.00000000000E+00  0.52112287668E+02  0.52131630763E+02  0.14200000000E+01 0.  1.
          4   -1    0    0  501    0  0.00000000000E+00 -0.00000000000E+00 -0.16341282160E+01  0.21648960775E+01  0.14200000000E+01 0. -1.
       1023    2    1    2    0    0  0.00000000000E+00  0.00000000000E+00  0.50478159452E+02  0.54296526840E+02  0.20001706059E+02 0.  0.
        -13    1    3    3    0    0  0.86892967406E+01 -0.49498455174E+01  0.25151522634E+02  0.27066863723E+02  0.10570000000E+00 0. -1.
         13    1    3    3    0    0 -0.86892967406E+01  0.49498455174E+01  0.25326636818E+02  0.27229663117E+02  0.10570000000E+00 0.  1.
<mgrwt>
<rscale>  0 0.20001706E+02</rscale>
<asrwt>0</asrwt>
<pdfrwt beam="2">  1        4 0.29372059E-03 0.20001706E+02</pdfrwt>
<pdfrwt beam="1">  1       -4 0.80595906E-02 0.20001706E+02</pdfrwt>
<totfact> 0.11341263E+06</totfact>
</mgrwt>
</event>
<event>
 5    1  0.4710515E-007  0.2000344E+02  0.7818608E-02  0.1745260E+00
         -4   -1    0    0    0  501 -0.00000000000E+00  0.00000000000E+00  0.47470707140E+01  0.49549046775E+01  0.14200000000E+01 0. -1.
          4   -1    0    0  501    0  0.00000000000E+00 -0.00000000000E+00 -0.20388391533E+02  0.20437781419E+02  0.14200000000E+01 0.  1.
       1023    2    1    2    0    0  0.00000000000E+00  0.00000000000E+00 -0.15641320819E+02  0.25392686096E+02  0.20003439459E+02 0.  0.
        -13    1    3    3    0    0 -0.88238260375E-01  0.10000708897E+02 -0.77755895341E+01  0.12668580407E+02  0.10570000000E+00 0.  1.
         13    1    3    3    0    0  0.88238260375E-01 -0.10000708897E+02 -0.78657312854E+01  0.12724105689E+02  0.10570000000E+00 0. -1.
<mgrwt>
<rscale>  0 0.20003439E+02</rscale>
<asrwt>0</asrwt>
<pdfrwt beam="2">  1        4 0.31564620E-02 0.20003439E+02</pdfrwt>
<pdfrwt beam="1">  1       -4 0.75010503E-03 0.20003439E+02</pdfrwt>
<totfact> 0.12699292E+06</totfact>
</mgrwt>
</event>
<event>
 5    1  0.4931883E-007  0.2000750E+02  0.7818608E-02  0.1745179E+00
          4   -1    0    0  501    0  0.00000000000E+00  0.00000000000E+00  0.69977023121E+01  0.71403247579E+01  0.14200000000E+01 0. -1.
         -4   -1    0    0    0  501 -0.00000000000E+00 -0.00000000000E+00 -0.13977902244E+02  0.14049845236E+02  0.14200000000E+01 0.  1.
       1023    2    1    2    0    0  0.00000000000E+00  0.00000000000E+00 -0.69801999321E+01  0.21190169994E+02  0.20007501425E+02 0.  0.
        -13    1    3    3    0    0  0.33340098912E+01  0.94289064086E+01 -0.32680454484E+01  0.10521938584E+02  0.10570000000E+00 0. -1.
         13    1    3    3    0    0 -0.33340098912E+01 -0.94289064086E+01 -0.37121544837E+01  0.10668231410E+02  0.10570000000E+00 0.  1.
<mgrwt>
<rscale>  0 0.20007501E+02</rscale>
<asrwt>0</asrwt>
<pdfrwt beam="1">  1        4 0.10930746E-02 0.20007501E+02</pdfrwt>
<pdfrwt beam="2">  1       -4 0.21669515E-02 0.20007501E+02</pdfrwt>
<totfact> 0.12933645E+06</totfact>
</mgrwt>
</event>
<event>
 4    1  0.4710515E-007  0.2001704E+02  0.7818608E-02  0.1744989E+00
         -4   -1    0    0    0  501 -0.00000000000E+00  0.00000000000E+00  0.19374709988E+01  0.24021227844E+01  0.14200000000E+01 0. -1.
          4   -1    0    0  501    0  0.00000000000E+00 -0.00000000000E+00 -0.45688981964E+02  0.45711043227E+02  0.14200000000E+01 0.  1.
        -13    1    1    2    0    0 -0.69689466970E-01 -0.10004445025E+02 -0.21260325204E+02  0.23496943996E+02  0.10570000000E+00 0. -1.
         13    1    1    2    0    0  0.69689466970E-01  0.10004445025E+02 -0.22491185762E+02  0.24616222016E+02  0.10570000000E+00 0.  1.
<mgrwt>
<rscale>  0 0.20017044E+02</rscale>
<asrwt>0</asrwt>
<pdfrwt beam="2">  1        4 0.70665128E-02 0.20017044E+02</pdfrwt>
<pdfrwt beam="1">  1       -4 0.33551196E-03 0.20017044E+02</pdfrwt>
<totfact> 0.11580377E+06</totfact>
</mgrwt>
</event>
<event>
 5    1  0.4710515E-007  0.2000174E+02  0.7818608E-02  0.1745293E+00
         -4   -1    0    0    0  501 -0.00000000000E+00  0.00000000000E+00  0.83107991421E+01  0.84312384844E+01  0.14200000000E+01 0. -1.
          4   -1    0    0  501    0  0.00000000000E+00 -0.00000000000E+00 -0.11784693588E+02  0.11869936940E+02  0.14200000000E+01 0.  1.
       1023    2    1    2    0    0  0.00000000000E+00  0.00000000000E+00 -0.34738944456E+01  0.20301175424E+02  0.20001744449E+02 0.  0.
        -13    1    3    3    0    0  0.75070686267E+01 -0.66064491372E+01 -0.16650117626E+01  0.10138278267E+02  0.10570000000E+00 0. -1.
         13    1    3    3    0    0 -0.75070686267E+01  0.66064491372E+01 -0.18088826831E+01  0.10162897157E+02  0.10570000000E+00 0.  1.
<mgrwt>
<rscale>  0 0.20001744E+02</rscale>
<asrwt>0</asrwt>
<pdfrwt beam="2">  1        4 0.18288515E-02 0.20001744E+02</pdfrwt>
<pdfrwt beam="1">  1       -4 0.12944062E-02 0.20001744E+02</pdfrwt>
<totfact> 0.12993805E+06</totfact>
</mgrwt>
</event>
<event>
 4    1  0.4710515E-007  0.2050396E+02  0.7818608E-02  0.1735488E+00
         -4   -1    0    0    0  501 -0.00000000000E+00  0.00000000000E+00  0.95520076244E+00  0.17113761996E+01  0.14200000000E+01 0. -1.
          4   -1    0    0  501    0  0.00000000000E+00 -0.00000000000E+00 -0.78065537636E+02  0.78078451357E+02  0.14200000000E+01 0.  1.
        -13    1    1    2    0    0  0.31922225689E+01 -0.96160545512E+01 -0.32485067709E+02  0.34028658314E+02  0.10570000000E+00 0. -1.
         13    1    1    2    0    0 -0.31922225689E+01  0.96160545512E+01 -0.44625269164E+02  0.45761169243E+02  0.10570000000E+00 0.  1.
<mgrwt>
<rscale>  0 0.20503964E+02</rscale>
<asrwt>0</asrwt>
<pdfrwt beam="2">  1        4 0.12069240E-01 0.20503964E+02</pdfrwt>
<pdfrwt beam="1">  1       -4 0.20611473E-03 0.20503964E+02</pdfrwt>
<totfact> 0.99087832E+05</totfact>
</mgrwt>
</event>
<event>
 5    1  0.4710515E-007  0.2000644E+02  0.7818608E-02  0.1745200E+00
          4   -1    0    0  501    0  0.00000000000E+00  0.00000000000E+00  0.29827730739E+02  0.29861512371E+02  0.14200000000E+01 0.  1.
         -4   -1    0    0    0  501 -0.00000000000E+00 -0.00000000000E+00 -0.31670925245E+01  0.34708608526E+01  0.14200000000E+01 0. -1.
       1023    2    1    2    0    0  0.00000000000E+00  0.00000000000E+00  0.26660638215E+02  0.33332373223E+02  0.20006435831E+02 0.  0.
        -13    1    3    3    0    0 -0.77733277125E+01  0.62945092724E+01  0.13183879355E+02  0.16549057920E+02  0.10570000000E+00 0. -1.
         13    1    3    3    0    0  0.77733277125E+01 -0.62945092724E+01  0.13476758860E+02  0.16783315303E+02  0.10570000000E+00 0.  1.
<mgrwt>
<rscale>  0 0.20006436E+02</rscale>
<asrwt>0</asrwt>
<pdfrwt beam="1">  1        4 0.46148470E-02 0.20006436E+02</pdfrwt>
<pdfrwt beam="2">  1       -4 0.51321039E-03 0.20006436E+02</pdfrwt>
<totfact> 0.12276946E+06</totfact>
</mgrwt>
</event>
<event>
 5    1  0.4710515E-007  0.2001107E+02  0.7818608E-02  0.1745108E+00
          4   -1    0    0  501    0  0.00000000000E+00  0.00000000000E+00  0.15975148787E+01  0.21373941582E+01  0.14200000000E+01 0. -1.
         -4   -1    0    0    0  501 -0.00000000000E+00 -0.00000000000E+00 -0.53057374192E+02  0.53076372862E+02  0.14200000000E+01 0.  1.
       1023    2    1    2    0    0  0.00000000000E+00  0.00000000000E+00 -0.51459859313E+02  0.55213767020E+02  0.20011070636E+02 0.  0.
        -13    1    3    3    0    0  0.37464495420E+01 -0.92724535179E+01 -0.24924150246E+02  0.26855887928E+02  0.10570000000E+00 0. -1.
         13    1    3    3    0    0 -0.37464495420E+01  0.92724535179E+01 -0.26535709067E+02  0.28357879092E+02  0.10570000000E+00 0.  1.
<mgrwt>
<rscale>  0 0.20011071E+02</rscale>
<asrwt>0</asrwt>
<pdfrwt beam="1">  1        4 0.28876217E-03 0.20011071E+02</pdfrwt>
<pdfrwt beam="2">  1       -4 0.82056624E-02 0.20011071E+02</pdfrwt>
<totfact> 0.11293748E+06</totfact>
</mgrwt>
</event>
<event>
 5    1  0.4710515E-007  0.2000192E+02  0.7818608E-02  0.1745290E+00
          4   -1    0    0  501    0  0.00000000000E+00  0.00000000000E+00  0.89315353461E+00  0.16775348689E+01  0.14200000000E+01 0.  1.
         -4   -1    0    0    0  501 -0.00000000000E+00 -0.00000000000E+00 -0.77022225757E+02  0.77035314373E+02  0.14200000000E+01 0. -1.
       1023    2    1    2    0    0  0.00000000000E+00  0.00000000000E+00 -0.76129072222E+02  0.78712849242E+02  0.20001924866E+02 0.  0.
        -13    1    3    3    0    0  0.28303364222E+00 -0.99962933971E+01 -0.38244329591E+02  0.39530316317E+02  0.10570000000E+00 0. -1.
         13    1    3    3    0    0 -0.28303364222E+00  0.99962933971E+01 -0.37884742631E+02  0.39182532925E+02  0.10570000000E+00 0.  1.
<mgrwt>
<rscale>  0 0.20001925E+02</rscale>
<asrwt>0</asrwt>
<pdfrwt beam="1">  1        4 0.19875214E-03 0.20001925E+02</pdfrwt>
<pdfrwt beam="2">  1       -4 0.11910913E-01 0.20001925E+02</pdfrwt>
<totfact> 0.10451421E+06</totfact>
</mgrwt>
</event>
<event>
 5    1  0.4710515E-007  0.2000147E+02  0.7818608E-02  0.1745299E+00
         -4   -1    0    0    0  501 -0.00000000000E+00  0.00000000000E+00  0.71188837287E+02  0.71202998212E+02  0.14200000000E+01 0. -1.
          4   -1    0    0  501    0  0.00000000000E+00 -0.00000000000E+00 -0.10280747289E+01  0.17530937363E+01  0.14200000000E+01 0.  1.
       1023    2    1    2    0    0  0.00000000000E+00  0.00000000000E+00  0.70160762558E+02  0.72956091948E+02  0.20001468684E+02 0.  0.
        -13    1    3    3    0    0 -0.22383050204E+01 -0.97464533300E+01  0.35125500515E+02  0.36521436456E+02  0.10570000000E+00 0. -1.
         13    1    3    3    0    0  0.22383050204E+01  0.97464533300E+01  0.35035262044E+02  0.36434655492E+02  0.10570000000E+00 0.  1.
<mgrwt>
<rscale>  0 0.20001469E+02</rscale>
<asrwt>0</asrwt>
<pdfrwt beam="2">  1        4 0.21502533E-03 0.20001469E+02</pdfrwt>
<pdfrwt beam="1">  1       -4 0.11008989E-01 0.20001469E+02</pdfrwt>
<totfact> 0.10646093E+06</totfact>
</mgrwt>
</event>
<event>
 4    1  0.4710515E-007  0.2001867E+02  0.7818608E-02  0.1744957E+00
         -4   -1    0    0    0  501 -0.00000000000E+00  0.00000000000E+00  0.11956684739E+02  0.12040710525E+02  0.14200000000E+01 0.  1.
          4   -1    0    0  501    0  0.00000000000E+00 -0.00000000000E+00 -0.82045772505E+01  0.83265531800E+01  0.14200000000E+01 0. -1.
        -13    1    1    2    0    0 -0.98548254941E+01  0.17126036108E+01  0.22357794421E+01  0.10249901407E+02  0.10570000000E+00 0.  1.
         13    1    1    2    0    0  0.98548254941E+01 -0.17126036108E+01  0.15163280468E+01  0.10117362299E+02  0.10570000000E+00 0. -1.
<mgrwt>
<rscale>  0 0.20018669E+02</rscale>
<asrwt>0</asrwt>
<pdfrwt beam="2">  1        4 0.12780889E-02 0.20018669E+02</pdfrwt>
<pdfrwt beam="1">  1       -4 0.18553362E-02 0.20018669E+02</pdfrwt>
<totfact> 0.12967470E+06</totfact>
</mgrwt>
</event>
<event>
 4    1  0.4710515E-007  0.2008699E+02  0.7818608E-02  0.1743604E+00
         -4   -1    0    0    0  501 -0.00000000000E+00  0.00000000000E+00  0.76905422686E+01  0.78205396479E+01  0.14200000000E+01 0. -1.
          4   -1    0    0  501    0  0.00000000000E+00 -0.00000000000E+00 -0.12836935164E+02  0.12915235360E+02  0.14200000000E+01 0.  1.
        -13    1    1    2    0    0  0.56982968763E+01  0.82690850526E+01 -0.24590634293E+01  0.10339560935E+02  0.10570000000E+00 0. -1.
         13    1    1    2    0    0 -0.56982968763E+01 -0.82690850526E+01 -0.26873294663E+01  0.10396214073E+02  0.10570000000E+00 0.  1.
<mgrwt>
<rscale>  0 0.20086986E+02</rscale>
<asrwt>0</asrwt>
<pdfrwt beam="2">  1        4 0.19909360E-02 0.20086986E+02</pdfrwt>
<pdfrwt beam="1">  1       -4 0.11991832E-02 0.20086986E+02</pdfrwt>
<totfact> 0.12855956E+06</totfact>
</mgrwt>
</event>
<event>
 5    1  0.4771983E-007  0.2000152E+02  0.7818608E-02  0.1745298E+00
          4   -1    0    0  501    0  0.00000000000E+00  0.00000000000E+00  0.18575419688E+01  0.23381321960E+01  0.14200000000E+01 0.  1.
         -4   -1    0    0    0  501 -0.00000000000E+00 -0.00000000000E+00 -0.47182882498E+02  0.47204245580E+02  0.14200000000E+01 0. -1.
       1023    2    1    2    0    0  0.00000000000E+00  0.00000000000E+00 -0.45325340529E+02  0.49542377776E+02  0.20001517484E+02 0.  0.
        -13    1    3    3    0    0 -0.97880547652E+01  0.20487135997E+01 -0.22730928539E+02  0.24833637032E+02  0.10570000000E+00 0. -1.
         13    1    3    3    0    0  0.97880547652E+01 -0.20487135997E+01 -0.22594411990E+02  0.24708740744E+02  0.10570000000E+00 0.  1.
<mgrwt>
<rscale>  0 0.20001517E+02</rscale>
<asrwt>0</asrwt>
<pdfrwt beam="1">  1        4 0.32438751E-03 0.20001517E+02</pdfrwt>
<pdfrwt beam="2">  1       -4 0.72975160E-02 0.20001517E+02</pdfrwt>
<totfact> 0.11537739E+06</totfact>
</mgrwt>
</event>
<event>
 5    1  0.4710515E-007  0.2000172E+02  0.7818608E-02  0.1745294E+00
          4   -1    0    0  501    0  0.00000000000E+00  0.00000000000E+00  0.48612528981E+02  0.48633264068E+02  0.14200000000E+01 0. -1.
         -4   -1    0    0    0  501 -0.00000000000E+00 -0.00000000000E+00 -0.17886422572E+01  0.22837778185E+01  0.14200000000E+01 0.  1.
       1023    2    1    2    0    0  0.00000000000E+00  0.00000000000E+00  0.46823886724E+02  0.50917041887E+02  0.20001719590E+02 0.  0.
        -13    1    3    3    0    0  0.58859224734E+01  0.80845859938E+01  0.23316351609E+02  0.25370613687E+02  0.10570000000E+00 0. -1.
         13    1    3    3    0    0 -0.58859224734E+01 -0.80845859938E+01  0.23507535115E+02  0.25546428199E+02  0.10570000000E+00 0.  1.
<mgrwt>
<rscale>  0 0.20001720E+02</rscale>
<asrwt>0</asrwt>
<pdfrwt beam="1">  1        4 0.75185327E-02 0.20001720E+02</pdfrwt>
<pdfrwt beam="2">  1       -4 0.31485810E-03 0.20001720E+02</pdfrwt>
<totfact> 0.11479830E+06</totfact>
</mgrwt>
</event>
<event>
 5    1  0.4710515E-007  0.2000895E+02  0.7818608E-02  0.1745150E+00
          4   -1    0    0  501    0  0.00000000000E+00  0.00000000000E+00  0.32189255443E+01  0.35182213773E+01  0.14200000000E+01 0.  1.
         -4   -1    0    0    0  501 -0.00000000000E+00 -0.00000000000E+00 -0.29395539584E+02  0.29429817319E+02  0.14200000000E+01 0. -1.
       1023    2    1    2    0    0  0.00000000000E+00  0.00000000000E+00 -0.26176614040E+02  0.32948038696E+02  0.20008951281E+02 0.  0.
        -13    1    3    3    0    0 -0.45230260261E+01  0.89222199106E+01 -0.13287191033E+02  0.16632029058E+02  0.10570000000E+00 0.  1.
         13    1    3    3    0    0  0.45230260261E+01 -0.89222199106E+01 -0.12889423007E+02  0.16316009638E+02  0.10570000000E+00 0. -1.
<mgrwt>
<rscale>  0 0.20008951E+02</rscale>
<asrwt>0</asrwt>
<pdfrwt beam="1">  1        4 0.52087884E-03 0.20008951E+02</pdfrwt>
<pdfrwt beam="2">  1       -4 0.45480500E-02 0.20008951E+02</pdfrwt>
<totfact> 0.12293154E+06</totfact>
</mgrwt>
</event>
<event>
 4    1  0.4710515E-007  0.2008759E+02  0.7818608E-02  0.1743592E+00
         -4   -1    0    0    0  501 -0.00000000000E+00  0.00000000000E+00  0.23644003035E+02  0.23686605487E+02  0.14200000000E+01 0. -1.
          4   -1    0    0  501    0  0.00000000000E+00 -0.00000000000E+00 -0.41005235834E+01  0.43394347164E+01  0.14200000000E+01 0.  1.
        -13    1    1    2    0    0  0.39608854731E+01 -0.92259491098E+01  0.94302399270E+01  0.13774881062E+02  0.10570000000E+00 0.  1.
         13    1    1    2    0    0 -0.39608854731E+01  0.92259491098E+01  0.10113239524E+02  0.14251159141E+02  0.10570000000E+00 0. -1.
<mgrwt>
<rscale>  0 0.20087592E+02</rscale>
<asrwt>0</asrwt>
<pdfrwt beam="2">  1        4 0.65250467E-03 0.20087592E+02</pdfrwt>
<pdfrwt beam="1">  1       -4 0.36591938E-02 0.20087592E+02</pdfrwt>
<totfact> 0.12448962E+06</totfact>
</mgrwt>
</event>
<event>
 5    1  0.4710515E-007  0.2000249E+02  0.7818608E-02  0.1745278E+00
         -4   -1    0    0    0  501 -0.00000000000E+00  0.00000000000E+00  0.14991664720E+01  0.20649213328E+01  0.14200000000E+01 0. -1.
          4   -1    0    0  501    0  0.00000000000E+00 -0.00000000000E+00 -0.55553073180E+02  0.55571218628E+02  0.14200000000E+01 0.  1.
       1023    2    1    2    0    0  0.00000000000E+00  0.00000000000E+00 -0.54053906708E+02  0.57636139961E+02  0.20002494822E+02 0.  0.
        -13    1    3    3    0    0  0.41032287570E+01  0.91200235757E+01 -0.27169898614E+02  0.28952130827E+02  0.10570000000E+00 0.  1.
         13    1    3    3    0    0 -0.41032287570E+01 -0.91200235757E+01 -0.26884008095E+02  0.28684009134E+02  0.10570000000E+00 0. -1.
<mgrwt>
<rscale>  0 0.20002495E+02</rscale>
<asrwt>0</asrwt>
<pdfrwt beam="2">  1        4 0.85915407E-02 0.20002495E+02</pdfrwt>
<pdfrwt beam="1">  1       -4 0.27555645E-03 0.20002495E+02</pdfrwt>
<totfact> 0.11207644E+06</totfact>
</mgrwt>
</event>
<event>
 5    1  0.4859250E-007  0.2000408E+02  0.7818608E-02  0.1745247E+00
         -4   -1    0    0    0  501 -0.00000000000E+00  0.00000000000E+00  0.14437260029E+02  0.14506925145E+02  0.14200000000E+01 0. -1.
          4   -1    0    0  501    0  0.00000000000E+00 -0.00000000000E+00 -0.67691601474E+01  0.69164968808E+01  0.14200000000E+01 0.  1.
       1023    2    1    2    0    0  0.00000000000E+00  0.00000000000E+00  0.76680998821E+01  0.21423422026E+02  0.20004080971E+02 0.  0.
        -13    1    3    3    0    0 -0.76833745902E+01  0.64026368340E+01  0.37907079734E+01  0.10696197593E+02  0.10570000000E+00 0.  1.
         13    1    3    3    0    0  0.76833745902E+01 -0.64026368340E+01  0.38773919087E+01  0.10727224433E+02  0.10570000000E+00 0. -1.
<mgrwt>
<rscale>  0 0.20004081E+02</rscale>
<asrwt>0</asrwt>
<pdfrwt beam="2">  1        4 0.10581017E-02 0.20004081E+02</pdfrwt>
<pdfrwt beam="1">  1       -4 0.22378094E-02 0.20004081E+02</pdfrwt>
<totfact> 0.12924469E+06</totfact>
</mgrwt>
</event>
<event>
 5    1  0.4710515E-007  0.2000595E+02  0.7818608E-02  0.1745210E+00
          4   -1    0    0  501    0  0.00000000000E+00  0.00000000000E+00  0.99552687573E+02  0.99562814358E+02  0.14200000000E+01 0. -1.
         -4   -1    0    0    0  501 -0.00000000000E+00 -0.00000000000E+00 -0.48819719320E+00  0.15015780031E+01  0.14200000000E+01 0.  1.
       1023    2    1    2    0    0  0.00000000000E+00  0.00000000000E+00  0.99064490379E+02  0.10106439236E+03  0.20005952845E+02 0.  0.
        -13    1    3    3    0    0 -0.49782363706E+01  0.86755173226E+01  0.49686023525E+02  0.50682931490E+02  0.10570000000E+00 0.  1.
         13    1    3    3    0    0  0.49782363706E+01 -0.86755173226E+01  0.49378466854E+02  0.50381460872E+02  0.10570000000E+00 0. -1.
<mgrwt>
<rscale>  0 0.20005953E+02</rscale>
<asrwt>0</asrwt>
<pdfrwt beam="1">  1        4 0.15394532E-01 0.20005953E+02</pdfrwt>
<pdfrwt beam="2">  1       -4 0.15383859E-03 0.20005953E+02</pdfrwt>
<totfact> 0.97652457E+05</totfact>
</mgrwt>
</event>
<event>
 5    1  0.4872671E-007  0.2000353E+02  0.7818608E-02  0.1745258E+00
         -4   -1    0    0    0  501 -0.00000000000E+00  0.00000000000E+00  0.35128824586E+01  0.37890293174E+01  0.14200000000E+01 0.  1.
          4   -1    0    0  501    0  0.00000000000E+00 -0.00000000000E+00 -0.27104321844E+02  0.27141493375E+02  0.14200000000E+01 0. -1.
       1023    2    1    2    0    0  0.00000000000E+00  0.00000000000E+00 -0.23591439386E+02  0.30930522693E+02  0.20003530232E+02 0.  0.
        -13    1    3    3    0    0 -0.98674121248E+01 -0.16250552812E+01 -0.11591133155E+02  0.15309218368E+02  0.10570000000E+00 0. -1.
         13    1    3    3    0    0  0.98674121248E+01  0.16250552812E+01 -0.12000306230E+02  0.15621304325E+02  0.10570000000E+00 0.  1.
<mgrwt>
<rscale>  0 0.20003530E+02</rscale>
<asrwt>0</asrwt>
<pdfrwt beam="2">  1        4 0.41939970E-02 0.20003530E+02</pdfrwt>
<pdfrwt beam="1">  1       -4 0.56454489E-03 0.20003530E+02</pdfrwt>
<totfact> 0.12402974E+06</totfact>
</mgrwt>
</event>
<event>
 5    1  0.4710515E-007  0.2000265E+02  0.7818608E-02  0.1745275E+00
         -4   -1    0    0    0  501 -0.00000000000E+00  0.00000000000E+00  0.12422515157E+01  0.18866872630E+01  0.14200000000E+01 0.  1.
          4   -1    0    0  501    0  0.00000000000E+00 -0.00000000000E+00 -0.63282342366E+02  0.63298272136E+02  0.14200000000E+01 0. -1.
       1023    2    1    2    0    0  0.00000000000E+00  0.00000000000E+00 -0.62040090851E+02  0.65184959399E+02  0.20002651301E+02 0.  0.
        -13    1    3    3    0    0  0.97113961118E+01  0.23870127639E+01 -0.30761428081E+02  0.32346339429E+02  0.10570000000E+00 0. -1.
         13    1    3    3    0    0 -0.97113961118E+01 -0.23870127639E+01 -0.31278662769E+02  0.32838619970E+02  0.10570000000E+00 0.  1.
<mgrwt>
<rscale>  0 0.20002651E+02</rscale>
<asrwt>0</asrwt>
<pdfrwt beam="2">  1        4 0.97865403E-02 0.20002651E+02</pdfrwt>
<pdfrwt beam="1">  1       -4 0.24191302E-03 0.20002651E+02</pdfrwt>
<totfact> 0.10921259E+06</totfact>
</mgrwt>
</event>
<event>
 5    1  0.4710515E-007  0.2001178E+02  0.7818608E-02  0.1745094E+00
          4   -1    0    0  501    0  0.00000000000E+00  0.00000000000E+00  0.10085520151E+02  0.10184994685E+02  0.14200000000E+01 0.  1.
         -4   -1    0    0    0  501 -0.00000000000E+00 -0.00000000000E+00 -0.97268944214E+01  0.98299987327E+01  0.14200000000E+01 0. -1.
       1023    2    1    2    0    0  0.00000000000E+00  0.00000000000E+00  0.35862573006E+00  0.20014993417E+02  0.20011780258E+02 0.  0.
        -13    1    3    3    0    0 -0.57823687753E+01 -0.81648248299E+01  0.98605271847E-01  0.10006050602E+02  0.10570000000E+00 0.  1.
         13    1    3    3    0    0  0.57823687753E+01  0.81648248299E+01  0.26002045821E+00  0.10008942816E+02  0.10570000000E+00 0. -1.
<mgrwt>
<rscale>  0 0.20011780E+02</rscale>
<asrwt>0</asrwt>
<pdfrwt beam="1">  1        4 0.15672015E-02 0.20011780E+02</pdfrwt>
<pdfrwt beam="2">  1       -4 0.15120283E-02 0.20011780E+02</pdfrwt>
<totfact> 0.12997516E+06</totfact>
</mgrwt>
</event>
<event>
 5    1  0.4710515E-007  0.2000703E+02  0.7818608E-02  0.1745188E+00
          4   -1    0    0  501    0  0.00000000000E+00  0.00000000000E+00  0.15440044885E+01  0.20977010894E+01  0.14200000000E+01 0. -1.
         -4   -1    0    0    0  501 -0.00000000000E+00 -0.00000000000E+00 -0.54393569461E+02  0.54412101583E+02  0.14200000000E+01 0. -1.
       1023    2    1    2    0    0  0.00000000000E+00  0.00000000000E+00 -0.52849564972E+02  0.56509802673E+02  0.20007030772E+02 0.  0.
        -13    1    3    3    0    0  0.28700233428E+01 -0.95816568603E+01 -0.26090996559E+02  0.27942735301E+02  0.10570000000E+00 0. -1.
         13    1    3    3    0    0 -0.28700233428E+01  0.95816568603E+01 -0.26758568413E+02  0.28567067371E+02  0.10570000000E+00 0.  1.
<mgrwt>
<rscale>  0 0.20007031E+02</rscale>
<asrwt>0</asrwt>
<pdfrwt beam="1">  1        4 0.28155679E-03 0.20007031E+02</pdfrwt>
<pdfrwt beam="2">  1       -4 0.84122578E-02 0.20007031E+02</pdfrwt>
<totfact> 0.11246818E+06</totfact>
</mgrwt>
</event>
<event>
 5    1  0.4710515E-007  0.2000117E+02  0.7818608E-02  0.1745305E+00
         -4   -1    0    0    0  501 -0.00000000000E+00  0.00000000000E+00  0.38450809466E+02  0.38477021046E+02  0.14200000000E+01 0. -1.
          4   -1    0    0  501    0  0.00000000000E+00 -0.00000000000E+00 -0.23780105838E+01  0.27697173749E+01  0.14200000000E+01 0.  1.
       1023    2    1    2    0    0  0.00000000000E+00  0.00000000000E+00  0.36072798882E+02  0.41246738421E+02  0.20001165246E+02 0.  0.
        -13    1    3    3    0    0  0.76079763001E+01 -0.64899285606E+01  0.18032171498E+02  0.20619671615E+02  0.10570000000E+00 0. -1.
         13    1    3    3    0    0 -0.76079763001E+01  0.64899285606E+01  0.18040627384E+02  0.20627066806E+02  0.10570000000E+00 0.  1.
<mgrwt>
<rscale>  0 0.20001165E+02</rscale>
<asrwt>0</asrwt>
<pdfrwt beam="2">  1        4 0.39799538E-03 0.20001165E+02</pdfrwt>
<pdfrwt beam="1">  1       -4 0.59476563E-02 0.20001165E+02</pdfrwt>
<totfact> 0.11903570E+06</totfact>
</mgrwt>
</event>
<event>
 5    1  0.4710515E-007  0.2000232E+02  0.7818608E-02  0.1745282E+00
         -4   -1    0    0    0  501 -0.00000000000E+00  0.00000000000E+00  0.31118386379E+02  0.31150768383E+02  0.14200000000E+01 0.  1.
          4   -1    0    0  501    0  0.00000000000E+00 -0.00000000000E+00 -0.30216305565E+01  0.33386600935E+01  0.14200000000E+01 0. -1.
       1023    2    1    2    0    0  0.00000000000E+00  0.00000000000E+00  0.28096755823E+02  0.34489428476E+02  0.20002324586E+02 0.  0.
        -13    1    3    3    0    0 -0.23276504266E+01 -0.97259041267E+01  0.14100310723E+02  0.17287021217E+02  0.10570000000E+00 0.  1.
         13    1    3    3    0    0  0.23276504266E+01  0.97259041267E+01  0.13996445100E+02  0.17202407259E+02  0.10570000000E+00 0. -1.
<mgrwt>
<rscale>  0 0.20002325E+02</rscale>
<asrwt>0</asrwt>
<pdfrwt beam="2">  1        4 0.49174407E-03 0.20002325E+02</pdfrwt>
<pdfrwt beam="1">  1       -4 0.48143217E-02 0.20002325E+02</pdfrwt>
<totfact> 0.12224336E+06</totfact>
</mgrwt>
</event>
<event>
 4    1  0.4710515E-007  0.2050419E+02  0.7818608E-02  0.1735484E+00
         -4   -1    0    0    0  501 -0.00000000000E+00  0.00000000000E+00  0.83012337335E+01  0.84218098707E+01  0.14200000000E+01 0. -1.
          4   -1    0    0  501    0  0.00000000000E+00 -0.00000000000E+00 -0.12408767981E+02  0.12489752712E+02  0.14200000000E+01 0.  1.
        -13    1    1    2    0    0 -0.99418628997E+00  0.10203159982E+02 -0.20912468272E+01  0.10463143207E+02  0.10570000000E+00 0. -1.
         13    1    1    2    0    0  0.99418628997E+00 -0.10203159982E+02 -0.20162874200E+01  0.10448419375E+02  0.10570000000E+00 0.  1.
<mgrwt>
<rscale>  0 0.20504185E+02</rscale>
<asrwt>0</asrwt>
<pdfrwt beam="2">  1        4 0.19245459E-02 0.20504185E+02</pdfrwt>
<pdfrwt beam="1">  1       -4 0.12926176E-02 0.20504185E+02</pdfrwt>
<totfact> 0.12314181E+06</totfact>
</mgrwt>
</event>
<event>
 5    1  0.5013109E-007  0.2000161E+02  0.7818608E-02  0.1745296E+00
         -4   -1    0    0    0  501 -0.00000000000E+00  0.00000000000E+00  0.13820360897E+02  0.13893119712E+02  0.14200000000E+01 0.  1.
          4   -1    0    0  501    0  0.00000000000E+00 -0.00000000000E+00 -0.70743685221E+01  0.72154757284E+01  0.14200000000E+01 0. -1.
       1023    2    1    2    0    0  0.00000000000E+00  0.00000000000E+00  0.67459923747E+01  0.21108595440E+02  0.20001609643E+02 0.  0.
        -13    1    3    3    0    0 -0.92752564398E+01 -0.37382154805E+01  0.33908931865E+01  0.10560017334E+02  0.10570000000E+00 0. -1.
         13    1    3    3    0    0  0.92752564398E+01  0.37382154805E+01  0.33550991883E+01  0.10548578106E+02  0.10570000000E+00 0.  1.
<mgrwt>
<rscale>  0 0.20001610E+02</rscale>
<asrwt>0</asrwt>
<pdfrwt beam="2">  1        4 0.11048156E-02 0.20001610E+02</pdfrwt>
<pdfrwt beam="1">  1       -4 0.21426606E-02 0.20001610E+02</pdfrwt>
<totfact> 0.12946220E+06</totfact>
</mgrwt>
</event>
<event>
 5    1  0.4710515E-007  0.2000122E+02  0.7818608E-02  0.1745304E+00
          4   -1    0    0  501    0  0.00000000000E+00  0.00000000000E+00  0.63459776176E+02  0.63475661417E+02  0.14200000000E+01 0.  1.
         -4   -1    0    0    0  501 -0.00000000000E+00 -0.00000000000E+00 -0.12367020217E+01  0.18830379419E+01  0.14200000000E+01 0. -1.
       1023    2    1    2    0    0  0.00000000000E+00  0.00000000000E+00  0.62223074154E+02  0.65358699359E+02  0.20001215580E+02 0.  0.
        -13    1    3    3    0    0 -0.91250835334E+01 -0.40906999332E+01  0.31120917140E+02  0.32688279728E+02  0.10570000000E+00 0. -1.
         13    1    3    3    0    0  0.91250835334E+01  0.40906999332E+01  0.31102157014E+02  0.32670419630E+02  0.10570000000E+00 0.  1.
<mgrwt>
<rscale>  0 0.20001216E+02</rscale>
<asrwt>0</asrwt>
<pdfrwt beam="1">  1        4 0.98139837E-02 0.20001216E+02</pdfrwt>
<pdfrwt beam="2">  1       -4 0.24120191E-03 0.20001216E+02</pdfrwt>
<totfact> 0.10916458E+06</totfact>
</mgrwt>
</event>
<event>
 5    1  0.4710515E-007  0.2000201E+02  0.7818608E-02  0.1745288E+00
          4   -1    0    0  501    0  0.00000000000E+00  0.00000000000E+00  0.26975771485E+01  0.30484951160E+01  0.14200000000E+01 0.  1.
         -4   -1    0    0    0  501 -0.00000000000E+00 -0.00000000000E+00 -0.34446943230E+02  0.34476199006E+02  0.14200000000E+01 0. -1.
       1023    2    1    2    0    0  0.00000000000E+00  0.00000000000E+00 -0.31749366082E+02  0.37524694122E+02  0.20002010458E+02 0.  0.
        -13    1    3    3    0    0 -0.32063761982E+00 -0.99950184743E+01 -0.16016697567E+02  0.18882504501E+02  0.10570000000E+00 0. -1.
         13    1    3    3    0    0  0.32063761982E+00  0.99950184743E+01 -0.15732668514E+02  0.18642189621E+02  0.10570000000E+00 0.  1.
<mgrwt>
<rscale>  0 0.20002010E+02</rscale>
<asrwt>0</asrwt>
<pdfrwt beam="1">  1        4 0.44425603E-03 0.20002010E+02</pdfrwt>
<pdfrwt beam="2">  1       -4 0.53287736E-02 0.20002010E+02</pdfrwt>
<totfact> 0.12076957E+06</totfact>
</mgrwt>
</event>
<event>
 5    1  0.4710515E-007  0.2000239E+02  0.7818608E-02  0.1745280E+00
          4   -1    0    0  501    0  0.00000000000E+00  0.00000000000E+00  0.48976796902E+02  0.48997377836E+02  0.14200000000E+01 0. -1.
         -4   -1    0    0    0  501 -0.00000000000E+00 -0.00000000000E+00 -0.17718043254E+01  0.22706145793E+01  0.14200000000E+01 0.  1.
       1023    2    1    2    0    0  0.00000000000E+00  0.00000000000E+00  0.47204992576E+02  0.51267992415E+02  0.20002392910E+02 0.  0.
        -13    1    3    3    0    0  0.13783706370E+01 -0.99050869964E+01  0.23484928289E+02  0.25525745498E+02  0.10570000000E+00 0.  1.
         13    1    3    3    0    0 -0.13783706370E+01  0.99050869964E+01  0.23720064288E+02  0.25742246917E+02  0.10570000000E+00 0. -1.
<mgrwt>
<rscale>  0 0.20002393E+02</rscale>
<asrwt>0</asrwt>
<pdfrwt beam="1">  1        4 0.75748453E-02 0.20002393E+02</pdfrwt>
<pdfrwt beam="2">  1       -4 0.31253844E-03 0.20002393E+02</pdfrwt>
<totfact> 0.11464451E+06</totfact>
</mgrwt>
</event>
<event>
 5    1  0.4710515E-007  0.2000285E+02  0.7818608E-02  0.1745271E+00
          4   -1    0    0  501    0  0.00000000000E+00  0.00000000000E+00  0.49200175266E+02  0.49220662798E+02  0.14200000000E+01 0. -1.
         -4   -1    0    0    0  501 -0.00000000000E+00 -0.00000000000E+00 -0.17615986525E+01  0.22626598977E+01  0.14200000000E+01 0.  1.
       1023    2    1    2    0    0  0.00000000000E+00  0.00000000000E+00  0.47438576614E+02  0.51483322695E+02  0.20002848912E+02 0.  0.
        -13    1    3    3    0    0 -0.30907484568E+01 -0.95109840479E+01  0.23523695160E+02  0.25561434820E+02  0.10570000000E+00 0.  1.
         13    1    3    3    0    0  0.30907484568E+01  0.95109840479E+01  0.23914881454E+02  0.25921887875E+02  0.10570000000E+00 0. -1.
<mgrwt>
<rscale>  0 0.20002849E+02</rscale>
<asrwt>0</asrwt>
<pdfrwt beam="1">  1        4 0.76093769E-02 0.20002849E+02</pdfrwt>
<pdfrwt beam="2">  1       -4 0.31113431E-03 0.20002849E+02</pdfrwt>
<totfact> 0.11454991E+06</totfact>
</mgrwt>
</event>
<event>
 5    1  0.4710515E-007  0.2000490E+02  0.7818608E-02  0.1745231E+00
         -4   -1    0    0    0  501 -0.00000000000E+00  0.00000000000E+00  0.30621742447E+01  0.33753979180E+01  0.14200000000E+01 0.  1.
          4   -1    0    0  501    0  0.00000000000E+00 -0.00000000000E+00 -0.30752430131E+02  0.30785197076E+02  0.14200000000E+01 0. -1.
       1023    2    1    2    0    0  0.00000000000E+00  0.00000000000E+00 -0.27690255887E+02  0.34160594994E+02  0.20004898881E+02 0.  0.
        -13    1    3    3    0    0 -0.48387944735E+01 -0.87519035167E+01 -0.13559006438E+02  0.16848370105E+02  0.10570000000E+00 0. -1.
         13    1    3    3    0    0  0.48387944735E+01  0.87519035167E+01 -0.14131249448E+02  0.17312224888E+02  0.10570000000E+00 0.  1.
<mgrwt>
<rscale>  0 0.20004899E+02</rscale>
<asrwt>0</asrwt>
<pdfrwt beam="2">  1        4 0.47577576E-02 0.20004899E+02</pdfrwt>
<pdfrwt beam="1">  1       -4 0.49771841E-03 0.20004899E+02</pdfrwt>
<totfact> 0.12237467E+06</totfact>
</mgrwt>
</event>
<event>
 5    1  0.4710515E-007  0.2000322E+02  0.7818608E-02  0.1745264E+00
          4   -1    0    0  501    0  0.00000000000E+00  0.00000000000E+00  0.68928934931E+02  0.68943560038E+02  0.14200000000E+01 0.  1.
         -4   -1    0    0    0  501 -0.00000000000E+00 -0.00000000000E+00 -0.10854784221E+01  0.17873621359E+01  0.14200000000E+01 0. -1.
       1023    2    1    2    0    0  0.00000000000E+00  0.00000000000E+00  0.67843456509E+02  0.70730922174E+02  0.20003218754E+02 0.  0.
        -13    1    3    3    0    0  0.15683691859E+01 -0.98762779342E+01  0.34426394062E+02  0.35849524800E+02  0.10570000000E+00 0.  1.
         13    1    3    3    0    0 -0.15683691859E+01  0.98762779342E+01  0.33417062446E+02  0.34881397374E+02  0.10570000000E+00 0. -1.
<mgrwt>
<rscale>  0 0.20003219E+02</rscale>
<asrwt>0</asrwt>
<pdfrwt beam="1">  1        4 0.10659567E-01 0.20003219E+02</pdfrwt>
<pdfrwt beam="2">  1       -4 0.22211276E-03 0.20003219E+02</pdfrwt>
<totfact> 0.10721610E+06</totfact>
</mgrwt>
</event>
<event>
 5    1  0.4954590E-007  0.2000223E+02  0.7818608E-02  0.1745284E+00
         -4   -1    0    0    0  501 -0.00000000000E+00  0.00000000000E+00  0.16170136228E+02  0.16232365990E+02  0.14200000000E+01 0. -1.
          4   -1    0    0  501    0  0.00000000000E+00 -0.00000000000E+00 -0.60288652475E+01  0.61938369508E+01  0.14200000000E+01 0.  1.
       1023    2    1    2    0    0  0.00000000000E+00  0.00000000000E+00  0.10141270980E+02  0.22426202941E+02  0.20002229907E+02 0.  0.
        -13    1    3    3    0    0  0.98946784636E+01  0.14495864972E+01  0.51512120472E+01  0.11249538700E+02  0.10570000000E+00 0. -1.
         13    1    3    3    0    0 -0.98946784636E+01 -0.14495864972E+01  0.49900589332E+01  0.11176664241E+02  0.10570000000E+00 0.  1.
<mgrwt>
<rscale>  0 0.20002230E+02</rscale>
<asrwt>0</asrwt>
<pdfrwt beam="2">  1        4 0.94499479E-03 0.20002230E+02</pdfrwt>
<pdfrwt beam="1">  1       -4 0.25051902E-02 0.20002230E+02</pdfrwt>
<totfact> 0.12868632E+06</totfact>
</mgrwt>
</event>
