<event>
 5    1  0.1090823E+000  0.8816966E+02  0.7818608E-02  0.1307346E+00
          4   -1    0    0  501    0  0.00000000000E+00  0.00000000000E+00  0.12323545041E+02  0.12405086149E+02  0.14200000000E+01 0. -1.
         -4   -1    0    0    0  501 -0.00000000000E+00 -0.00000000000E+00 -0.15709922485E+03  0.15710564232E+03  0.14200000000E+01 0.  1.
         23    2    1    2    0    0  0.00000000000E+00  0.00000000000E+00 -0.14477567981E+03  0.16951072847E+03  0.88169663727E+02 0.  0.
        -13    1    3    3    0    0 -0.20166419951E+02  0.27237465879E+02 -0.12659210815E+03  0.13105013186E+03  0.10570000000E+00 0.  1.
         13    1    3    3    0    0  0.20166419951E+02 -0.27237465879E+02 -0.18183571662E+02  0.38460596615E+02  0.10570000000E+00 0. -1.
<mgrwt>
<rscale>  0 0.88169664E+02</rscale>
<asrwt>0</asrwt>
<pdfrwt beam="1">  1        4 0.19026962E-02 0.88169664E+02</pdfrwt>
<pdfrwt beam="2">  1       -4 0.24175876E-01 0.88169664E+02</pdfrwt>
<totfact> 0.24863033E+04</totfact>
</mgrwt>
</event>
<event>
 5    1  0.1090823E+000  0.9163466E+02  0.7818608E-02  0.1298941E+00
         -4   -1    0    0    0  501 -0.00000000000E+00  0.00000000000E+00  0.50579742170E+01  0.52535229304E+01  0.14200000000E+01 0.  1.
          4   -1    0    0  501    0  0.00000000000E+00 -0.00000000000E+00 -0.40696571272E+03  0.40696819007E+03  0.14200000000E+01 0. -1.
         23    2    1    2    0    0  0.00000000000E+00  0.00000000000E+00 -0.40190773850E+03  0.41222171300E+03  0.91634657206E+02 0.  0.
        -13    1    3    3    0    0  0.41515754297E+02  0.17199206707E+02 -0.16075652974E+03  0.16691927268E+03  0.10570000000E+00 0.  1.
         13    1    3    3    0    0 -0.41515754297E+02 -0.17199206707E+02 -0.24115120877E+03  0.24530244032E+03  0.10570000000E+00 0. -1.
<mgrwt>
<rscale>  0 0.91634657E+02</rscale>
<asrwt>0</asrwt>
<pdfrwt beam="2">  1        4 0.62625317E-01 0.91634657E+02</pdfrwt>
<pdfrwt beam="1">  1       -4 0.79338297E-03 0.91634657E+02</pdfrwt>
<totfact> 0.14672558E+04</totfact>
</mgrwt>
</event>
<event>
 5    1  0.1090823E+000  0.9692089E+02  0.7818608E-02  0.1286907E+00
          4   -1    0    0  501    0  0.00000000000E+00  0.00000000000E+00  0.20310461665E+02  0.20360040596E+02  0.14200000000E+01 0. -1.
         -4   -1    0    0    0  501 -0.00000000000E+00 -0.00000000000E+00 -0.11543096499E+03  0.11543969888E+03  0.14200000000E+01 0.  1.
         23    2    1    2    0    0  0.00000000000E+00  0.00000000000E+00 -0.95120503321E+02  0.13579973948E+03  0.96920890885E+02 0.  0.
        -13    1    3    3    0    0  0.27474929149E+02 -0.13247122331E+02 -0.10032290659E+03  0.10485730657E+03  0.10570000000E+00 0.  1.
         13    1    3    3    0    0 -0.27474929149E+02  0.13247122331E+02  0.52024032721E+01  0.30942432905E+02  0.10570000000E+00 0. -1.
<mgrwt>
<rscale>  0 0.96920891E+02</rscale>
<asrwt>0</asrwt>
<pdfrwt beam="1">  1        4 0.31291721E-02 0.96920891E+02</pdfrwt>
<pdfrwt beam="2">  1       -4 0.17763095E-01 0.96920891E+02</pdfrwt>
<totfact> 0.20680634E+04</totfact>
</mgrwt>
</event>
<event>
 5    1  0.1090823E+000  0.9464191E+02  0.7818608E-02  0.1291985E+00
          4   -1    0    0  501    0  0.00000000000E+00  0.00000000000E+00  0.24370109840E+02  0.24411445136E+02  0.14200000000E+01 0. -1.
         -4   -1    0    0    0  501 -0.00000000000E+00 -0.00000000000E+00 -0.91761337578E+02  0.91772324119E+02  0.14200000000E+01 0.  1.
         23    2    1    2    0    0  0.00000000000E+00  0.00000000000E+00 -0.67391227738E+02  0.11618376925E+03  0.94641907536E+02 0.  0.
        -13    1    3    3    0    0 -0.75905729929E+01 -0.22128889489E+02  0.16800345814E+02  0.28802210685E+02  0.10570000000E+00 0. -1.
         13    1    3    3    0    0  0.75905729929E+01  0.22128889489E+02 -0.84191573552E+02  0.87381558570E+02  0.10570000000E+00 0.  1.
<mgrwt>
<rscale>  0 0.94641908E+02</rscale>
<asrwt>0</asrwt>
<pdfrwt beam="1">  1        4 0.37532725E-02 0.94641908E+02</pdfrwt>
<pdfrwt beam="2">  1       -4 0.14121153E-01 0.94641908E+02</pdfrwt>
<totfact> 0.23036194E+04</totfact>
</mgrwt>
</event>
<event>
 5    1  0.1090823E+000  0.9465429E+02  0.7818608E-02  0.1291957E+00
          4   -1    0    0  501    0  0.00000000000E+00  0.00000000000E+00  0.18189649847E+03  0.18190204110E+03  0.14200000000E+01 0. -1.
         -4   -1    0    0    0  501 -0.00000000000E+00 -0.00000000000E+00 -0.12267230151E+02  0.12349143111E+02  0.14200000000E+01 0.  1.
         23    2    1    2    0    0  0.00000000000E+00  0.00000000000E+00  0.16962926832E+03  0.19425118421E+03  0.94654286199E+02 0.  0.
        -13    1    3    3    0    0  0.24213160395E+02 -0.18251936393E+02  0.10241528484E+02  0.32004849579E+02  0.10570000000E+00 0.  1.
         13    1    3    3    0    0 -0.24213160395E+02  0.18251936393E+02  0.15938773983E+03  0.16224633463E+03  0.10570000000E+00 0. -1.
<mgrwt>
<rscale>  0 0.94654286E+02</rscale>
<asrwt>0</asrwt>
<pdfrwt beam="1">  1        4 0.27990804E-01 0.94654286E+02</pdfrwt>
<pdfrwt beam="2">  1       -4 0.18939935E-02 0.94654286E+02</pdfrwt>
<totfact> 0.19557420E+04</totfact>
</mgrwt>
</event>
<event>
 5    1  0.1090823E+000  0.9153620E+02  0.7818608E-02  0.1299174E+00
         -4   -1    0    0    0  501 -0.00000000000E+00  0.00000000000E+00  0.59004499935E+02  0.59021584294E+02  0.14200000000E+01 0.  1.
          4   -1    0    0  501    0  0.00000000000E+00 -0.00000000000E+00 -0.35464573066E+02  0.35492990051E+02  0.14200000000E+01 0. -1.
         23    2    1    2    0    0  0.00000000000E+00  0.00000000000E+00  0.23539926869E+02  0.94514574345E+02  0.91536203803E+02 0.  0.
        -13    1    3    3    0    0 -0.20896585954E+02 -0.40387760434E+02  0.64177240395E+01  0.45924251238E+02  0.10570000000E+00 0.  1.
         13    1    3    3    0    0  0.20896585954E+02  0.40387760434E+02  0.17122202829E+02  0.48590323107E+02  0.10570000000E+00 0. -1.
<mgrwt>
<rscale>  0 0.91536204E+02</rscale>
<asrwt>0</asrwt>
<pdfrwt beam="2">  1        4 0.54595883E-02 0.91536204E+02</pdfrwt>
<pdfrwt beam="1">  1       -4 0.90811155E-02 0.91536204E+02</pdfrwt>
<totfact> 0.26517673E+04</totfact>
</mgrwt>
</event>
<event>
 5    1  0.1090823E+000  0.9066265E+02  0.7818608E-02  0.1301255E+00
         -4   -1    0    0    0  501 -0.00000000000E+00  0.00000000000E+00  0.54910662926E+02  0.54929020590E+02  0.14200000000E+01 0.  1.
          4   -1    0    0  501    0  0.00000000000E+00 -0.00000000000E+00 -0.37385041054E+02  0.37411999340E+02  0.14200000000E+01 0. -1.
         23    2    1    2    0    0  0.00000000000E+00  0.00000000000E+00  0.17525621872E+02  0.92341019930E+02  0.90662652397E+02 0.  0.
        -13    1    3    3    0    0  0.14966158653E+02 -0.18337867745E+02  0.48139271629E+02  0.53643862125E+02  0.10570000000E+00 0.  1.
         13    1    3    3    0    0 -0.14966158653E+02  0.18337867745E+02 -0.30613649757E+02  0.38697157805E+02  0.10570000000E+00 0. -1.
<mgrwt>
<rscale>  0 0.90662652E+02</rscale>
<asrwt>0</asrwt>
<pdfrwt beam="2">  1        4 0.57550306E-02 0.90662652E+02</pdfrwt>
<pdfrwt beam="1">  1       -4 0.84512801E-02 0.90662652E+02</pdfrwt>
<totfact> 0.27357758E+04</totfact>
</mgrwt>
</event>
<event>
 5    1  0.1090823E+000  0.9074757E+02  0.7818608E-02  0.1301051E+00
          4   -1    0    0  501    0  0.00000000000E+00  0.00000000000E+00  0.65484125863E+01  0.67006050026E+01  0.14200000000E+01 0. -1.
         -4   -1    0    0    0  501 -0.00000000000E+00 -0.00000000000E+00 -0.31062853174E+03  0.31063177740E+03  0.14200000000E+01 0.  1.
         23    2    1    2    0    0  0.00000000000E+00  0.00000000000E+00 -0.30408011916E+03  0.31733238241E+03  0.90747573285E+02 0.  0.
        -13    1    3    3    0    0  0.88577158707E+01 -0.40863937528E+02 -0.21365334671E+03  0.21770641758E+03  0.10570000000E+00 0.  1.
         13    1    3    3    0    0 -0.88577158707E+01  0.40863937528E+02 -0.90426772446E+02  0.99625964830E+02  0.10570000000E+00 0. -1.
<mgrwt>
<rscale>  0 0.90747573E+02</rscale>
<asrwt>0</asrwt>
<pdfrwt beam="1">  1        4 0.10194051E-02 0.90747573E+02</pdfrwt>
<pdfrwt beam="2">  1       -4 0.47800951E-01 0.90747573E+02</pdfrwt>
<totfact> 0.17522235E+04</totfact>
</mgrwt>
</event>
<event>
 5    1  0.1090823E+000  0.9089934E+02  0.7818608E-02  0.1300688E+00
         -4   -1    0    0    0  501 -0.00000000000E+00  0.00000000000E+00  0.28191219969E+02  0.28226960222E+02  0.14200000000E+01 0.  1.
          4   -1    0    0  501    0  0.00000000000E+00 -0.00000000000E+00 -0.73184560357E+02  0.73198335190E+02  0.14200000000E+01 0. -1.
         23    2    1    2    0    0  0.00000000000E+00  0.00000000000E+00 -0.44993340387E+02  0.10142529541E+03  0.90899339218E+02 0.  0.
        -13    1    3    3    0    0  0.26296034021E+02  0.26703929481E+02  0.61921426627E+01  0.37985985024E+02  0.10570000000E+00 0.  1.
         13    1    3    3    0    0 -0.26296034021E+02 -0.26703929481E+02 -0.51185483050E+02  0.63439310388E+02  0.10570000000E+00 0. -1.
<mgrwt>
<rscale>  0 0.90899339E+02</rscale>
<asrwt>0</asrwt>
<pdfrwt beam="2">  1        4 0.11262972E-01 0.90899339E+02</pdfrwt>
<pdfrwt beam="1">  1       -4 0.43409196E-02 0.90899339E+02</pdfrwt>
<totfact> 0.26589035E+04</totfact>
</mgrwt>
</event>
<event>
 5    1  0.1090823E+000  0.8927938E+02  0.7818608E-02  0.1304606E+00
          4   -1    0    0  501    0  0.00000000000E+00  0.00000000000E+00  0.17135436330E+02  0.17194172798E+02  0.14200000000E+01 0. -1.
         -4   -1    0    0    0  501 -0.00000000000E+00 -0.00000000000E+00 -0.11602921961E+03  0.11603790847E+03  0.14200000000E+01 0.  1.
         23    2    1    2    0    0  0.00000000000E+00  0.00000000000E+00 -0.98893783276E+02  0.13323208127E+03  0.89279376726E+02 0.  0.
        -13    1    3    3    0    0 -0.60099781856E+01  0.43780116106E+02 -0.58869969184E+02  0.73610480561E+02  0.10570000000E+00 0.  1.
         13    1    3    3    0    0  0.60099781856E+01 -0.43780116106E+02 -0.40023814092E+02  0.59621600708E+02  0.10570000000E+00 0. -1.
<mgrwt>
<rscale>  0 0.89279377E+02</rscale>
<asrwt>0</asrwt>
<pdfrwt beam="1">  1        4 0.26414076E-02 0.89279377E+02</pdfrwt>
<pdfrwt beam="2">  1       -4 0.17855835E-01 0.89279377E+02</pdfrwt>
<totfact> 0.25970587E+04</totfact>
</mgrwt>
</event>
<event>
 5    1  0.1090823E+000  0.9447048E+02  0.7818608E-02  0.1292373E+00
         -4   -1    0    0    0  501 -0.00000000000E+00  0.00000000000E+00  0.10513266018E+03  0.10514224954E+03  0.14200000000E+01 0.  1.
          4   -1    0    0  501    0  0.00000000000E+00 -0.00000000000E+00 -0.21188081551E+02  0.21235611595E+02  0.14200000000E+01 0. -1.
         23    2    1    2    0    0  0.00000000000E+00  0.00000000000E+00  0.83944578633E+02  0.12637786113E+03  0.94470479526E+02 0.  0.
        -13    1    3    3    0    0 -0.39865216021E+02 -0.71497320435E+01  0.74488211459E+02  0.84787138975E+02  0.10570000000E+00 0.  1.
         13    1    3    3    0    0  0.39865216021E+02  0.71497320435E+01  0.94563671742E+01  0.41590722155E+02  0.10570000000E+00 0. -1.
<mgrwt>
<rscale>  0 0.94470480E+02</rscale>
<asrwt>0</asrwt>
<pdfrwt beam="2">  1        4 0.32640986E-02 0.94470480E+02</pdfrwt>
<pdfrwt beam="1">  1       -4 0.16178650E-01 0.94470480E+02</pdfrwt>
<totfact> 0.22630992E+04</totfact>
</mgrwt>
</event>
<event>
 5    1  0.1090823E+000  0.9018953E+02  0.7818608E-02  0.1302393E+00
         -4   -1    0    0    0  501 -0.00000000000E+00  0.00000000000E+00  0.29686984399E+02  0.29720926007E+02  0.14200000000E+01 0. -1.
          4   -1    0    0  501    0  0.00000000000E+00 -0.00000000000E+00 -0.68418851431E+02  0.68433585549E+02  0.14200000000E+01 0.  1.
         23    2    1    2    0    0  0.00000000000E+00  0.00000000000E+00 -0.38731867032E+02  0.98154511556E+02  0.90189526082E+02 0.  0.
        -13    1    3    3    0    0  0.13971763279E+02 -0.24136944997E+02  0.19199773098E+02  0.33859189925E+02  0.10570000000E+00 0. -1.
         13    1    3    3    0    0 -0.13971763279E+02  0.24136944997E+02 -0.57931640130E+02  0.64295321630E+02  0.10570000000E+00 0.  1.
<mgrwt>
<rscale>  0 0.90189526E+02</rscale>
<asrwt>0</asrwt>
<pdfrwt beam="2">  1        4 0.10529721E-01 0.90189526E+02</pdfrwt>
<pdfrwt beam="1">  1       -4 0.45709727E-02 0.90189526E+02</pdfrwt>
<totfact> 0.27367235E+04</totfact>
</mgrwt>
</event>
<event>
 5    1  0.1090823E+000  0.8946467E+02  0.7818608E-02  0.1304153E+00
         -4   -1    0    0    0  501 -0.00000000000E+00  0.00000000000E+00  0.93744678425E+02  0.93755432552E+02  0.14200000000E+01 0.  1.
          4   -1    0    0  501    0  0.00000000000E+00 -0.00000000000E+00 -0.21309408892E+02  0.21356668919E+02  0.14200000000E+01 0. -1.
         23    2    1    2    0    0  0.00000000000E+00  0.00000000000E+00  0.72435269533E+02  0.11511210147E+03  0.89464672541E+02 0.  0.
        -13    1    3    3    0    0  0.24264842589E+02 -0.37547249543E+02  0.38207704517E+02  0.58808319063E+02  0.10570000000E+00 0.  1.
         13    1    3    3    0    0 -0.24264842589E+02  0.37547249543E+02  0.34227565015E+02  0.56303782408E+02  0.10570000000E+00 0. -1.
<mgrwt>
<rscale>  0 0.89464673E+02</rscale>
<asrwt>0</asrwt>
<pdfrwt beam="2">  1        4 0.32828333E-02 0.89464673E+02</pdfrwt>
<pdfrwt beam="1">  1       -4 0.14426721E-01 0.89464673E+02</pdfrwt>
<totfact> 0.26892500E+04</totfact>
</mgrwt>
</event>
<event>
 5    1  0.1090823E+000  0.9127464E+02  0.7818608E-02  0.1299794E+00
          4   -1    0    0  501    0  0.00000000000E+00  0.00000000000E+00  0.30527564888E+03  0.30527895145E+03  0.14200000000E+01 0. -1.
         -4   -1    0    0    0  501 -0.00000000000E+00 -0.00000000000E+00 -0.67453091247E+01  0.68931556770E+01  0.14200000000E+01 0.  1.
         23    2    1    2    0    0  0.00000000000E+00  0.00000000000E+00  0.29853033975E+03  0.31217210712E+03  0.91274644421E+02 0.  0.
        -13    1    3    3    0    0 -0.36718990367E+02 -0.20896889710E+02  0.20828511764E+03  0.21252685867E+03  0.10570000000E+00 0. -1.
         13    1    3    3    0    0  0.36718990367E+02  0.20896889710E+02  0.90245222107E+02  0.99645248451E+02  0.10570000000E+00 0.  1.
<mgrwt>
<rscale>  0 0.91274644E+02</rscale>
<asrwt>0</asrwt>
<pdfrwt beam="1">  1        4 0.46977111E-01 0.91274644E+02</pdfrwt>
<pdfrwt beam="2">  1       -4 0.10493667E-02 0.91274644E+02</pdfrwt>
<totfact> 0.17405462E+04</totfact>
</mgrwt>
</event>
<event>
 5    1  0.1090823E+000  0.8937326E+02  0.7818608E-02  0.1304377E+00
          4   -1    0    0  501    0  0.00000000000E+00  0.00000000000E+00  0.20005949109E+02  0.20056280806E+02  0.14200000000E+01 0.  1.
         -4   -1    0    0    0  501 -0.00000000000E+00 -0.00000000000E+00 -0.99634261110E+02  0.99644379605E+02  0.14200000000E+01 0. -1.
         23    2    1    2    0    0  0.00000000000E+00  0.00000000000E+00 -0.79628312001E+02  0.11970066041E+03  0.89373262393E+02 0.  0.
        -13    1    3    3    0    0  0.19313519733E+02 -0.22921879045E+02 -0.84203723209E+02  0.89379543287E+02  0.10570000000E+00 0. -1.
         13    1    3    3    0    0 -0.19313519733E+02  0.22921879045E+02  0.45754112079E+01  0.30321117124E+02  0.10570000000E+00 0.  1.
<mgrwt>
<rscale>  0 0.89373262E+02</rscale>
<asrwt>0</asrwt>
<pdfrwt beam="1">  1        4 0.30824884E-02 0.89373262E+02</pdfrwt>
<pdfrwt beam="2">  1       -4 0.15332998E-01 0.89373262E+02</pdfrwt>
<totfact> 0.26687920E+04</totfact>
</mgrwt>
</event>
<event>
 5    1  0.1090823E+000  0.9169297E+02  0.7818608E-02  0.1298803E+00
          4   -1    0    0  501    0  0.00000000000E+00  0.00000000000E+00  0.91255422489E+02  0.91266469931E+02  0.14200000000E+01 0.  1.
         -4   -1    0    0    0  501 -0.00000000000E+00 -0.00000000000E+00 -0.22998814933E+02  0.23042610276E+02  0.14200000000E+01 0. -1.
         23    2    1    2    0    0  0.00000000000E+00  0.00000000000E+00  0.68256607556E+02  0.11430908021E+03  0.91692973245E+02 0.  0.
        -13    1    3    3    0    0 -0.20374761498E+02 -0.17746313121E+02  0.80301962532E+02  0.84725904506E+02  0.10570000000E+00 0.  1.
         13    1    3    3    0    0  0.20374761498E+02  0.17746313121E+02 -0.12045354976E+02  0.29583175700E+02  0.10570000000E+00 0. -1.
<mgrwt>
<rscale>  0 0.91692973E+02</rscale>
<asrwt>0</asrwt>
<pdfrwt beam="1">  1        4 0.14043514E-01 0.91692973E+02</pdfrwt>
<pdfrwt beam="2">  1       -4 0.35424979E-02 0.91692973E+02</pdfrwt>
<totfact> 0.25210892E+04</totfact>
</mgrwt>
</event>
<event>
 5    1  0.1090823E+000  0.9611523E+02  0.7818608E-02  0.1288684E+00
         -4   -1    0    0    0  501 -0.00000000000E+00  0.00000000000E+00  0.99184335088E+02  0.99194499479E+02  0.14200000000E+01 0.  1.
          4   -1    0    0  501    0  0.00000000000E+00 -0.00000000000E+00 -0.23252253273E+02  0.23295572160E+02  0.14200000000E+01 0. -1.
         23    2    1    2    0    0  0.00000000000E+00  0.00000000000E+00  0.75932081815E+02  0.12249007164E+03  0.96115225649E+02 0.  0.
        -13    1    3    3    0    0  0.35455712381E+02  0.28790307058E+01  0.79145940449E+02  0.86772619070E+02  0.10570000000E+00 0.  1.
         13    1    3    3    0    0 -0.35455712381E+02 -0.28790307058E+01 -0.32138586342E+01  0.35717452569E+02  0.10570000000E+00 0. -1.
<mgrwt>
<rscale>  0 0.96115226E+02</rscale>
<asrwt>0</asrwt>
<pdfrwt beam="2">  1        4 0.35813838E-02 0.96115226E+02</pdfrwt>
<pdfrwt beam="1">  1       -4 0.15263243E-01 0.96115226E+02</pdfrwt>
<totfact> 0.21779004E+04</totfact>
</mgrwt>
</event>
<event>
 5    1  0.1090823E+000  0.9110541E+02  0.7818608E-02  0.1300197E+00
          4   -1    0    0  501    0  0.00000000000E+00  0.00000000000E+00  0.15525206913E+03  0.15525856295E+03  0.14200000000E+01 0. -1.
         -4   -1    0    0    0  501 -0.00000000000E+00 -0.00000000000E+00 -0.13321167498E+02  0.13396637769E+02  0.14200000000E+01 0.  1.
         23    2    1    2    0    0  0.00000000000E+00  0.00000000000E+00  0.14193090163E+03  0.16865520072E+03  0.91105410879E+02 0.  0.
        -13    1    3    3    0    0 -0.35441478479E+02  0.27220478169E+02  0.54617586425E+02  0.70570140625E+02  0.10570000000E+00 0.  1.
         13    1    3    3    0    0  0.35441478479E+02 -0.27220478169E+02  0.87313315209E+02  0.98085060095E+02  0.10570000000E+00 0. -1.
<mgrwt>
<rscale>  0 0.91105411E+02</rscale>
<asrwt>0</asrwt>
<pdfrwt beam="1">  1        4 0.23891237E-01 0.91105411E+02</pdfrwt>
<pdfrwt beam="2">  1       -4 0.20557155E-02 0.91105411E+02</pdfrwt>
<totfact> 0.22818269E+04</totfact>
</mgrwt>
</event>
<event>
 5    1  0.1090823E+000  0.9324493E+02  0.7818608E-02  0.1295179E+00
          4   -1    0    0  501    0  0.00000000000E+00  0.00000000000E+00  0.29253471840E+02  0.29287915848E+02  0.14200000000E+01 0. -1.
         -4   -1    0    0    0  501 -0.00000000000E+00 -0.00000000000E+00 -0.74219186389E+02  0.74232769234E+02  0.14200000000E+01 0.  1.
         23    2    1    2    0    0  0.00000000000E+00  0.00000000000E+00 -0.44965714548E+02  0.10352068508E+03  0.93244928843E+02 0.  0.
        -13    1    3    3    0    0 -0.36153691037E+02  0.28704028450E+02 -0.29731751500E+02  0.54909005132E+02  0.10570000000E+00 0.  1.
         13    1    3    3    0    0  0.36153691037E+02 -0.28704028450E+02 -0.15233963048E+02  0.48611679949E+02  0.10570000000E+00 0. -1.
<mgrwt>
<rscale>  0 0.93244929E+02</rscale>
<asrwt>0</asrwt>
<pdfrwt beam="1">  1        4 0.45042285E-02 0.93244929E+02</pdfrwt>
<pdfrwt beam="2">  1       -4 0.11422031E-01 0.93244929E+02</pdfrwt>
<totfact> 0.24690025E+04</totfact>
</mgrwt>
</event>
<event>
 5    1  0.1090823E+000  0.8949965E+02  0.7818608E-02  0.1304068E+00
         -4   -1    0    0    0  501 -0.00000000000E+00  0.00000000000E+00  0.44533928734E+02  0.44556561902E+02  0.14200000000E+01 0.  1.
          4   -1    0    0  501    0  0.00000000000E+00 -0.00000000000E+00 -0.44921492876E+02  0.44943930872E+02  0.14200000000E+01 0. -1.
         23    2    1    2    0    0  0.00000000000E+00  0.00000000000E+00 -0.38756414178E+00  0.89500492773E+02  0.89499653635E+02 0.  0.
        -13    1    3    3    0    0  0.42253691420E+02 -0.79997512801E+01  0.12182333664E+02  0.44696654071E+02  0.10570000000E+00 0.  1.
         13    1    3    3    0    0 -0.42253691420E+02  0.79997512801E+01 -0.12569897805E+02  0.44803838702E+02  0.10570000000E+00 0. -1.
<mgrwt>
<rscale>  0 0.89499654E+02</rscale>
<asrwt>0</asrwt>
<pdfrwt beam="2">  1        4 0.69144659E-02 0.89499654E+02</pdfrwt>
<pdfrwt beam="1">  1       -4 0.68548407E-02 0.89499654E+02</pdfrwt>
<totfact> 0.28523049E+04</totfact>
</mgrwt>
</event>
<event>
 5    1  0.1090823E+000  0.8881917E+02  0.7818608E-02  0.1305737E+00
         -4   -1    0    0    0  501 -0.00000000000E+00  0.00000000000E+00  0.78030124094E+02  0.78043043676E+02  0.14200000000E+01 0.  1.
          4   -1    0    0  501    0  0.00000000000E+00 -0.00000000000E+00 -0.25240027318E+02  0.25279940249E+02  0.14200000000E+01 0. -1.
         23    2    1    2    0    0  0.00000000000E+00  0.00000000000E+00  0.52790096776E+02  0.10332298393E+03  0.88819168480E+02 0.  0.
        -13    1    3    3    0    0 -0.31784514994E+02 -0.13519753188E+02  0.58866657224E+02  0.68251986234E+02  0.10570000000E+00 0. -1.
         13    1    3    3    0    0  0.31784514994E+02  0.13519753188E+02 -0.60765604476E+01  0.35070997691E+02  0.10570000000E+00 0.  1.
<mgrwt>
<rscale>  0 0.88819168E+02</rscale>
<asrwt>0</asrwt>
<pdfrwt beam="2">  1        4 0.38871451E-02 0.88819168E+02</pdfrwt>
<pdfrwt beam="1">  1       -4 0.12008699E-01 0.88819168E+02</pdfrwt>
<totfact> 0.28177538E+04</totfact>
</mgrwt>
</event>
<event>
 4    1  0.1090823E+000  0.2693332E+03  0.7818608E-02  0.1101662E+00
         -4   -1    0    0    0  501 -0.00000000000E+00  0.00000000000E+00  0.10568358123E+03  0.10569312060E+03  0.14200000000E+01 0. -1.
          4   -1    0    0  501    0  0.00000000000E+00 -0.00000000000E+00 -0.17157785056E+03  0.17158372650E+03  0.14200000000E+01 0.  1.
        -13    1    1    2    0    0  0.62535450313E+01 -0.36483711003E+02 -0.16624536579E+03  0.17031647253E+03  0.10570000000E+00 0.  1.
         13    1    1    2    0    0 -0.62535450313E+01  0.36483711003E+02  0.10035109647E+03  0.10696037457E+03  0.10570000000E+00 0. -1.
<mgrwt>
<rscale>  0 0.26933324E+03</rscale>
<asrwt>0</asrwt>
<pdfrwt beam="2">  1        4 0.26397778E-01 0.26933324E+03</pdfrwt>
<pdfrwt beam="1">  1       -4 0.16260198E-01 0.26933324E+03</pdfrwt>
<totfact> 0.82753924E+02</totfact>
</mgrwt>
</event>
<event>
 5    1  0.1090823E+000  0.9075555E+02  0.7818608E-02  0.1301032E+00
          4   -1    0    0  501    0  0.00000000000E+00  0.00000000000E+00  0.16597049744E+02  0.16657684719E+02  0.14200000000E+01 0. -1.
         -4   -1    0    0    0  501 -0.00000000000E+00 -0.00000000000E+00 -0.12377583443E+03  0.12378397954E+03  0.14200000000E+01 0.  1.
         23    2    1    2    0    0  0.00000000000E+00  0.00000000000E+00 -0.10717878469E+03  0.14044166426E+03  0.90755546228E+02 0.  0.
        -13    1    3    3    0    0  0.11216208959E+02 -0.43905641554E+02 -0.49920083189E+02  0.67420579808E+02  0.10570000000E+00 0. -1.
         13    1    3    3    0    0 -0.11216208959E+02  0.43905641554E+02 -0.57258701501E+02  0.73021084447E+02  0.10570000000E+00 0.  1.
<mgrwt>
<rscale>  0 0.90755546E+02</rscale>
<asrwt>0</asrwt>
<pdfrwt beam="1">  1        4 0.25586831E-02 0.90755546E+02</pdfrwt>
<pdfrwt beam="2">  1       -4 0.19047726E-01 0.90755546E+02</pdfrwt>
<totfact> 0.24465241E+04</totfact>
</mgrwt>
</event>
<event>
 5    1  0.1090823E+000  0.8839107E+02  0.7818608E-02  0.1306795E+00
         -4   -1    0    0    0  501 -0.00000000000E+00  0.00000000000E+00  0.23763862865E+02  0.23806250823E+02  0.14200000000E+01 0.  1.
          4   -1    0    0  501    0  0.00000000000E+00 -0.00000000000E+00 -0.82072157901E+02  0.82084441294E+02  0.14200000000E+01 0. -1.
         23    2    1    2    0    0  0.00000000000E+00  0.00000000000E+00 -0.58308295037E+02  0.10589069212E+03  0.88391070856E+02 0.  0.
        -13    1    3    3    0    0 -0.10787111073E+02 -0.34250718666E+02 -0.60018356726E+02  0.69940602021E+02  0.10570000000E+00 0. -1.
         13    1    3    3    0    0  0.10787111073E+02  0.34250718666E+02  0.17100616897E+01  0.35950090096E+02  0.10570000000E+00 0.  1.
<mgrwt>
<rscale>  0 0.88391071E+02</rscale>
<asrwt>0</asrwt>
<pdfrwt beam="2">  1        4 0.12630691E-01 0.88391071E+02</pdfrwt>
<pdfrwt beam="1">  1       -4 0.36601844E-02 0.88391071E+02</pdfrwt>
<totfact> 0.28376279E+04</totfact>
</mgrwt>
</event>
<event>
 5    1  0.1090823E+000  0.9122237E+02  0.7818608E-02  0.1299918E+00
         -4   -1    0    0    0  501 -0.00000000000E+00  0.00000000000E+00  0.12692244219E+03  0.12693038538E+03  0.14200000000E+01 0.  1.
          4   -1    0    0  501    0  0.00000000000E+00 -0.00000000000E+00 -0.16351729553E+02  0.16413270831E+02  0.14200000000E+01 0. -1.
         23    2    1    2    0    0  0.00000000000E+00  0.00000000000E+00  0.11057071264E+03  0.14334365621E+03  0.91222372703E+02 0.  0.
        -13    1    3    3    0    0  0.19931678983E+01  0.41232889626E+02  0.24805520577E+02  0.48160657478E+02  0.10570000000E+00 0. -1.
         13    1    3    3    0    0 -0.19931678983E+01 -0.41232889626E+02  0.85765192064E+02  0.95182998731E+02  0.10570000000E+00 0.  1.
<mgrwt>
<rscale>  0 0.91222373E+02</rscale>
<asrwt>0</asrwt>
<pdfrwt beam="2">  1        4 0.25209958E-02 0.91222373E+02</pdfrwt>
<pdfrwt beam="1">  1       -4 0.19531874E-01 0.91222373E+02</pdfrwt>
<totfact> 0.23979394E+04</totfact>
</mgrwt>
</event>
<event>
 5    1  0.1090823E+000  0.8789750E+02  0.7818608E-02  0.1308025E+00
          4   -1    0    0  501    0  0.00000000000E+00  0.00000000000E+00  0.73059125567E+02  0.73072924046E+02  0.14200000000E+01 0.  1.
         -4   -1    0    0    0  501 -0.00000000000E+00 -0.00000000000E+00 -0.26402016782E+02  0.26440175683E+02  0.14200000000E+01 0. -1.
         23    2    1    2    0    0  0.00000000000E+00  0.00000000000E+00  0.46657108785E+02  0.99513099729E+02  0.87897504045E+02 0.  0.
        -13    1    3    3    0    0 -0.52710766644E+01 -0.23515077734E+02  0.64937752962E+02  0.69265186510E+02  0.10570000000E+00 0.  1.
         13    1    3    3    0    0  0.52710766644E+01  0.23515077734E+02 -0.18280644177E+02  0.30247913218E+02  0.10570000000E+00 0. -1.
<mgrwt>
<rscale>  0 0.87897504E+02</rscale>
<asrwt>0</asrwt>
<pdfrwt beam="1">  1        4 0.11243862E-01 0.87897504E+02</pdfrwt>
<pdfrwt beam="2">  1       -4 0.40658455E-02 0.87897504E+02</pdfrwt>
<totfact> 0.29240694E+04</totfact>
</mgrwt>
</event>
<event>
 5    1  0.1090823E+000  0.9133101E+02  0.7818608E-02  0.1299660E+00
         -4   -1    0    0    0  501 -0.00000000000E+00  0.00000000000E+00  0.54549631397E+02  0.54568110519E+02  0.14200000000E+01 0. -1.
          4   -1    0    0  501    0  0.00000000000E+00 -0.00000000000E+00 -0.38190125741E+02  0.38216516117E+02  0.14200000000E+01 0.  1.
         23    2    1    2    0    0  0.00000000000E+00  0.00000000000E+00  0.16359505656E+02  0.92784626635E+02  0.91331010695E+02 0.  0.
        -13    1    3    3    0    0  0.16011579542E+02 -0.30060324889E+02 -0.22723690961E+02  0.40943511271E+02  0.10570000000E+00 0.  1.
         13    1    3    3    0    0 -0.16011579542E+02  0.30060324889E+02  0.39083196617E+02  0.51841115364E+02  0.10570000000E+00 0. -1.
<mgrwt>
<rscale>  0 0.91331011E+02</rscale>
<asrwt>0</asrwt>
<pdfrwt beam="2">  1        4 0.58788555E-02 0.91331011E+02</pdfrwt>
<pdfrwt beam="1">  1       -4 0.83957025E-02 0.91331011E+02</pdfrwt>
<totfact> 0.26789882E+04</totfact>
</mgrwt>
</event>
<event>
 5    1  0.1090823E+000  0.9042233E+02  0.7818608E-02  0.1301832E+00
         -4   -1    0    0    0  501 -0.00000000000E+00  0.00000000000E+00  0.40849461745E+02  0.40874135157E+02  0.14200000000E+01 0.  1.
          4   -1    0    0  501    0  0.00000000000E+00 -0.00000000000E+00 -0.49988727821E+02  0.50008892301E+02  0.14200000000E+01 0. -1.
         23    2    1    2    0    0  0.00000000000E+00  0.00000000000E+00 -0.91392660768E+01  0.90883027458E+02  0.90422334053E+02 0.  0.
        -13    1    3    3    0    0  0.39473244165E+02 -0.16218503098E+02  0.10434976494E+02  0.43932638830E+02  0.10570000000E+00 0.  1.
         13    1    3    3    0    0 -0.39473244165E+02  0.16218503098E+02 -0.19574242571E+02  0.46950388628E+02  0.10570000000E+00 0. -1.
<mgrwt>
<rscale>  0 0.90422334E+02</rscale>
<asrwt>0</asrwt>
<pdfrwt beam="2">  1        4 0.76940226E-02 0.90422334E+02</pdfrwt>
<pdfrwt beam="1">  1       -4 0.62879817E-02 0.90422334E+02</pdfrwt>
<totfact> 0.27651062E+04</totfact>
</mgrwt>
</event>
<event>
 5    1  0.1090823E+000  0.9126247E+02  0.7818608E-02  0.1299823E+00
          4   -1    0    0  501    0  0.00000000000E+00  0.00000000000E+00  0.78428564479E+01  0.79703699577E+01  0.14200000000E+01 0. -1.
         -4   -1    0    0    0  501 -0.00000000000E+00 -0.00000000000E+00 -0.26322091168E+03  0.26322474189E+03  0.14200000000E+01 0.  1.
         23    2    1    2    0    0  0.00000000000E+00  0.00000000000E+00 -0.25537805523E+03  0.27119511185E+03  0.91262465442E+02 0.  0.
        -13    1    3    3    0    0  0.39582669486E+02  0.29545971940E+00 -0.60231641194E+02  0.72074522499E+02  0.10570000000E+00 0. -1.
         13    1    3    3    0    0 -0.39582669486E+02 -0.29545971940E+00 -0.19514641404E+03  0.19912058935E+03  0.10570000000E+00 0.  1.
<mgrwt>
<rscale>  0 0.91262465E+02</rscale>
<asrwt>0</asrwt>
<pdfrwt beam="1">  1        4 0.12166969E-02 0.91262465E+02</pdfrwt>
<pdfrwt beam="2">  1       -4 0.40505622E-01 0.91262465E+02</pdfrwt>
<totfact> 0.18689999E+04</totfact>
</mgrwt>
</event>
<event>
 5    1  0.1090823E+000  0.9084986E+02  0.7818608E-02  0.1300807E+00
          4   -1    0    0  501    0  0.00000000000E+00  0.00000000000E+00  0.10948251517E+03  0.10949172356E+03  0.14200000000E+01 0.  1.
         -4   -1    0    0    0  501 -0.00000000000E+00 -0.00000000000E+00 -0.18810304442E+02  0.18863826579E+02  0.14200000000E+01 0. -1.
         23    2    1    2    0    0  0.00000000000E+00  0.00000000000E+00  0.90672210730E+02  0.12835555014E+03  0.90849862152E+02 0.  0.
        -13    1    3    3    0    0 -0.37174269038E+02  0.25520250178E+02  0.53100735329E+02  0.69662821596E+02  0.10570000000E+00 0.  1.
         13    1    3    3    0    0  0.37174269038E+02 -0.25520250178E+02  0.37571475400E+02  0.58692728544E+02  0.10570000000E+00 0. -1.
<mgrwt>
<rscale>  0 0.90849862E+02</rscale>
<asrwt>0</asrwt>
<pdfrwt beam="1">  1        4 0.16848289E-01 0.90849862E+02</pdfrwt>
<pdfrwt beam="2">  1       -4 0.28987185E-02 0.90849862E+02</pdfrwt>
<totfact> 0.25049054E+04</totfact>
</mgrwt>
</event>
<event>
 5    1  0.1090823E+000  0.9263924E+02  0.7818608E-02  0.1296583E+00
          4   -1    0    0  501    0  0.00000000000E+00  0.00000000000E+00  0.73383087002E+02  0.73396824577E+02  0.14200000000E+01 0. -1.
         -4   -1    0    0    0  501 -0.00000000000E+00 -0.00000000000E+00 -0.29203354126E+02  0.29237857175E+02  0.14200000000E+01 0.  1.
         23    2    1    2    0    0  0.00000000000E+00  0.00000000000E+00  0.44179732876E+02  0.10263468175E+03  0.92639241692E+02 0.  0.
        -13    1    3    3    0    0  0.47853226990E+01 -0.22189316346E+02 -0.22642690784E+02  0.32061935245E+02  0.10570000000E+00 0.  1.
         13    1    3    3    0    0 -0.47853226990E+01  0.22189316346E+02  0.66822423660E+02  0.70572746507E+02  0.10570000000E+00 0. -1.
<mgrwt>
<rscale>  0 0.92639242E+02</rscale>
<asrwt>0</asrwt>
<pdfrwt beam="1">  1        4 0.11293416E-01 0.92639242E+02</pdfrwt>
<pdfrwt beam="2">  1       -4 0.44965346E-02 0.92639242E+02</pdfrwt>
<totfact> 0.25183332E+04</totfact>
</mgrwt>
</event>
<event>
 5    1  0.1090823E+000  0.9198389E+02  0.7818608E-02  0.1298117E+00
          4   -1    0    0  501    0  0.00000000000E+00  0.00000000000E+00  0.67794143672E+02  0.67809013532E+02  0.14200000000E+01 0.  1.
         -4   -1    0    0    0  501 -0.00000000000E+00 -0.00000000000E+00 -0.31166744509E+02  0.31199076321E+02  0.14200000000E+01 0. -1.
         23    2    1    2    0    0  0.00000000000E+00  0.00000000000E+00  0.36627399163E+02  0.99008089853E+02  0.91983887105E+02 0.  0.
        -13    1    3    3    0    0 -0.23856040389E+02  0.16646024366E+02  0.56657730075E+02  0.63689169723E+02  0.10570000000E+00 0.  1.
         13    1    3    3    0    0  0.23856040389E+02 -0.16646024366E+02 -0.20030330912E+02  0.35318920130E+02  0.10570000000E+00 0. -1.
<mgrwt>
<rscale>  0 0.91983887E+02</rscale>
<asrwt>0</asrwt>
<pdfrwt beam="1">  1        4 0.10433499E-01 0.91983887E+02</pdfrwt>
<pdfrwt beam="2">  1       -4 0.47985147E-02 0.91983887E+02</pdfrwt>
<totfact> 0.25892119E+04</totfact>
</mgrwt>
</event>
<event>
 5    1  0.1090823E+000  0.8937175E+02  0.7818608E-02  0.1304380E+00
          4   -1    0    0  501    0  0.00000000000E+00  0.00000000000E+00  0.69766222796E+02  0.69780672418E+02  0.14200000000E+01 0. -1.
         -4   -1    0    0    0  501 -0.00000000000E+00 -0.00000000000E+00 -0.28586654290E+02  0.28621900767E+02  0.14200000000E+01 0.  1.
         23    2    1    2    0    0  0.00000000000E+00  0.00000000000E+00  0.41179568505E+02  0.98402573186E+02  0.89371749156E+02 0.  0.
        -13    1    3    3    0    0 -0.43781630089E+02  0.88223647786E+01  0.18974970481E+02  0.48525518346E+02  0.10570000000E+00 0.  1.
         13    1    3    3    0    0  0.43781630089E+02 -0.88223647786E+01  0.22204598024E+02  0.49877054839E+02  0.10570000000E+00 0. -1.
<mgrwt>
<rscale>  0 0.89371749E+02</rscale>
<asrwt>0</asrwt>
<pdfrwt beam="1">  1        4 0.10737088E-01 0.89371749E+02</pdfrwt>
<pdfrwt beam="2">  1       -4 0.44017696E-02 0.89371749E+02</pdfrwt>
<totfact> 0.28032267E+04</totfact>
</mgrwt>
</event>
<event>
 5    1  0.1090823E+000  0.9140054E+02  0.7818608E-02  0.1299495E+00
         -4   -1    0    0    0  501 -0.00000000000E+00  0.00000000000E+00  0.33538625454E+02  0.33568672856E+02  0.14200000000E+01 0.  1.
          4   -1    0    0  501    0  0.00000000000E+00 -0.00000000000E+00 -0.62205883157E+02  0.62222088516E+02  0.14200000000E+01 0. -1.
         23    2    1    2    0    0  0.00000000000E+00  0.00000000000E+00 -0.28667257703E+02  0.95790761372E+02  0.91400537745E+02 0.  0.
        -13    1    3    3    0    0 -0.26806956512E+02 -0.31802440694E+02  0.55097935751E+01  0.41956848658E+02  0.10570000000E+00 0. -1.
         13    1    3    3    0    0  0.26806956512E+02  0.31802440694E+02 -0.34177051278E+02  0.53833912714E+02  0.10570000000E+00 0.  1.
<mgrwt>
<rscale>  0 0.91400538E+02</rscale>
<asrwt>0</asrwt>
<pdfrwt beam="2">  1        4 0.95736938E-02 0.91400538E+02</pdfrwt>
<pdfrwt beam="1">  1       -4 0.51633464E-02 0.91400538E+02</pdfrwt>
<totfact> 0.26544247E+04</totfact>
</mgrwt>
</event>
<event>
 5    1  0.1090823E+000  0.9041097E+02  0.7818608E-02  0.1301860E+00
         -4   -1    0    0    0  501 -0.00000000000E+00  0.00000000000E+00  0.40186191725E+02  0.40211272118E+02  0.14200000000E+01 0.  1.
          4   -1    0    0  501    0  0.00000000000E+00 -0.00000000000E+00 -0.50800822279E+02  0.50820664539E+02  0.14200000000E+01 0. -1.
         23    2    1    2    0    0  0.00000000000E+00  0.00000000000E+00 -0.10614630554E+02  0.91031936657E+02  0.90410967862E+02 0.  0.
        -13    1    3    3    0    0 -0.51663900806E+01  0.25783518922E+02  0.31715372383E+02  0.41198998196E+02  0.10570000000E+00 0.  1.
         13    1    3    3    0    0  0.51663900806E+01 -0.25783518922E+02 -0.42330002938E+02  0.49832938461E+02  0.10570000000E+00 0. -1.
<mgrwt>
<rscale>  0 0.90410968E+02</rscale>
<asrwt>0</asrwt>
<pdfrwt beam="2">  1        4 0.78189667E-02 0.90410968E+02</pdfrwt>
<pdfrwt beam="1">  1       -4 0.61859467E-02 0.90410968E+02</pdfrwt>
<totfact> 0.27650705E+04</totfact>
</mgrwt>
</event>
<event>
 5    1  0.1090823E+000  0.9090545E+02  0.7818608E-02  0.1300674E+00
         -4   -1    0    0    0  501 -0.00000000000E+00  0.00000000000E+00  0.21696040566E+02  0.21742460216E+02  0.14200000000E+01 0.  1.
          4   -1    0    0  501    0  0.00000000000E+00 -0.00000000000E+00 -0.95068974409E+02  0.95079578750E+02  0.14200000000E+01 0. -1.
         23    2    1    2    0    0  0.00000000000E+00  0.00000000000E+00 -0.73372933843E+02  0.11682203897E+03  0.90905452901E+02 0.  0.
        -13    1    3    3    0    0 -0.55938039509E+01  0.45104492554E+02 -0.37307152755E+02  0.58800856374E+02  0.10570000000E+00 0. -1.
         13    1    3    3    0    0  0.55938039509E+01 -0.45104492554E+02 -0.36065781089E+02  0.58021182591E+02  0.10570000000E+00 0.  1.
<mgrwt>
<rscale>  0 0.90905453E+02</rscale>
<asrwt>0</asrwt>
<pdfrwt beam="2">  1        4 0.14630382E-01 0.90905453E+02</pdfrwt>
<pdfrwt beam="1">  1       -4 0.33422389E-02 0.90905453E+02</pdfrwt>
<totfact> 0.25660075E+04</totfact>
</mgrwt>
</event>
<event>
 5    1  0.1090823E+000  0.9058500E+02  0.7818608E-02  0.1301441E+00
         -4   -1    0    0    0  501 -0.00000000000E+00  0.00000000000E+00  0.49217572540E+02  0.49238052832E+02  0.14200000000E+01 0.  1.
          4   -1    0    0  501    0  0.00000000000E+00 -0.00000000000E+00 -0.41639193845E+02  0.41663399574E+02  0.14200000000E+01 0. -1.
         23    2    1    2    0    0  0.00000000000E+00  0.00000000000E+00  0.75783786952E+01  0.90901452406E+02  0.90585000005E+02 0.  0.
        -13    1    3    3    0    0 -0.17560732816E+02  0.30902085656E+02  0.31960042729E+02  0.47799306885E+02  0.10570000000E+00 0.  1.
         13    1    3    3    0    0  0.17560732816E+02 -0.30902085656E+02 -0.24381664034E+02  0.43102145521E+02  0.10570000000E+00 0. -1.
<mgrwt>
<rscale>  0 0.90585000E+02</rscale>
<asrwt>0</asrwt>
<pdfrwt beam="2">  1        4 0.64094672E-02 0.90585000E+02</pdfrwt>
<pdfrwt beam="1">  1       -4 0.75753717E-02 0.90585000E+02</pdfrwt>
<totfact> 0.27515595E+04</totfact>
</mgrwt>
</event>
<event>
 5    1  0.1090823E+000  0.9102055E+02  0.7818608E-02  0.1300399E+00
         -4   -1    0    0    0  501 -0.00000000000E+00  0.00000000000E+00  0.15742615363E+03  0.15743255777E+03  0.14200000000E+01 0.  1.
          4   -1    0    0  501    0  0.00000000000E+00 -0.00000000000E+00 -0.13111542810E+02  0.13188212724E+02  0.14200000000E+01 0. -1.
         23    2    1    2    0    0  0.00000000000E+00  0.00000000000E+00  0.14431461082E+03  0.17062077050E+03  0.91020549486E+02 0.  0.
        -13    1    3    3    0    0  0.29391367554E+02  0.82599691704E+01  0.13542358498E+03  0.13882232572E+03  0.10570000000E+00 0.  1.
         13    1    3    3    0    0 -0.29391367554E+02 -0.82599691704E+01  0.88910258459E+01  0.31798444781E+02  0.10570000000E+00 0. -1.
<mgrwt>
<rscale>  0 0.91020549E+02</rscale>
<asrwt>0</asrwt>
<pdfrwt beam="2">  1        4 0.20235506E-02 0.91020549E+02</pdfrwt>
<pdfrwt beam="1">  1       -4 0.24225800E-01 0.91020549E+02</pdfrwt>
<totfact> 0.22783650E+04</totfact>
</mgrwt>
</event>
<event>
 5    1  0.1090823E+000  0.9006147E+02  0.7818608E-02  0.1302703E+00
          4   -1    0    0  501    0  0.00000000000E+00  0.00000000000E+00  0.74066845966E+02  0.74080456744E+02  0.14200000000E+01 0. -1.
         -4   -1    0    0    0  501 -0.00000000000E+00 -0.00000000000E+00 -0.27342973183E+02  0.27379820717E+02  0.14200000000E+01 0.  1.
         23    2    1    2    0    0  0.00000000000E+00  0.00000000000E+00  0.46723872783E+02  0.10146027746E+03  0.90061465759E+02 0.  0.
        -13    1    3    3    0    0  0.27583898571E+02 -0.44773267675E+01 -0.16417810694E+02  0.32411010411E+02  0.10570000000E+00 0.  1.
         13    1    3    3    0    0 -0.27583898571E+02  0.44773267675E+01  0.63141683477E+02  0.69049267050E+02  0.10570000000E+00 0. -1.
<mgrwt>
<rscale>  0 0.90061466E+02</rscale>
<asrwt>0</asrwt>
<pdfrwt beam="1">  1        4 0.11398781E-01 0.90061466E+02</pdfrwt>
<pdfrwt beam="2">  1       -4 0.42104927E-02 0.90061466E+02</pdfrwt>
<totfact> 0.27260311E+04</totfact>
</mgrwt>
</event>
<event>
 5    1  0.1090823E+000  0.8413667E+02  0.7818608E-02  0.1317706E+00
          4   -1    0    0  501    0  0.00000000000E+00  0.00000000000E+00  0.52165666659E+02  0.52184989969E+02  0.14200000000E+01 0. -1.
         -4   -1    0    0    0  501 -0.00000000000E+00 -0.00000000000E+00 -0.33884992053E+02  0.33914732587E+02  0.14200000000E+01 0.  1.
         23    2    1    2    0    0  0.00000000000E+00  0.00000000000E+00  0.18280674607E+02  0.86099722555E+02  0.84136669532E+02 0.  0.
        -13    1    3    3    0    0 -0.15707719989E+02  0.37617653283E+02 -0.14901689064E+01  0.40792794482E+02  0.10570000000E+00 0. -1.
         13    1    3    3    0    0  0.15707719989E+02 -0.37617653283E+02  0.19770843513E+02  0.45306928074E+02  0.10570000000E+00 0.  1.
<mgrwt>
<rscale>  0 0.84136670E+02</rscale>
<asrwt>0</asrwt>
<pdfrwt beam="1">  1        4 0.80292613E-02 0.84136670E+02</pdfrwt>
<pdfrwt beam="2">  1       -4 0.52168499E-02 0.84136670E+02</pdfrwt>
<totfact> 0.33967593E+04</totfact>
</mgrwt>
</event>
<event>
 5    1  0.1090823E+000  0.8950287E+02  0.7818608E-02  0.1304060E+00
          4   -1    0    0  501    0  0.00000000000E+00  0.00000000000E+00  0.37685603464E+02  0.37712346896E+02  0.14200000000E+01 0. -1.
         -4   -1    0    0    0  501 -0.00000000000E+00 -0.00000000000E+00 -0.53086975494E+02  0.53105963574E+02  0.14200000000E+01 0.  1.
         23    2    1    2    0    0  0.00000000000E+00  0.00000000000E+00 -0.15401372030E+02  0.90818310470E+02  0.89502867307E+02 0.  0.
        -13    1    3    3    0    0 -0.43821948056E+02 -0.43443109424E+01 -0.15782892521E+02  0.46779771673E+02  0.10570000000E+00 0.  1.
         13    1    3    3    0    0  0.43821948056E+02  0.43443109424E+01  0.38152049114E+00  0.44038538797E+02  0.10570000000E+00 0. -1.
<mgrwt>
<rscale>  0 0.89502867E+02</rscale>
<asrwt>0</asrwt>
<pdfrwt beam="1">  1        4 0.58013029E-02 0.89502867E+02</pdfrwt>
<pdfrwt beam="2">  1       -4 0.81707449E-02 0.89502867E+02</pdfrwt>
<totfact> 0.28430284E+04</totfact>
</mgrwt>
</event>
<event>
 5    1  0.1090823E+000  0.9084182E+02  0.7818608E-02  0.1300826E+00
          4   -1    0    0  501    0  0.00000000000E+00  0.00000000000E+00  0.38054513036E+02  0.38080997393E+02  0.14200000000E+01 0. -1.
         -4   -1    0    0    0  501 -0.00000000000E+00 -0.00000000000E+00 -0.54158606103E+02  0.54177218598E+02  0.14200000000E+01 0.  1.
         23    2    1    2    0    0  0.00000000000E+00  0.00000000000E+00 -0.16104093066E+02  0.92258215990E+02  0.90841821890E+02 0.  0.
        -13    1    3    3    0    0 -0.38811048362E+02  0.23177825009E+02 -0.12541253432E+02  0.46912719567E+02  0.10570000000E+00 0.  1.
         13    1    3    3    0    0  0.38811048362E+02 -0.23177825009E+02 -0.35628396345E+01  0.45345496423E+02  0.10570000000E+00 0. -1.
<mgrwt>
<rscale>  0 0.90841822E+02</rscale>
<asrwt>0</asrwt>
<pdfrwt beam="1">  1        4 0.58580095E-02 0.90841822E+02</pdfrwt>
<pdfrwt beam="2">  1       -4 0.83355622E-02 0.90841822E+02</pdfrwt>
<totfact> 0.27217369E+04</totfact>
</mgrwt>
</event>
<event>
 5    1  0.1090823E+000  0.9209042E+02  0.7818608E-02  0.1297867E+00
          4   -1    0    0  501    0  0.00000000000E+00  0.00000000000E+00  0.92490781620E+01  0.93574487360E+01  0.14200000000E+01 0. -1.
         -4   -1    0    0    0  501 -0.00000000000E+00 -0.00000000000E+00 -0.22778378945E+03  0.22778821553E+03  0.14200000000E+01 0.  1.
         23    2    1    2    0    0  0.00000000000E+00  0.00000000000E+00 -0.21853471129E+03  0.23714566427E+03  0.92090423196E+02 0.  0.
        -13    1    3    3    0    0 -0.45611565452E+01  0.41423714478E+02 -0.58843125886E+02  0.72105845163E+02  0.10570000000E+00 0. -1.
         13    1    3    3    0    0  0.45611565452E+01 -0.41423714478E+02 -0.15969158540E+03  0.16503981911E+03  0.10570000000E+00 0.  1.
<mgrwt>
<rscale>  0 0.92090423E+02</rscale>
<asrwt>0</asrwt>
<pdfrwt beam="1">  1        4 0.14316119E-02 0.92090423E+02</pdfrwt>
<pdfrwt beam="2">  1       -4 0.35052332E-01 0.92090423E+02</pdfrwt>
<totfact> 0.19403831E+04</totfact>
</mgrwt>
</event>
<event>
 5    1  0.1090823E+000  0.9105219E+02  0.7818608E-02  0.1300323E+00
         -4   -1    0    0    0  501 -0.00000000000E+00  0.00000000000E+00  0.62007389200E+02  0.62023646421E+02  0.14200000000E+01 0.  1.
          4   -1    0    0  501    0  0.00000000000E+00 -0.00000000000E+00 -0.33389726895E+02  0.33419908170E+02  0.14200000000E+01 0. -1.
         23    2    1    2    0    0  0.00000000000E+00  0.00000000000E+00  0.28617662305E+02  0.95443554592E+02  0.91052191172E+02 0.  0.
        -13    1    3    3    0    0 -0.25427025961E+00 -0.45183987691E+02  0.84766057130E+01  0.45973050953E+02  0.10570000000E+00 0.  1.
         13    1    3    3    0    0  0.25427025961E+00  0.45183987691E+02  0.20141056592E+02  0.49470503638E+02  0.10570000000E+00 0. -1.
<mgrwt>
<rscale>  0 0.91052191E+02</rscale>
<asrwt>0</asrwt>
<pdfrwt beam="2">  1        4 0.51404533E-02 0.91052191E+02</pdfrwt>
<pdfrwt beam="1">  1       -4 0.95431705E-02 0.91052191E+02</pdfrwt>
<totfact> 0.26843215E+04</totfact>
</mgrwt>
</event>
<event>
 5    1  0.1090823E+000  0.9337384E+02  0.7818608E-02  0.1294881E+00
          4   -1    0    0  501    0  0.00000000000E+00  0.00000000000E+00  0.18436717889E+03  0.18437264725E+03  0.14200000000E+01 0. -1.
         -4   -1    0    0    0  501 -0.00000000000E+00 -0.00000000000E+00 -0.11774127401E+02  0.11859446701E+02  0.14200000000E+01 0.  1.
         23    2    1    2    0    0  0.00000000000E+00  0.00000000000E+00  0.17259305149E+03  0.19623209395E+03  0.93373836120E+02 0.  0.
        -13    1    3    3    0    0  0.24350197433E+02  0.25527641351E+02  0.22032839355E+02  0.41593866982E+02  0.10570000000E+00 0.  1.
         13    1    3    3    0    0 -0.24350197433E+02 -0.25527641351E+02  0.15056021214E+03  0.15463822697E+03  0.10570000000E+00 0. -1.
<mgrwt>
<rscale>  0 0.93373836E+02</rscale>
<asrwt>0</asrwt>
<pdfrwt beam="1">  1        4 0.28371164E-01 0.93373836E+02</pdfrwt>
<pdfrwt beam="2">  1       -4 0.18183879E-02 0.93373836E+02</pdfrwt>
<totfact> 0.20209494E+04</totfact>
</mgrwt>
</event>
<event>
 5    1  0.1090823E+000  0.8960733E+02  0.7818608E-02  0.1303805E+00
          4   -1    0    0  501    0  0.00000000000E+00  0.00000000000E+00  0.12274843888E+02  0.12356706376E+02  0.14200000000E+01 0. -1.
         -4   -1    0    0    0  501 -0.00000000000E+00 -0.00000000000E+00 -0.16290666886E+03  0.16291285756E+03  0.14200000000E+01 0.  1.
         23    2    1    2    0    0  0.00000000000E+00  0.00000000000E+00 -0.15063182497E+03  0.17526956394E+03  0.89607328655E+02 0.  0.
        -13    1    3    3    0    0 -0.41971901101E+02  0.62069958280E+01 -0.10347037565E+03  0.11183155677E+03  0.10570000000E+00 0. -1.
         13    1    3    3    0    0  0.41971901101E+02 -0.62069958280E+01 -0.47161449319E+02  0.63438007169E+02  0.10570000000E+00 0.  1.
<mgrwt>
<rscale>  0 0.89607329E+02</rscale>
<asrwt>0</asrwt>
<pdfrwt beam="1">  1        4 0.18952108E-02 0.89607329E+02</pdfrwt>
<pdfrwt beam="2">  1       -4 0.25069336E-01 0.89607329E+02</pdfrwt>
<totfact> 0.23533375E+04</totfact>
</mgrwt>
</event>
<event>
 5    1  0.1090823E+000  0.9116087E+02  0.7818608E-02  0.1300065E+00
         -4   -1    0    0    0  501 -0.00000000000E+00  0.00000000000E+00  0.28490325992E+03  0.28490679865E+03  0.14200000000E+01 0.  1.
          4   -1    0    0  501    0  0.00000000000E+00 -0.00000000000E+00 -0.72194685262E+01  0.73577935416E+01  0.14200000000E+01 0. -1.
         23    2    1    2    0    0  0.00000000000E+00  0.00000000000E+00  0.27768379140E+03  0.29226459219E+03  0.91160867932E+02 0.  0.
        -13    1    3    3    0    0  0.11393453304E+02  0.41543286580E+02  0.18660093181E+03  0.19150867960E+03  0.10570000000E+00 0. -1.
         13    1    3    3    0    0 -0.11393453304E+02 -0.41543286580E+02  0.91082859589E+02  0.10075591259E+03  0.10570000000E+00 0.  1.
<mgrwt>
<rscale>  0 0.91160868E+02</rscale>
<asrwt>0</asrwt>
<pdfrwt beam="2">  1        4 0.11216001E-02 0.91160868E+02</pdfrwt>
<pdfrwt beam="1">  1       -4 0.43842180E-01 0.91160868E+02</pdfrwt>
<totfact> 0.18067209E+04</totfact>
</mgrwt>
</event>
<event>
 5    1  0.1090823E+000  0.9346039E+02  0.7818608E-02  0.1294682E+00
          4   -1    0    0  501    0  0.00000000000E+00  0.00000000000E+00  0.71810240385E+01  0.73200755626E+01  0.14200000000E+01 0. -1.
         -4   -1    0    0    0  501 -0.00000000000E+00 -0.00000000000E+00 -0.30103795256E+03  0.30104130162E+03  0.14200000000E+01 0.  1.
         23    2    1    2    0    0  0.00000000000E+00  0.00000000000E+00 -0.29385692852E+03  0.30836137718E+03  0.93460389996E+02 0.  0.
        -13    1    3    3    0    0 -0.15866938569E+02  0.43709778705E+02 -0.16218982233E+03  0.16872419546E+03  0.10570000000E+00 0.  1.
         13    1    3    3    0    0  0.15866938569E+02 -0.43709778705E+02 -0.13166710619E+03  0.13963718172E+03  0.10570000000E+00 0. -1.
<mgrwt>
<rscale>  0 0.93460390E+02</rscale>
<asrwt>0</asrwt>
<pdfrwt beam="1">  1        4 0.11157271E-02 0.93460390E+02</pdfrwt>
<pdfrwt beam="2">  1       -4 0.46324475E-01 0.93460390E+02</pdfrwt>
<totfact> 0.16447049E+04</totfact>
</mgrwt>
</event>
<event>
 5    1  0.1090823E+000  0.8922404E+02  0.7818608E-02  0.1304742E+00
         -4   -1    0    0    0  501 -0.00000000000E+00  0.00000000000E+00  0.22306615027E+02  0.22351766686E+02  0.14200000000E+01 0.  1.
          4   -1    0    0  501    0  0.00000000000E+00 -0.00000000000E+00 -0.89080587615E+02  0.89091904738E+02  0.14200000000E+01 0. -1.
         23    2    1    2    0    0  0.00000000000E+00  0.00000000000E+00 -0.66773972588E+02  0.11144367142E+03  0.89224035356E+02 0.  0.
        -13    1    3    3    0    0 -0.37619366611E+01  0.20308195166E+02 -0.82777411793E+02  0.85315215724E+02  0.10570000000E+00 0. -1.
         13    1    3    3    0    0  0.37619366611E+01 -0.20308195166E+02  0.16003439206E+02  0.26128455700E+02  0.10570000000E+00 0.  1.
<mgrwt>
<rscale>  0 0.89224035E+02</rscale>
<asrwt>0</asrwt>
<pdfrwt beam="2">  1        4 0.13709049E-01 0.89224035E+02</pdfrwt>
<pdfrwt beam="1">  1       -4 0.34361307E-02 0.89224035E+02</pdfrwt>
<totfact> 0.27316208E+04</totfact>
</mgrwt>
</event>
<event>
 5    1  0.1090823E+000  0.9215163E+02  0.7818608E-02  0.1297723E+00
         -4   -1    0    0    0  501 -0.00000000000E+00  0.00000000000E+00  0.17876339117E+02  0.17932649002E+02  0.14200000000E+01 0.  1.
          4   -1    0    0  501    0  0.00000000000E+00 -0.00000000000E+00 -0.11851193496E+03  0.11852044182E+03  0.14200000000E+01 0. -1.
         23    2    1    2    0    0  0.00000000000E+00  0.00000000000E+00 -0.10063559585E+03  0.13645309082E+03  0.92151629628E+02 0.  0.
        -13    1    3    3    0    0 -0.33191021192E+02  0.12538561133E+00 -0.97639366806E+02  0.10312670232E+03  0.10570000000E+00 0. -1.
         13    1    3    3    0    0  0.33191021192E+02 -0.12538561133E+00 -0.29962290395E+01  0.33326388497E+02  0.10570000000E+00 0.  1.
<mgrwt>
<rscale>  0 0.92151630E+02</rscale>
<asrwt>0</asrwt>
<pdfrwt beam="2">  1        4 0.18237591E-01 0.92151630E+02</pdfrwt>
<pdfrwt beam="1">  1       -4 0.27551920E-02 0.92151630E+02</pdfrwt>
<totfact> 0.23681298E+04</totfact>
</mgrwt>
</event>
<event>
 5    1  0.1090823E+000  0.9742268E+02  0.7818608E-02  0.1285811E+00
         -4   -1    0    0    0  501 -0.00000000000E+00  0.00000000000E+00  0.45997317656E+02  0.46019231105E+02  0.14200000000E+01 0.  1.
          4   -1    0    0  501    0  0.00000000000E+00 -0.00000000000E+00 -0.51541517057E+02  0.51561074277E+02  0.14200000000E+01 0. -1.
         23    2    1    2    0    0  0.00000000000E+00  0.00000000000E+00 -0.55441994016E+01  0.97580305382E+02  0.97422676269E+02 0.  0.
        -13    1    3    3    0    0  0.36265445270E+02 -0.10981360774E+02  0.27888055049E+02  0.47048141217E+02  0.10570000000E+00 0.  1.
         13    1    3    3    0    0 -0.36265445270E+02  0.10981360774E+02 -0.33432254450E+02  0.50532164165E+02  0.10570000000E+00 0. -1.
<mgrwt>
<rscale>  0 0.97422676E+02</rscale>
<asrwt>0</asrwt>
<pdfrwt beam="2">  1        4 0.79326542E-02 0.97422676E+02</pdfrwt>
<pdfrwt beam="1">  1       -4 0.70797004E-02 0.97422676E+02</pdfrwt>
<totfact> 0.22208797E+04</totfact>
</mgrwt>
</event>
<event>
 5    1  0.1090823E+000  0.9107337E+02  0.7818608E-02  0.1300273E+00
          4   -1    0    0  501    0  0.00000000000E+00  0.00000000000E+00  0.56368119651E+02  0.56386002811E+02  0.14200000000E+01 0.  1.
         -4   -1    0    0    0  501 -0.00000000000E+00 -0.00000000000E+00 -0.36749138242E+02  0.36776562666E+02  0.14200000000E+01 0. -1.
         23    2    1    2    0    0  0.00000000000E+00  0.00000000000E+00  0.19618981409E+02  0.93162565476E+02  0.91073372478E+02 0.  0.
        -13    1    3    3    0    0  0.27187965425E+02 -0.21527383990E+02 -0.20379621814E+02  0.40223797473E+02  0.10570000000E+00 0. -1.
         13    1    3    3    0    0 -0.27187965425E+02  0.21527383990E+02  0.39998603223E+02  0.52938768003E+02  0.10570000000E+00 0.  1.
<mgrwt>
<rscale>  0 0.91073372E+02</rscale>
<asrwt>0</asrwt>
<pdfrwt beam="1">  1        4 0.86755036E-02 0.91073372E+02</pdfrwt>
<pdfrwt beam="2">  1       -4 0.56571988E-02 0.91073372E+02</pdfrwt>
<totfact> 0.26972203E+04</totfact>
</mgrwt>
</event>
<event>
 5    1  0.1090823E+000  0.9184581E+02  0.7818608E-02  0.1298442E+00
         -4   -1    0    0    0  501 -0.00000000000E+00  0.00000000000E+00  0.81748134667E+02  0.81760466740E+02  0.14200000000E+01 0.  1.
          4   -1    0    0  501    0  0.00000000000E+00 -0.00000000000E+00 -0.25763861720E+02  0.25802964379E+02  0.14200000000E+01 0. -1.
         23    2    1    2    0    0  0.00000000000E+00  0.00000000000E+00  0.55984272947E+02  0.10756343112E+03  0.91845810447E+02 0.  0.
        -13    1    3    3    0    0  0.35338538680E+02 -0.25224884811E+02  0.10472285395E+02  0.44663039123E+02  0.10570000000E+00 0. -1.
         13    1    3    3    0    0 -0.35338538680E+02  0.25224884811E+02  0.45511987553E+02  0.62900391996E+02  0.10570000000E+00 0.  1.
<mgrwt>
<rscale>  0 0.91845810E+02</rscale>
<asrwt>0</asrwt>
<pdfrwt beam="2">  1        4 0.39676276E-02 0.91845810E+02</pdfrwt>
<pdfrwt beam="1">  1       -4 0.12580592E-01 0.91845810E+02</pdfrwt>
<totfact> 0.25487354E+04</totfact>
</mgrwt>
</event>
<event>
 5    1  0.1090823E+000  0.9335727E+02  0.7818608E-02  0.1294919E+00
          4   -1    0    0  501    0  0.00000000000E+00  0.00000000000E+00  0.43696814909E+02  0.43719881440E+02  0.14200000000E+01 0. -1.
         -4   -1    0    0    0  501 -0.00000000000E+00 -0.00000000000E+00 -0.49817588878E+02  0.49837822601E+02  0.14200000000E+01 0.  1.
         23    2    1    2    0    0  0.00000000000E+00  0.00000000000E+00 -0.61207739689E+01  0.93557704041E+02  0.93357271337E+02 0.  0.
        -13    1    3    3    0    0 -0.36398801816E+02 -0.14119406927E+02  0.22580741188E+02  0.45101346662E+02  0.10570000000E+00 0. -1.
         13    1    3    3    0    0  0.36398801816E+02  0.14119406927E+02 -0.28701515157E+02  0.48456357379E+02  0.10570000000E+00 0.  1.
<mgrwt>
<rscale>  0 0.93357271E+02</rscale>
<asrwt>0</asrwt>
<pdfrwt beam="1">  1        4 0.67259177E-02 0.93357271E+02</pdfrwt>
<pdfrwt beam="2">  1       -4 0.76675753E-02 0.93357271E+02</pdfrwt>
<totfact> 0.25189244E+04</totfact>
</mgrwt>
</event>
<event>
 5    1  0.1090823E+000  0.8822472E+02  0.7818608E-02  0.1307209E+00
          4   -1    0    0  501    0  0.00000000000E+00  0.00000000000E+00  0.17714051395E+02  0.17770875523E+02  0.14200000000E+01 0. -1.
         -4   -1    0    0    0  501 -0.00000000000E+00 -0.00000000000E+00 -0.10961332031E+03  0.10962251771E+03  0.14200000000E+01 0.  1.
         23    2    1    2    0    0  0.00000000000E+00  0.00000000000E+00 -0.91899268916E+02  0.12739339324E+03  0.88224718830E+02 0.  0.
        -13    1    3    3    0    0  0.41627455681E+02 -0.86729483518E+01 -0.28997709629E+02  0.51467887423E+02  0.10570000000E+00 0. -1.
         13    1    3    3    0    0 -0.41627455681E+02  0.86729483518E+01 -0.62901559287E+02  0.75925505812E+02  0.10570000000E+00 0.  1.
<mgrwt>
<rscale>  0 0.88224719E+02</rscale>
<asrwt>0</asrwt>
<pdfrwt beam="1">  1        4 0.27303173E-02 0.88224719E+02</pdfrwt>
<pdfrwt beam="2">  1       -4 0.16868666E-01 0.88224719E+02</pdfrwt>
<totfact> 0.27159574E+04</totfact>
</mgrwt>
</event>
<event>
 5    1  0.1090823E+000  0.9057118E+02  0.7818608E-02  0.1301474E+00
          4   -1    0    0  501    0  0.00000000000E+00  0.00000000000E+00  0.12359539269E+03  0.12360354968E+03  0.14200000000E+01 0. -1.
         -4   -1    0    0    0  501 -0.00000000000E+00 -0.00000000000E+00 -0.16553624811E+02  0.16614418268E+02  0.14200000000E+01 0.  1.
         23    2    1    2    0    0  0.00000000000E+00  0.00000000000E+00  0.10704176788E+03  0.14021796795E+03  0.90571179001E+02 0.  0.
        -13    1    3    3    0    0  0.39466927084E+02  0.12162602397E+02  0.82285126995E+02  0.92067478121E+02  0.10570000000E+00 0. -1.
         13    1    3    3    0    0 -0.39466927084E+02 -0.12162602397E+02  0.24756640886E+02  0.48150489831E+02  0.10570000000E+00 0.  1.
<mgrwt>
<rscale>  0 0.90571179E+02</rscale>
<asrwt>0</asrwt>
<pdfrwt beam="1">  1        4 0.19019979E-01 0.90571179E+02</pdfrwt>
<pdfrwt beam="2">  1       -4 0.25520155E-02 0.90571179E+02</pdfrwt>
<totfact> 0.24611139E+04</totfact>
</mgrwt>
</event>
<event>
 5    1  0.1090823E+000  0.9005093E+02  0.7818608E-02  0.1302728E+00
          4   -1    0    0  501    0  0.00000000000E+00  0.00000000000E+00  0.15165200268E+02  0.15231536336E+02  0.14200000000E+01 0.  1.
         -4   -1    0    0    0  501 -0.00000000000E+00 -0.00000000000E+00 -0.13331870735E+03  0.13332626947E+03  0.14200000000E+01 0. -1.
         23    2    1    2    0    0  0.00000000000E+00  0.00000000000E+00 -0.11815350708E+03  0.14855780580E+03  0.90050932415E+02 0.  0.
        -13    1    3    3    0    0  0.65930783235E+01  0.25515313728E+02  0.11496241159E+01  0.26378641446E+02  0.10570000000E+00 0.  1.
         13    1    3    3    0    0 -0.65930783235E+01 -0.25515313728E+02 -0.11930313120E+03  0.12217916436E+03  0.10570000000E+00 0. -1.
<mgrwt>
<rscale>  0 0.90050932E+02</rscale>
<asrwt>0</asrwt>
<pdfrwt beam="1">  1        4 0.23387923E-02 0.90050932E+02</pdfrwt>
<pdfrwt beam="2">  1       -4 0.20516254E-01 0.90050932E+02</pdfrwt>
<totfact> 0.24551248E+04</totfact>
</mgrwt>
</event>
<event>
 5    1  0.1090823E+000  0.9108503E+02  0.7818608E-02  0.1300245E+00
         -4   -1    0    0    0  501 -0.00000000000E+00  0.00000000000E+00  0.24139021368E+02  0.24180751696E+02  0.14200000000E+01 0.  1.
          4   -1    0    0  501    0  0.00000000000E+00 -0.00000000000E+00 -0.85802153034E+02  0.85813902518E+02  0.14200000000E+01 0. -1.
         23    2    1    2    0    0  0.00000000000E+00  0.00000000000E+00 -0.61663131666E+02  0.10999465421E+03  0.91085027029E+02 0.  0.
        -13    1    3    3    0    0  0.89032846283E+01  0.34221572360E+02  0.38274061650E+01  0.35567466911E+02  0.10570000000E+00 0.  1.
         13    1    3    3    0    0 -0.89032846283E+01 -0.34221572360E+02 -0.65490537831E+02  0.74427187304E+02  0.10570000000E+00 0. -1.
<mgrwt>
<rscale>  0 0.91085027E+02</rscale>
<asrwt>0</asrwt>
<pdfrwt beam="2">  1        4 0.13204445E-01 0.91085027E+02</pdfrwt>
<pdfrwt beam="1">  1       -4 0.37178095E-02 0.91085027E+02</pdfrwt>
<totfact> 0.25923757E+04</totfact>
</mgrwt>
</event>
<event>
 5    1  0.1090823E+000  0.9067975E+02  0.7818608E-02  0.1301214E+00
          4   -1    0    0  501    0  0.00000000000E+00  0.00000000000E+00  0.66346451682E+02  0.66361645932E+02  0.14200000000E+01 0. -1.
         -4   -1    0    0    0  501 -0.00000000000E+00 -0.00000000000E+00 -0.30949367008E+02  0.30981925670E+02  0.14200000000E+01 0.  1.
         23    2    1    2    0    0  0.00000000000E+00  0.00000000000E+00  0.35397084674E+02  0.97343571601E+02  0.90679751481E+02 0.  0.
        -13    1    3    3    0    0  0.37270787867E+02  0.60847329875E+01  0.44633399443E+02  0.58466119437E+02  0.10570000000E+00 0. -1.
         13    1    3    3    0    0 -0.37270787867E+02 -0.60847329875E+01 -0.92363147692E+01  0.38877452164E+02  0.10570000000E+00 0.  1.
<mgrwt>
<rscale>  0 0.90679751E+02</rscale>
<asrwt>0</asrwt>
<pdfrwt beam="1">  1        4 0.10210820E-01 0.90679751E+02</pdfrwt>
<pdfrwt beam="2">  1       -4 0.47651144E-02 0.90679751E+02</pdfrwt>
<totfact> 0.27020808E+04</totfact>
</mgrwt>
</event>
<event>
 5    1  0.1090823E+000  0.9128336E+02  0.7818608E-02  0.1299773E+00
          4   -1    0    0  501    0  0.00000000000E+00  0.00000000000E+00  0.28920606728E+02  0.28955446699E+02  0.14200000000E+01 0. -1.
         -4   -1    0    0    0  501 -0.00000000000E+00 -0.00000000000E+00 -0.71945196676E+02  0.71959208756E+02  0.14200000000E+01 0.  1.
         23    2    1    2    0    0  0.00000000000E+00  0.00000000000E+00 -0.43024589948E+02  0.10091465545E+03  0.91283362917E+02 0.  0.
        -13    1    3    3    0    0  0.41296900401E+02  0.79052686094E+00 -0.44529365685E-01  0.41304625295E+02  0.10570000000E+00 0.  1.
         13    1    3    3    0    0 -0.41296900401E+02 -0.79052686094E+00 -0.42980060583E+02  0.59610030159E+02  0.10570000000E+00 0. -1.
<mgrwt>
<rscale>  0 0.91283363E+02</rscale>
<asrwt>0</asrwt>
<pdfrwt beam="1">  1        4 0.44530820E-02 0.91283363E+02</pdfrwt>
<pdfrwt beam="2">  1       -4 0.11072250E-01 0.91283363E+02</pdfrwt>
<totfact> 0.26318155E+04</totfact>
</mgrwt>
</event>
<event>
 5    1  0.1090823E+000  0.9061447E+02  0.7818608E-02  0.1301370E+00
         -4   -1    0    0    0  501 -0.00000000000E+00  0.00000000000E+00  0.15289606973E+03  0.15290266361E+03  0.14200000000E+01 0.  1.
          4   -1    0    0  501    0  0.00000000000E+00 -0.00000000000E+00 -0.13381307537E+02  0.13456440517E+02  0.14200000000E+01 0. -1.
         23    2    1    2    0    0  0.00000000000E+00  0.00000000000E+00  0.13951476220E+03  0.16635910413E+03  0.90614472664E+02 0.  0.
        -13    1    3    3    0    0  0.20457388408E+02 -0.37031495640E+02  0.99524905217E+02  0.10814367453E+03  0.10570000000E+00 0.  1.
         13    1    3    3    0    0 -0.20457388408E+02  0.37031495640E+02  0.39989856980E+02  0.58215429600E+02  0.10570000000E+00 0. -1.
<mgrwt>
<rscale>  0 0.90614473E+02</rscale>
<asrwt>0</asrwt>
<pdfrwt beam="2">  1        4 0.20649494E-02 0.90614473E+02</pdfrwt>
<pdfrwt beam="1">  1       -4 0.23528759E-01 0.90614473E+02</pdfrwt>
<totfact> 0.23260679E+04</totfact>
</mgrwt>
</event>
<event>
 5    1  0.1090823E+000  0.9382088E+02  0.7818608E-02  0.1293854E+00
          4   -1    0    0  501    0  0.00000000000E+00  0.00000000000E+00  0.69393847568E+01  0.70831815452E+01  0.14200000000E+01 0. -1.
         -4   -1    0    0    0  501 -0.00000000000E+00 -0.00000000000E+00 -0.31371855343E+03  0.31372176713E+03  0.14200000000E+01 0.  1.
         23    2    1    2    0    0  0.00000000000E+00  0.00000000000E+00 -0.30677916868E+03  0.32080494867E+03  0.93820875917E+02 0.  0.
        -13    1    3    3    0    0  0.24669411514E+02  0.35511443792E+02 -0.21559286099E+03  0.21988618735E+03  0.10570000000E+00 0.  1.
         13    1    3    3    0    0 -0.24669411514E+02 -0.35511443792E+02 -0.91186307684E+02  0.10091876132E+03  0.10570000000E+00 0. -1.
<mgrwt>
<rscale>  0 0.93820876E+02</rscale>
<asrwt>0</asrwt>
<pdfrwt beam="1">  1        4 0.10789064E-02 0.93820876E+02</pdfrwt>
<pdfrwt beam="2">  1       -4 0.48275691E-01 0.93820876E+02</pdfrwt>
<totfact> 0.15942130E+04</totfact>
</mgrwt>
</event>
<event>
 5    1  0.1090823E+000  0.9708158E+02  0.7818608E-02  0.1286555E+00
          4   -1    0    0  501    0  0.00000000000E+00  0.00000000000E+00  0.24748201118E+02  0.24788905958E+02  0.14200000000E+01 0. -1.
         -4   -1    0    0    0  501 -0.00000000000E+00 -0.00000000000E+00 -0.95083007402E+02  0.95093610177E+02  0.14200000000E+01 0.  1.
         23    2    1    2    0    0  0.00000000000E+00  0.00000000000E+00 -0.70334806284E+02  0.11988251614E+03  0.97081577552E+02 0.  0.
        -13    1    3    3    0    0 -0.36274502851E+02 -0.90291329924E+01 -0.73404977134E+02  0.82375157907E+02  0.10570000000E+00 0.  1.
         13    1    3    3    0    0  0.36274502851E+02  0.90291329924E+01  0.30701708501E+01  0.37507358228E+02  0.10570000000E+00 0. -1.
<mgrwt>
<rscale>  0 0.97081578E+02</rscale>
<asrwt>0</asrwt>
<pdfrwt beam="1">  1        4 0.38113623E-02 0.97081578E+02</pdfrwt>
<pdfrwt beam="2">  1       -4 0.14632102E-01 0.97081578E+02</pdfrwt>
<totfact> 0.21316021E+04</totfact>
</mgrwt>
</event>
<event>
 5    1  0.1090823E+000  0.9128022E+02  0.7818608E-02  0.1299781E+00
         -4   -1    0    0    0  501 -0.00000000000E+00  0.00000000000E+00  0.73647465891E+01  0.75003928111E+01  0.14200000000E+01 0.  1.
          4   -1    0    0  501    0  0.00000000000E+00 -0.00000000000E+00 -0.28011819533E+03  0.28012179450E+03  0.14200000000E+01 0. -1.
         23    2    1    2    0    0  0.00000000000E+00  0.00000000000E+00 -0.27275344874E+03  0.28762218731E+03  0.91280221487E+02 0.  0.
        -13    1    3    3    0    0 -0.17852949714E+02  0.39199034335E+02 -0.18392588804E+03  0.18890218520E+03  0.10570000000E+00 0.  1.
         13    1    3    3    0    0  0.17852949714E+02 -0.39199034335E+02 -0.88827560698E+02  0.98720002119E+02  0.10570000000E+00 0. -1.
<mgrwt>
<rscale>  0 0.91280221E+02</rscale>
<asrwt>0</asrwt>
<pdfrwt beam="2">  1        4 0.43105810E-01 0.91280221E+02</pdfrwt>
<pdfrwt beam="1">  1       -4 0.11437493E-02 0.91280221E+02</pdfrwt>
<totfact> 0.18149692E+04</totfact>
</mgrwt>
</event>
<event>
 5    1  0.1090823E+000  0.9393632E+02  0.7818608E-02  0.1293590E+00
         -4   -1    0    0    0  501 -0.00000000000E+00  0.00000000000E+00  0.17354771156E+02  0.17412767784E+02  0.14200000000E+01 0.  1.
          4   -1    0    0  501    0  0.00000000000E+00 -0.00000000000E+00 -0.12683847435E+03  0.12684642279E+03  0.14200000000E+01 0. -1.
         23    2    1    2    0    0  0.00000000000E+00  0.00000000000E+00 -0.10948370319E+03  0.14425919057E+03  0.93936323117E+02 0.  0.
        -13    1    3    3    0    0 -0.19275417465E+02  0.30584951751E+02 -0.86956666729E+01  0.37183420814E+02  0.10570000000E+00 0.  1.
         13    1    3    3    0    0  0.19275417465E+02 -0.30584951751E+02 -0.10078803652E+03  0.10707576976E+03  0.10570000000E+00 0. -1.
<mgrwt>
<rscale>  0 0.93936323E+02</rscale>
<asrwt>0</asrwt>
<pdfrwt beam="2">  1        4 0.19518684E-01 0.93936323E+02</pdfrwt>
<pdfrwt beam="1">  1       -4 0.26750376E-02 0.93936323E+02</pdfrwt>
<totfact> 0.22109128E+04</totfact>
</mgrwt>
</event>
<event>
 5    1  0.1090823E+000  0.9238273E+02  0.7818608E-02  0.1297182E+00
          4   -1    0    0  501    0  0.00000000000E+00  0.00000000000E+00  0.11671570684E+03  0.11672434460E+03  0.14200000000E+01 0. -1.
         -4   -1    0    0    0  501 -0.00000000000E+00 -0.00000000000E+00 -0.18243771989E+02  0.18298951237E+02  0.14200000000E+01 0.  1.
         23    2    1    2    0    0  0.00000000000E+00  0.00000000000E+00  0.98471934850E+02  0.13502329584E+03  0.92382728182E+02 0.  0.
        -13    1    3    3    0    0  0.84411955194E+01 -0.25014383644E+02  0.10463403106E+03  0.10791322810E+03  0.10570000000E+00 0. -1.
         13    1    3    3    0    0 -0.84411955194E+01  0.25014383644E+02 -0.61620962055E+01  0.27110067743E+02  0.10570000000E+00 0.  1.
<mgrwt>
<rscale>  0 0.92382728E+02</rscale>
<asrwt>0</asrwt>
<pdfrwt beam="1">  1        4 0.17961171E-01 0.92382728E+02</pdfrwt>
<pdfrwt beam="2">  1       -4 0.28116432E-02 0.92382728E+02</pdfrwt>
<totfact> 0.23594507E+04</totfact>
</mgrwt>
</event>
<event>
 5    1  0.1090823E+000  0.9242587E+02  0.7818608E-02  0.1297081E+00
         -4   -1    0    0    0  501 -0.00000000000E+00  0.00000000000E+00  0.36174862831E+03  0.36175141532E+03  0.14200000000E+01 0.  1.
          4   -1    0    0  501    0  0.00000000000E+00 -0.00000000000E+00 -0.58154058981E+01  0.59862630881E+01  0.14200000000E+01 0. -1.
         23    2    1    2    0    0  0.00000000000E+00  0.00000000000E+00  0.35593322241E+03  0.36773767841E+03  0.92425869228E+02 0.  0.
        -13    1    3    3    0    0 -0.45814536805E+02  0.65877233791E+00  0.20191129762E+03  0.20704489620E+03  0.10570000000E+00 0.  1.
         13    1    3    3    0    0  0.45814536805E+02 -0.65877233791E+00  0.15402192479E+03  0.16069278220E+03  0.10570000000E+00 0. -1.
<mgrwt>
<rscale>  0 0.92425869E+02</rscale>
<asrwt>0</asrwt>
<pdfrwt beam="2">  1        4 0.90803476E-03 0.92425869E+02</pdfrwt>
<pdfrwt beam="1">  1       -4 0.55667012E-01 0.92425869E+02</pdfrwt>
<totfact> 0.15370315E+04</totfact>
</mgrwt>
</event>
<event>
 5    1  0.1090823E+000  0.9007837E+02  0.7818608E-02  0.1302662E+00
         -4   -1    0    0    0  501 -0.00000000000E+00  0.00000000000E+00  0.91526785437E+02  0.91537800129E+02  0.14200000000E+01 0. -1.
          4   -1    0    0  501    0  0.00000000000E+00 -0.00000000000E+00 -0.22128113664E+02  0.22173628804E+02  0.14200000000E+01 0.  1.
         23    2    1    2    0    0  0.00000000000E+00  0.00000000000E+00  0.69398671773E+02  0.11371142893E+03  0.90078373798E+02 0.  0.
        -13    1    3    3    0    0  0.12959840080E+02  0.43019616213E+02  0.38665711614E+02  0.59276414038E+02  0.10570000000E+00 0.  1.
         13    1    3    3    0    0 -0.12959840080E+02 -0.43019616213E+02  0.30732960159E+02  0.54435014895E+02  0.10570000000E+00 0. -1.
<mgrwt>
<rscale>  0 0.90078374E+02</rscale>
<asrwt>0</asrwt>
<pdfrwt beam="2">  1        4 0.34086736E-02 0.90078374E+02</pdfrwt>
<pdfrwt beam="1">  1       -4 0.14085392E-01 0.90078374E+02</pdfrwt>
<totfact> 0.26486362E+04</totfact>
</mgrwt>
</event>
<event>
 5    1  0.1090823E+000  0.9204092E+02  0.7818608E-02  0.1297983E+00
         -4   -1    0    0    0  501 -0.00000000000E+00  0.00000000000E+00  0.16154327242E+03  0.16154951335E+03  0.14200000000E+01 0.  1.
          4   -1    0    0  501    0  0.00000000000E+00 -0.00000000000E+00 -0.13065346679E+02  0.13142286096E+02  0.14200000000E+01 0. -1.
         23    2    1    2    0    0  0.00000000000E+00  0.00000000000E+00  0.14847792574E+03  0.17469179945E+03  0.92040916781E+02 0.  0.
        -13    1    3    3    0    0 -0.14717454310E+02  0.39273996540E+02  0.11019158753E+03  0.11790355127E+03  0.10570000000E+00 0.  1.
         13    1    3    3    0    0  0.14717454310E+02 -0.39273996540E+02  0.38286338206E+02  0.56788248180E+02  0.10570000000E+00 0. -1.
<mgrwt>
<rscale>  0 0.92040917E+02</rscale>
<asrwt>0</asrwt>
<pdfrwt beam="2">  1        4 0.20164519E-02 0.92040917E+02</pdfrwt>
<pdfrwt beam="1">  1       -4 0.24859209E-01 0.92040917E+02</pdfrwt>
<totfact> 0.21927942E+04</totfact>
</mgrwt>
</event>
<event>
 5    1  0.1090823E+000  0.8995921E+02  0.7818608E-02  0.1302951E+00
          4   -1    0    0  501    0  0.00000000000E+00  0.00000000000E+00  0.19275074589E+02  0.19327309705E+02  0.14200000000E+01 0. -1.
         -4   -1    0    0    0  501 -0.00000000000E+00 -0.00000000000E+00 -0.10476366903E+03  0.10477329216E+03  0.14200000000E+01 0.  1.
         23    2    1    2    0    0  0.00000000000E+00  0.00000000000E+00 -0.85488594446E+02  0.12410060186E+03  0.89959210770E+02 0.  0.
        -13    1    3    3    0    0 -0.46853197880E+01 -0.37820890748E+02 -0.97861125621E+01  0.39346552200E+02  0.10570000000E+00 0. -1.
         13    1    3    3    0    0  0.46853197880E+01  0.37820890748E+02 -0.75702481884E+02  0.84754049663E+02  0.10570000000E+00 0.  1.
<mgrwt>
<rscale>  0 0.89959211E+02</rscale>
<asrwt>0</asrwt>
<pdfrwt beam="1">  1        4 0.29701545E-02 0.89959211E+02</pdfrwt>
<pdfrwt beam="2">  1       -4 0.16122245E-01 0.89959211E+02</pdfrwt>
<totfact> 0.25965754E+04</totfact>
</mgrwt>
</event>
<event>
 5    1  0.1090823E+000  0.9122071E+02  0.7818608E-02  0.1299922E+00
         -4   -1    0    0    0  501 -0.00000000000E+00  0.00000000000E+00  0.22735945255E+03  0.22736388690E+03  0.14200000000E+01 0.  1.
          4   -1    0    0  501    0  0.00000000000E+00 -0.00000000000E+00 -0.90902027657E+01  0.92004448980E+01  0.14200000000E+01 0. -1.
         23    2    1    2    0    0  0.00000000000E+00  0.00000000000E+00  0.21826924979E+03  0.23656433179E+03  0.91220708587E+02 0.  0.
        -13    1    3    3    0    0 -0.41542514280E+02  0.50316579367E+01  0.62082141379E+02  0.74868561660E+02  0.10570000000E+00 0. -1.
         13    1    3    3    0    0  0.41542514280E+02 -0.50316579367E+01  0.15618710841E+03  0.16169577013E+03  0.10570000000E+00 0.  1.
<mgrwt>
<rscale>  0 0.91220709E+02</rscale>
<asrwt>0</asrwt>
<pdfrwt beam="2">  1        4 0.14073141E-02 0.91220709E+02</pdfrwt>
<pdfrwt beam="1">  1       -4 0.34987196E-01 0.91220709E+02</pdfrwt>
<totfact> 0.19924243E+04</totfact>
</mgrwt>
</event>
<event>
 5    1  0.1090823E+000  0.9568347E+02  0.7818608E-02  0.1289644E+00
          4   -1    0    0  501    0  0.00000000000E+00  0.00000000000E+00  0.13248348099E+02  0.13324230835E+02  0.14200000000E+01 0. -1.
         -4   -1    0    0    0  501 -0.00000000000E+00 -0.00000000000E+00 -0.17219136563E+03  0.17219722065E+03  0.14200000000E+01 0.  1.
         23    2    1    2    0    0  0.00000000000E+00  0.00000000000E+00 -0.15894301753E+03  0.18552145148E+03  0.95683468463E+02 0.  0.
        -13    1    3    3    0    0 -0.35793140530E+02  0.26893717673E+02 -0.11216953693E+03  0.12077432321E+03  0.10570000000E+00 0.  1.
         13    1    3    3    0    0  0.35793140530E+02 -0.26893717673E+02 -0.46773480608E+02  0.64747128275E+02  0.10570000000E+00 0. -1.
<mgrwt>
<rscale>  0 0.95683468E+02</rscale>
<asrwt>0</asrwt>
<pdfrwt beam="1">  1        4 0.20444950E-02 0.95683468E+02</pdfrwt>
<pdfrwt beam="2">  1       -4 0.26497265E-01 0.95683468E+02</pdfrwt>
<totfact> 0.19324705E+04</totfact>
</mgrwt>
</event>
<event>
 5    1  0.1090823E+000  0.9030757E+02  0.7818608E-02  0.1302109E+00
          4   -1    0    0  501    0  0.00000000000E+00  0.00000000000E+00  0.18155821825E+02  0.18211267560E+02  0.14200000000E+01 0. -1.
         -4   -1    0    0    0  501 -0.00000000000E+00 -0.00000000000E+00 -0.11206694456E+03  0.11207594061E+03  0.14200000000E+01 0.  1.
         23    2    1    2    0    0  0.00000000000E+00  0.00000000000E+00 -0.93911122738E+02  0.13028720817E+03  0.90307572433E+02 0.  0.
        -13    1    3    3    0    0  0.25780717745E+01  0.20696608186E+02 -0.10473328909E+03  0.10678983594E+03  0.10570000000E+00 0.  1.
         13    1    3    3    0    0 -0.25780717745E+01 -0.20696608186E+02  0.10822166353E+02  0.23497372227E+02  0.10570000000E+00 0. -1.
<mgrwt>
<rscale>  0 0.90307572E+02</rscale>
<asrwt>0</asrwt>
<pdfrwt beam="1">  1        4 0.27981605E-02 0.90307572E+02</pdfrwt>
<pdfrwt beam="2">  1       -4 0.17246025E-01 0.90307572E+02</pdfrwt>
<totfact> 0.25347470E+04</totfact>
</mgrwt>
</event>
<event>
 5    1  0.1090823E+000  0.9207486E+02  0.7818608E-02  0.1297904E+00
          4   -1    0    0  501    0  0.00000000000E+00  0.00000000000E+00  0.49994492837E+02  0.50014654992E+02  0.14200000000E+01 0. -1.
         -4   -1    0    0    0  501 -0.00000000000E+00 -0.00000000000E+00 -0.42352960008E+02  0.42376758034E+02  0.14200000000E+01 0.  1.
         23    2    1    2    0    0  0.00000000000E+00  0.00000000000E+00  0.76415328282E+01  0.92391413026E+02  0.92074861808E+02 0.  0.
        -13    1    3    3    0    0  0.21591086513E+02  0.20874062560E+02  0.38833884721E+02  0.49091580536E+02  0.10570000000E+00 0.  1.
         13    1    3    3    0    0 -0.21591086513E+02 -0.20874062560E+02 -0.31192351893E+02  0.43299832490E+02  0.10570000000E+00 0. -1.
<mgrwt>
<rscale>  0 0.92074862E+02</rscale>
<asrwt>0</asrwt>
<pdfrwt beam="1">  1        4 0.76948420E-02 0.92074862E+02</pdfrwt>
<pdfrwt beam="2">  1       -4 0.65192216E-02 0.92074862E+02</pdfrwt>
<totfact> 0.26229255E+04</totfact>
</mgrwt>
</event>
<event>
 5    1  0.1090823E+000  0.9173934E+02  0.7818608E-02  0.1298693E+00
          4   -1    0    0  501    0  0.00000000000E+00  0.00000000000E+00  0.24981512658E+03  0.24981916233E+03  0.14200000000E+01 0. -1.
         -4   -1    0    0    0  501 -0.00000000000E+00 -0.00000000000E+00 -0.83583494742E+01  0.84781133475E+01  0.14200000000E+01 0.  1.
         23    2    1    2    0    0  0.00000000000E+00  0.00000000000E+00  0.24145677710E+03  0.25829727568E+03  0.91739344956E+02 0.  0.
        -13    1    3    3    0    0 -0.13996364745E+01  0.45436115161E+02  0.10346002074E+03  0.11300613526E+03  0.10570000000E+00 0.  1.
         13    1    3    3    0    0  0.13996364745E+01 -0.45436115161E+02  0.13799675637E+03  0.14529114042E+03  0.10570000000E+00 0. -1.
<mgrwt>
<rscale>  0 0.91739345E+02</rscale>
<asrwt>0</asrwt>
<pdfrwt beam="1">  1        4 0.38442613E-01 0.91739345E+02</pdfrwt>
<pdfrwt beam="2">  1       -4 0.12954232E-02 0.91739345E+02</pdfrwt>
<totfact> 0.18861166E+04</totfact>
</mgrwt>
</event>
<event>
 5    1  0.1090823E+000  0.9167904E+02  0.7818608E-02  0.1298836E+00
         -4   -1    0    0    0  501 -0.00000000000E+00  0.00000000000E+00  0.53556185575E+02  0.53575007358E+02  0.14200000000E+01 0.  1.
          4   -1    0    0  501    0  0.00000000000E+00 -0.00000000000E+00 -0.39196141247E+02  0.39221854732E+02  0.14200000000E+01 0. -1.
         23    2    1    2    0    0  0.00000000000E+00  0.00000000000E+00  0.14360044328E+02  0.92796862090E+02  0.91679041992E+02 0.  0.
        -13    1    3    3    0    0 -0.19525999052E+02 -0.28770032847E+02 -0.23055093464E+02  0.41719634899E+02  0.10570000000E+00 0. -1.
         13    1    3    3    0    0  0.19525999052E+02  0.28770032847E+02  0.37415137793E+02  0.51077227191E+02  0.10570000000E+00 0.  1.
<mgrwt>
<rscale>  0 0.91679042E+02</rscale>
<asrwt>0</asrwt>
<pdfrwt beam="2">  1        4 0.60336014E-02 0.91679042E+02</pdfrwt>
<pdfrwt beam="1">  1       -4 0.82428389E-02 0.91679042E+02</pdfrwt>
<totfact> 0.26513398E+04</totfact>
</mgrwt>
</event>
<event>
 5    1  0.1090823E+000  0.8950690E+02  0.7818608E-02  0.1304050E+00
          4   -1    0    0  501    0  0.00000000000E+00  0.00000000000E+00  0.48758057903E+02  0.48778731128E+02  0.14200000000E+01 0. -1.
         -4   -1    0    0    0  501 -0.00000000000E+00 -0.00000000000E+00 -0.41036083810E+02  0.41060645081E+02  0.14200000000E+01 0.  1.
         23    2    1    2    0    0  0.00000000000E+00  0.00000000000E+00  0.77219740932E+01  0.89839376209E+02  0.89506897130E+02 0.  0.
        -13    1    3    3    0    0 -0.38341265483E+02 -0.10163318783E+02  0.24662697107E+02  0.46707659849E+02  0.10570000000E+00 0. -1.
         13    1    3    3    0    0  0.38341265483E+02  0.10163318783E+02 -0.16940723013E+02  0.43131716360E+02  0.10570000000E+00 0.  1.
<mgrwt>
<rscale>  0 0.89506897E+02</rscale>
<asrwt>0</asrwt>
<pdfrwt beam="1">  1        4 0.75047192E-02 0.89506897E+02</pdfrwt>
<pdfrwt beam="2">  1       -4 0.63167233E-02 0.89506897E+02</pdfrwt>
<totfact> 0.28493767E+04</totfact>
</mgrwt>
</event>
<event>
 5    1  0.1090823E+000  0.9219283E+02  0.7818608E-02  0.1297627E+00
         -4   -1    0    0    0  501 -0.00000000000E+00  0.00000000000E+00  0.66259939185E+02  0.66275153269E+02  0.14200000000E+01 0.  1.
          4   -1    0    0  501    0  0.00000000000E+00 -0.00000000000E+00 -0.32034212472E+02  0.32065669628E+02  0.14200000000E+01 0. -1.
         23    2    1    2    0    0  0.00000000000E+00  0.00000000000E+00  0.34225726713E+02  0.98340822896E+02  0.92192825528E+02 0.  0.
        -13    1    3    3    0    0  0.38623669944E+02  0.21491723584E+02  0.31069182070E+02  0.54027653193E+02  0.10570000000E+00 0.  1.
         13    1    3    3    0    0 -0.38623669944E+02 -0.21491723584E+02  0.31565446431E+01  0.44313169703E+02  0.10570000000E+00 0. -1.
<mgrwt>
<rscale>  0 0.92192826E+02</rscale>
<asrwt>0</asrwt>
<pdfrwt beam="2">  1        4 0.49319305E-02 0.92192826E+02</pdfrwt>
<pdfrwt beam="1">  1       -4 0.10197427E-01 0.92192826E+02</pdfrwt>
<totfact> 0.25773122E+04</totfact>
</mgrwt>
</event>
<event>
 5    1  0.1090823E+000  0.9038683E+02  0.7818608E-02  0.1301918E+00
         -4   -1    0    0    0  501 -0.00000000000E+00  0.00000000000E+00  0.13934616906E+02  0.14006782226E+02  0.14200000000E+01 0.  1.
          4   -1    0    0  501    0  0.00000000000E+00 -0.00000000000E+00 -0.14611925757E+03  0.14612615725E+03  0.14200000000E+01 0. -1.
         23    2    1    2    0    0  0.00000000000E+00  0.00000000000E+00 -0.13218464067E+03  0.16013293948E+03  0.90386830225E+02 0.  0.
        -13    1    3    3    0    0  0.27295884987E+02  0.96630719511E+01 -0.46188749481E+01  0.29322098749E+02  0.10570000000E+00 0.  1.
         13    1    3    3    0    0 -0.27295884987E+02 -0.96630719511E+01 -0.12756576572E+03  0.13081084073E+03  0.10570000000E+00 0. -1.
<mgrwt>
<rscale>  0 0.90386830E+02</rscale>
<asrwt>0</asrwt>
<pdfrwt beam="2">  1        4 0.22485967E-01 0.90386830E+02</pdfrwt>
<pdfrwt beam="1">  1       -4 0.21498692E-02 0.90386830E+02</pdfrwt>
<totfact> 0.23721981E+04</totfact>
</mgrwt>
</event>
<event>
 5    1  0.1090823E+000  0.9069710E+02  0.7818608E-02  0.1301172E+00
         -4   -1    0    0    0  501 -0.00000000000E+00  0.00000000000E+00  0.85957790528E+02  0.85969518741E+02  0.14200000000E+01 0.  1.
          4   -1    0    0  501    0  0.00000000000E+00 -0.00000000000E+00 -0.23889982810E+02  0.23932147389E+02  0.14200000000E+01 0. -1.
         23    2    1    2    0    0  0.00000000000E+00  0.00000000000E+00  0.62067807718E+02  0.10990166613E+03  0.90697097325E+02 0.  0.
        -13    1    3    3    0    0  0.21791897946E+02  0.10737381523E+02  0.77434389929E+02  0.81155862969E+02  0.10570000000E+00 0.  1.
         13    1    3    3    0    0 -0.21791897946E+02 -0.10737381523E+02 -0.15366582210E+02  0.28745803161E+02  0.10570000000E+00 0. -1.
<mgrwt>
<rscale>  0 0.90697097E+02</rscale>
<asrwt>0</asrwt>
<pdfrwt beam="2">  1        4 0.36795275E-02 0.90697097E+02</pdfrwt>
<pdfrwt beam="1">  1       -4 0.13228421E-01 0.90697097E+02</pdfrwt>
<totfact> 0.26229822E+04</totfact>
</mgrwt>
</event>
<event>
 5    1  0.1090823E+000  0.9312887E+02  0.7818608E-02  0.1295447E+00
          4   -1    0    0  501    0  0.00000000000E+00  0.00000000000E+00  0.40784011814E+02  0.40808724798E+02  0.14200000000E+01 0. -1.
         -4   -1    0    0    0  501 -0.00000000000E+00 -0.00000000000E+00 -0.53113825760E+02  0.53132804244E+02  0.14200000000E+01 0.  1.
         23    2    1    2    0    0  0.00000000000E+00  0.00000000000E+00 -0.12329813946E+02  0.93941529042E+02  0.93128870748E+02 0.  0.
        -13    1    3    3    0    0 -0.46031981711E+02  0.14612370664E+01 -0.13091919641E+02  0.47879934068E+02  0.10570000000E+00 0.  1.
         13    1    3    3    0    0  0.46031981711E+02 -0.14612370664E+01  0.76210569460E+00  0.46061594974E+02  0.10570000000E+00 0. -1.
<mgrwt>
<rscale>  0 0.93128871E+02</rscale>
<asrwt>0</asrwt>
<pdfrwt beam="1">  1        4 0.62778242E-02 0.93128871E+02</pdfrwt>
<pdfrwt beam="2">  1       -4 0.81747187E-02 0.93128871E+02</pdfrwt>
<totfact> 0.25335409E+04</totfact>
</mgrwt>
</event>
<event>
 5    1  0.1090823E+000  0.9250155E+02  0.7818608E-02  0.1296904E+00
          4   -1    0    0  501    0  0.00000000000E+00  0.00000000000E+00  0.34736847149E+02  0.34765858969E+02  0.14200000000E+01 0.  1.
         -4   -1    0    0    0  501 -0.00000000000E+00 -0.00000000000E+00 -0.61518210993E+02  0.61534597453E+02  0.14200000000E+01 0. -1.
         23    2    1    2    0    0  0.00000000000E+00  0.00000000000E+00 -0.26781363843E+02  0.96300456423E+02  0.92501548408E+02 0.  0.
        -13    1    3    3    0    0  0.75629974047E+00  0.99862896615E+01 -0.60398415750E+02  0.61223179990E+02  0.10570000000E+00 0. -1.
         13    1    3    3    0    0 -0.75629974047E+00 -0.99862896615E+01  0.33617051907E+02  0.35077276432E+02  0.10570000000E+00 0.  1.
<mgrwt>
<rscale>  0 0.92501548E+02</rscale>
<asrwt>0</asrwt>
<pdfrwt beam="1">  1        4 0.53476225E-02 0.92501548E+02</pdfrwt>
<pdfrwt beam="2">  1       -4 0.94678324E-02 0.92501548E+02</pdfrwt>
<totfact> 0.25662715E+04</totfact>
</mgrwt>
</event>
<event>
 5    1  0.1090823E+000  0.8998904E+02  0.7818608E-02  0.1302878E+00
         -4   -1    0    0    0  501 -0.00000000000E+00  0.00000000000E+00  0.88052317290E+02  0.88063766557E+02  0.14200000000E+01 0.  1.
          4   -1    0    0  501    0  0.00000000000E+00 -0.00000000000E+00 -0.22957209852E+02  0.23001084413E+02  0.14200000000E+01 0. -1.
         23    2    1    2    0    0  0.00000000000E+00  0.00000000000E+00  0.65095107439E+02  0.11106485097E+03  0.89989044381E+02 0.  0.
        -13    1    3    3    0    0 -0.34733533483E+02  0.77089366478E+01 -0.14468691690E+01  0.35608294755E+02  0.10570000000E+00 0. -1.
         13    1    3    3    0    0  0.34733533483E+02 -0.77089366478E+01  0.66541976608E+02  0.75456556215E+02  0.10570000000E+00 0.  1.
<mgrwt>
<rscale>  0 0.89989044E+02</rscale>
<asrwt>0</asrwt>
<pdfrwt beam="2">  1        4 0.35361342E-02 0.89989044E+02</pdfrwt>
<pdfrwt beam="1">  1       -4 0.13550766E-01 0.89989044E+02</pdfrwt>
<totfact> 0.26718515E+04</totfact>
</mgrwt>
</event>
<event>
 5    1  0.1090823E+000  0.8919023E+02  0.7818608E-02  0.1304825E+00
         -4   -1    0    0    0  501 -0.00000000000E+00  0.00000000000E+00  0.28639063829E+02  0.28674245884E+02  0.14200000000E+01 0.  1.
          4   -1    0    0  501    0  0.00000000000E+00 -0.00000000000E+00 -0.69355882351E+02  0.69370417446E+02  0.14200000000E+01 0. -1.
         23    2    1    2    0    0  0.00000000000E+00  0.00000000000E+00 -0.40716818522E+02  0.98044663330E+02  0.89190227587E+02 0.  0.
        -13    1    3    3    0    0 -0.15507809501E+02  0.32654227426E+02 -0.49064504850E+02  0.60943642269E+02  0.10570000000E+00 0. -1.
         13    1    3    3    0    0  0.15507809501E+02 -0.32654227426E+02  0.83476863285E+01  0.37101021062E+02  0.10570000000E+00 0.  1.
<mgrwt>
<rscale>  0 0.89190228E+02</rscale>
<asrwt>0</asrwt>
<pdfrwt beam="2">  1        4 0.10673960E-01 0.89190228E+02</pdfrwt>
<pdfrwt beam="1">  1       -4 0.44098342E-02 0.89190228E+02</pdfrwt>
<totfact> 0.28210272E+04</totfact>
</mgrwt>
</event>
<event>
 5    1  0.1090823E+000  0.9142203E+02  0.7818608E-02  0.1299444E+00
         -4   -1    0    0    0  501 -0.00000000000E+00  0.00000000000E+00  0.53641333999E+02  0.53660125914E+02  0.14200000000E+01 0.  1.
          4   -1    0    0  501    0  0.00000000000E+00 -0.00000000000E+00 -0.38914543547E+02  0.38940442980E+02  0.14200000000E+01 0. -1.
         23    2    1    2    0    0  0.00000000000E+00  0.00000000000E+00  0.14726790451E+02  0.92600568895E+02  0.91422026901E+02 0.  0.
        -13    1    3    3    0    0  0.36991182192E+02  0.94539864462E+00 -0.19819937807E+02  0.41977165766E+02  0.10570000000E+00 0. -1.
         13    1    3    3    0    0 -0.36991182192E+02 -0.94539864462E+00  0.34546728258E+02  0.50623403129E+02  0.10570000000E+00 0.  1.
<mgrwt>
<rscale>  0 0.91422027E+02</rscale>
<asrwt>0</asrwt>
<pdfrwt beam="2">  1        4 0.59902907E-02 0.91422027E+02</pdfrwt>
<pdfrwt beam="1">  1       -4 0.82559507E-02 0.91422027E+02</pdfrwt>
<totfact> 0.26729126E+04</totfact>
</mgrwt>
</event>
<event>
 5    1  0.1090823E+000  0.9019961E+02  0.7818608E-02  0.1302369E+00
          4   -1    0    0  501    0  0.00000000000E+00  0.00000000000E+00  0.72470105924E+02  0.72484016532E+02  0.14200000000E+01 0. -1.
         -4   -1    0    0    0  501 -0.00000000000E+00 -0.00000000000E+00 -0.28032064385E+02  0.28068007298E+02  0.14200000000E+01 0.  1.
         23    2    1    2    0    0  0.00000000000E+00  0.00000000000E+00  0.44438041539E+02  0.10055202383E+03  0.90199611754E+02 0.  0.
        -13    1    3    3    0    0  0.35708654088E+01 -0.18303322049E+02 -0.23557532639E+02  0.30045485424E+02  0.10570000000E+00 0.  1.
         13    1    3    3    0    0 -0.35708654088E+01  0.18303322049E+02  0.67995574178E+02  0.70506538406E+02  0.10570000000E+00 0. -1.
<mgrwt>
<rscale>  0 0.90199612E+02</rscale>
<asrwt>0</asrwt>
<pdfrwt beam="1">  1        4 0.11153082E-01 0.90199612E+02</pdfrwt>
<pdfrwt beam="2">  1       -4 0.43164602E-02 0.90199612E+02</pdfrwt>
<totfact> 0.27205449E+04</totfact>
</mgrwt>
</event>
<event>
 5    1  0.1090823E+000  0.9046637E+02  0.7818608E-02  0.1301726E+00
         -4   -1    0    0    0  501 -0.00000000000E+00  0.00000000000E+00  0.34148228011E+02  0.34177739485E+02  0.14200000000E+01 0.  1.
          4   -1    0    0  501    0  0.00000000000E+00 -0.00000000000E+00 -0.59852652578E+02  0.59869494908E+02  0.14200000000E+01 0. -1.
         23    2    1    2    0    0  0.00000000000E+00  0.00000000000E+00 -0.25704424567E+02  0.94047234393E+02  0.90466374166E+02 0.  0.
        -13    1    3    3    0    0  0.28497820105E+01  0.38706294438E+02  0.11299490145E+02  0.40422619121E+02  0.10570000000E+00 0.  1.
         13    1    3    3    0    0 -0.28497820105E+01 -0.38706294438E+02 -0.37003914711E+02  0.53624615272E+02  0.10570000000E+00 0. -1.
<mgrwt>
<rscale>  0 0.90466374E+02</rscale>
<asrwt>0</asrwt>
<pdfrwt beam="2">  1        4 0.92116661E-02 0.90466374E+02</pdfrwt>
<pdfrwt beam="1">  1       -4 0.52571392E-02 0.90466374E+02</pdfrwt>
<totfact> 0.27406899E+04</totfact>
</mgrwt>
</event>
<event>
 5    1  0.1090823E+000  0.9433382E+02  0.7818608E-02  0.1292684E+00
         -4   -1    0    0    0  501 -0.00000000000E+00  0.00000000000E+00  0.14288296273E+02  0.14358684145E+02  0.14200000000E+01 0.  1.
          4   -1    0    0  501    0  0.00000000000E+00 -0.00000000000E+00 -0.15524587661E+03  0.15525237069E+03  0.14200000000E+01 0. -1.
         23    2    1    2    0    0  0.00000000000E+00  0.00000000000E+00 -0.14095758034E+03  0.16961105483E+03  0.94333824618E+02 0.  0.
        -13    1    3    3    0    0  0.20801997253E+02  0.42301614108E+02 -0.73353771028E+02  0.87194819470E+02  0.10570000000E+00 0.  1.
         13    1    3    3    0    0 -0.20801997253E+02 -0.42301614108E+02 -0.67603809309E+02  0.82416235364E+02  0.10570000000E+00 0. -1.
<mgrwt>
<rscale>  0 0.94333825E+02</rscale>
<asrwt>0</asrwt>
<pdfrwt beam="2">  1        4 0.23889894E-01 0.94333825E+02</pdfrwt>
<pdfrwt beam="1">  1       -4 0.22041135E-02 0.94333825E+02</pdfrwt>
<totfact> 0.20732979E+04</totfact>
</mgrwt>
</event>
<event>
 5    1  0.1090823E+000  0.8778182E+02  0.7818608E-02  0.1308314E+00
          4   -1    0    0  501    0  0.00000000000E+00  0.00000000000E+00  0.76587397936E+02  0.76600560851E+02  0.14200000000E+01 0. -1.
         -4   -1    0    0    0  501 -0.00000000000E+00 -0.00000000000E+00 -0.25117740437E+02  0.25157847377E+02  0.14200000000E+01 0.  1.
         23    2    1    2    0    0  0.00000000000E+00  0.00000000000E+00  0.51469657499E+02  0.10175840823E+03  0.87781820453E+02 0.  0.
        -13    1    3    3    0    0  0.60578041675E+00 -0.42861639962E+02  0.14804077552E+02  0.45350402808E+02  0.10570000000E+00 0.  1.
         13    1    3    3    0    0 -0.60578041675E+00  0.42861639962E+02  0.36665579947E+02  0.56408005420E+02  0.10570000000E+00 0. -1.
<mgrwt>
<rscale>  0 0.87781820E+02</rscale>
<asrwt>0</asrwt>
<pdfrwt beam="1">  1        4 0.11786774E-01 0.87781820E+02</pdfrwt>
<pdfrwt beam="2">  1       -4 0.38683655E-02 0.87781820E+02</pdfrwt>
<totfact> 0.29189662E+04</totfact>
</mgrwt>
</event>
<event>
 5    1  0.1090823E+000  0.9231304E+02  0.7818608E-02  0.1297345E+00
          4   -1    0    0  501    0  0.00000000000E+00  0.00000000000E+00  0.24885409230E+02  0.24925890005E+02  0.14200000000E+01 0. -1.
         -4   -1    0    0    0  501 -0.00000000000E+00 -0.00000000000E+00 -0.85493426425E+02  0.85505218331E+02  0.14200000000E+01 0.  1.
         23    2    1    2    0    0  0.00000000000E+00  0.00000000000E+00 -0.60608017195E+02  0.11043110834E+03  0.92313043174E+02 0.  0.
        -13    1    3    3    0    0  0.33654317845E+02  0.22703099246E+02 -0.40304876415E+01  0.40795831014E+02  0.10570000000E+00 0. -1.
         13    1    3    3    0    0 -0.33654317845E+02 -0.22703099246E+02 -0.56577529553E+02  0.69635277323E+02  0.10570000000E+00 0.  1.
<mgrwt>
<rscale>  0 0.92313043E+02</rscale>
<asrwt>0</asrwt>
<pdfrwt beam="1">  1        4 0.38325455E-02 0.92313043E+02</pdfrwt>
<pdfrwt beam="2">  1       -4 0.13156856E-01 0.92313043E+02</pdfrwt>
<totfact> 0.24973927E+04</totfact>
</mgrwt>
</event>
<event>
 5    1  0.1090823E+000  0.9122536E+02  0.7818608E-02  0.1299911E+00
         -4   -1    0    0    0  501 -0.00000000000E+00  0.00000000000E+00  0.18185139791E+03  0.18185694192E+03  0.14200000000E+01 0.  1.
          4   -1    0    0  501    0  0.00000000000E+00 -0.00000000000E+00 -0.11390948458E+02  0.11479116115E+02  0.14200000000E+01 0. -1.
         23    2    1    2    0    0  0.00000000000E+00  0.00000000000E+00  0.17046044946E+03  0.19333605803E+03  0.91225361092E+02 0.  0.
        -13    1    3    3    0    0 -0.32476313746E+02  0.31223874892E+02  0.70115400339E+02  0.83341597387E+02  0.10570000000E+00 0.  1.
         13    1    3    3    0    0  0.32476313746E+02 -0.31223874892E+02  0.10034504912E+03  0.10999446065E+03  0.10570000000E+00 0. -1.
<mgrwt>
<rscale>  0 0.91225361E+02</rscale>
<asrwt>0</asrwt>
<pdfrwt beam="2">  1        4 0.17596623E-02 0.91225361E+02</pdfrwt>
<pdfrwt beam="1">  1       -4 0.27984346E-01 0.91225361E+02</pdfrwt>
<totfact> 0.21636904E+04</totfact>
</mgrwt>
</event>
<event>
 5    1  0.1090823E+000  0.9034941E+02  0.7818608E-02  0.1302008E+00
         -4   -1    0    0    0  501 -0.00000000000E+00  0.00000000000E+00  0.38345267076E+02  0.38371550752E+02  0.14200000000E+01 0.  1.
          4   -1    0    0  501    0  0.00000000000E+00 -0.00000000000E+00 -0.53166486257E+02  0.53185445950E+02  0.14200000000E+01 0. -1.
         23    2    1    2    0    0  0.00000000000E+00  0.00000000000E+00 -0.14821219181E+02  0.91556996702E+02  0.90349405682E+02 0.  0.
        -13    1    3    3    0    0  0.37662288235E+02 -0.23646675110E+02 -0.15462207669E+02  0.47081888634E+02  0.10570000000E+00 0. -1.
         13    1    3    3    0    0 -0.37662288235E+02  0.23646675110E+02  0.64098848771E+00  0.44475108068E+02  0.10570000000E+00 0.  1.
<mgrwt>
<rscale>  0 0.90349406E+02</rscale>
<asrwt>0</asrwt>
<pdfrwt beam="2">  1        4 0.81829397E-02 0.90349406E+02</pdfrwt>
<pdfrwt beam="1">  1       -4 0.59027521E-02 0.90349406E+02</pdfrwt>
<totfact> 0.27666880E+04</totfact>
</mgrwt>
</event>
<event>
 4    1  0.1090823E+000  0.1457236E+03  0.7818608E-02  0.1205828E+00
          4   -1    0    0  501    0  0.00000000000E+00  0.00000000000E+00  0.55797960224E+02  0.55816026060E+02  0.14200000000E+01 0. -1.
         -4   -1    0    0    0  501 -0.00000000000E+00 -0.00000000000E+00 -0.95105284052E+02  0.95115884345E+02  0.14200000000E+01 0.  1.
        -13    1    1    2    0    0 -0.53242003350E+02 -0.19919323031E+02 -0.66860524772E+02  0.87760078031E+02  0.10570000000E+00 0.  1.
         13    1    1    2    0    0  0.53242003350E+02  0.19919323031E+02  0.27553200944E+02  0.63171832374E+02  0.10570000000E+00 0. -1.
<mgrwt>
<rscale>  0 0.14572363E+03</rscale>
<asrwt>0</asrwt>
<pdfrwt beam="1">  1        4 0.85865066E-02 0.14572363E+03</pdfrwt>
<pdfrwt beam="2">  1       -4 0.14633787E-01 0.14572363E+03</pdfrwt>
<totfact> 0.64062661E+03</totfact>
</mgrwt>
</event>
<event>
 5    1  0.1090823E+000  0.9347160E+02  0.7818608E-02  0.1294656E+00
          4   -1    0    0  501    0  0.00000000000E+00  0.00000000000E+00  0.17266864406E+02  0.17325155307E+02  0.14200000000E+01 0. -1.
         -4   -1    0    0    0  501 -0.00000000000E+00 -0.00000000000E+00 -0.12622319151E+03  0.12623117870E+03  0.14200000000E+01 0.  1.
         23    2    1    2    0    0  0.00000000000E+00  0.00000000000E+00 -0.10895632711E+03  0.14355633401E+03  0.93471598985E+02 0.  0.
        -13    1    3    3    0    0 -0.62569350185E+00  0.37105491528E+02 -0.98107984793E+02  0.10489231071E+03  0.10570000000E+00 0.  1.
         13    1    3    3    0    0  0.62569350185E+00 -0.37105491528E+02 -0.10848342315E+02  0.38664023295E+02  0.10570000000E+00 0. -1.
<mgrwt>
<rscale>  0 0.93471599E+02</rscale>
<asrwt>0</asrwt>
<pdfrwt beam="1">  1        4 0.26615391E-02 0.93471599E+02</pdfrwt>
<pdfrwt beam="2">  1       -4 0.19424050E-01 0.93471599E+02</pdfrwt>
<totfact> 0.22441624E+04</totfact>
</mgrwt>
</event>
<event>
 5    1  0.1090823E+000  0.9252820E+02  0.7818608E-02  0.1296842E+00
         -4   -1    0    0    0  501 -0.00000000000E+00  0.00000000000E+00  0.14143369736E+03  0.14144082561E+03  0.14200000000E+01 0.  1.
          4   -1    0    0  501    0  0.00000000000E+00 -0.00000000000E+00 -0.15092522451E+02  0.15159176559E+02  0.14200000000E+01 0. -1.
         23    2    1    2    0    0  0.00000000000E+00  0.00000000000E+00  0.12634117491E+03  0.15660000217E+03  0.92528202196E+02 0.  0.
        -13    1    3    3    0    0 -0.43687255619E+02 -0.66369427910E+01  0.86359753647E+02  0.97008471463E+02  0.10570000000E+00 0.  1.
         13    1    3    3    0    0  0.43687255619E+02  0.66369427910E+01  0.39981421263E+02  0.59591530705E+02  0.10570000000E+00 0. -1.
<mgrwt>
<rscale>  0 0.92528202E+02</rscale>
<asrwt>0</asrwt>
<pdfrwt beam="2">  1        4 0.23276021E-02 0.92528202E+02</pdfrwt>
<pdfrwt beam="1">  1       -4 0.21764706E-01 0.92528202E+02</pdfrwt>
<totfact> 0.22438077E+04</totfact>
</mgrwt>
</event>
<event>
 5    1  0.1090823E+000  0.6076998E+02  0.7818608E-02  0.1394629E+00
         -4   -1    0    0    0  501 -0.00000000000E+00  0.00000000000E+00  0.40948143380E+01  0.43340402008E+01  0.14200000000E+01 0.  1.
          4   -1    0    0  501    0  0.00000000000E+00 -0.00000000000E+00 -0.21882678580E+03  0.21883139305E+03  0.14200000000E+01 0. -1.
         23    2    1    2    0    0  0.00000000000E+00  0.00000000000E+00 -0.21473197146E+03  0.22316543325E+03  0.60769984609E+02 0.  0.
        -13    1    3    3    0    0  0.96710027837E+00  0.30275051587E+02 -0.98581168620E+02  0.10312987933E+03  0.10570000000E+00 0.  1.
         13    1    3    3    0    0 -0.96710027837E+00 -0.30275051587E+02 -0.11615080284E+03  0.12003555392E+03  0.10570000000E+00 0. -1.
<mgrwt>
<rscale>  0 0.60769985E+02</rscale>
<asrwt>0</asrwt>
<pdfrwt beam="2">  1        4 0.33684407E-01 0.60769985E+02</pdfrwt>
<pdfrwt beam="1">  1       -4 0.64872800E-03 0.60769985E+02</pdfrwt>
<totfact> 0.58569445E+04</totfact>
</mgrwt>
</event>
<event>
 5    1  0.1090823E+000  0.9007352E+02  0.7818608E-02  0.1302674E+00
         -4   -1    0    0    0  501 -0.00000000000E+00  0.00000000000E+00  0.12974190910E+02  0.13051667700E+02  0.14200000000E+01 0.  1.
          4   -1    0    0  501    0  0.00000000000E+00 -0.00000000000E+00 -0.15578807403E+03  0.15579454551E+03  0.14200000000E+01 0. -1.
         23    2    1    2    0    0  0.00000000000E+00  0.00000000000E+00 -0.14281388312E+03  0.16884621321E+03  0.90073517212E+02 0.  0.
        -13    1    3    3    0    0  0.26879912965E+02 -0.19411660133E+02 -0.14273311513E+02  0.36098211371E+02  0.10570000000E+00 0.  1.
         13    1    3    3    0    0 -0.26879912965E+02  0.19411660133E+02 -0.12854057161E+03  0.13274800184E+03  0.10570000000E+00 0. -1.
<mgrwt>
<rscale>  0 0.90073517E+02</rscale>
<asrwt>0</asrwt>
<pdfrwt beam="2">  1        4 0.23973852E-01 0.90073517E+02</pdfrwt>
<pdfrwt beam="1">  1       -4 0.20024870E-02 0.90073517E+02</pdfrwt>
<totfact> 0.23515915E+04</totfact>
</mgrwt>
</event>
<event>
 5    1  0.1090823E+000  0.9021614E+02  0.7818608E-02  0.1302329E+00
          4   -1    0    0  501    0  0.00000000000E+00  0.00000000000E+00  0.87311643813E+02  0.87323190192E+02  0.14200000000E+01 0. -1.
         -4   -1    0    0    0  501 -0.00000000000E+00 -0.00000000000E+00 -0.23269584459E+02  0.23312871142E+02  0.14200000000E+01 0.  1.
         23    2    1    2    0    0  0.00000000000E+00  0.00000000000E+00  0.64042059353E+02  0.11063606133E+03  0.90216144350E+02 0.  0.
        -13    1    3    3    0    0 -0.22335674091E+02 -0.30639817061E+02  0.61986178645E+02  0.72663458782E+02  0.10570000000E+00 0. -1.
         13    1    3    3    0    0  0.22335674091E+02  0.30639817061E+02  0.20558807082E+01  0.37972602552E+02  0.10570000000E+00 0.  1.
<mgrwt>
<rscale>  0 0.90216144E+02</rscale>
<asrwt>0</asrwt>
<pdfrwt beam="1">  1        4 0.13436778E-01 0.90216144E+02</pdfrwt>
<pdfrwt beam="2">  1       -4 0.35841540E-02 0.90216144E+02</pdfrwt>
<totfact> 0.26563762E+04</totfact>
</mgrwt>
</event>
<event>
 5    1  0.1090823E+000  0.8964107E+02  0.7818608E-02  0.1303723E+00
         -4   -1    0    0    0  501 -0.00000000000E+00  0.00000000000E+00  0.77477666771E+01  0.78768196935E+01  0.14200000000E+01 0.  1.
          4   -1    0    0  501    0  0.00000000000E+00 -0.00000000000E+00 -0.25701246974E+03  0.25701639248E+03  0.14200000000E+01 0. -1.
         23    2    1    2    0    0  0.00000000000E+00  0.00000000000E+00 -0.24926470306E+03  0.26489321217E+03  0.89641071284E+02 0.  0.
        -13    1    3    3    0    0  0.39176297933E+02 -0.84485504572E+01 -0.18393299629E+03  0.18824855543E+03  0.10570000000E+00 0. -1.
         13    1    3    3    0    0 -0.39176297933E+02  0.84485504572E+01 -0.65331706774E+02  0.76644656742E+02  0.10570000000E+00 0.  1.
<mgrwt>
<rscale>  0 0.89641071E+02</rscale>
<asrwt>0</asrwt>
<pdfrwt beam="2">  1        4 0.39550602E-01 0.89641071E+02</pdfrwt>
<pdfrwt beam="1">  1       -4 0.12021932E-02 0.89641071E+02</pdfrwt>
<totfact> 0.19822753E+04</totfact>
</mgrwt>
</event>
<event>
 5    1  0.1090823E+000  0.8858693E+02  0.7818608E-02  0.1306310E+00
          4   -1    0    0  501    0  0.00000000000E+00  0.00000000000E+00  0.19555908641E+03  0.19556424182E+03  0.14200000000E+01 0. -1.
         -4   -1    0    0    0  501 -0.00000000000E+00 -0.00000000000E+00 -0.99767552526E+01  0.10077303477E+02  0.14200000000E+01 0.  1.
         23    2    1    2    0    0  0.00000000000E+00  0.00000000000E+00  0.18558233116E+03  0.20564154530E+03  0.88586926312E+02 0.  0.
        -13    1    3    3    0    0  0.40172432908E+02 -0.18525085169E+02  0.87654435496E+02  0.98185102642E+02  0.10570000000E+00 0.  1.
         13    1    3    3    0    0 -0.40172432908E+02  0.18525085169E+02  0.97927895664E+02  0.10745644265E+03  0.10570000000E+00 0. -1.
<mgrwt>
<rscale>  0 0.88586926E+02</rscale>
<asrwt>0</asrwt>
<pdfrwt beam="1">  1        4 0.30094144E-01 0.88586926E+02</pdfrwt>
<pdfrwt beam="2">  1       -4 0.15430165E-02 0.88586926E+02</pdfrwt>
<totfact> 0.22841935E+04</totfact>
</mgrwt>
</event>
<event>
 5    1  0.1090823E+000  0.8995313E+02  0.7818608E-02  0.1302965E+00
         -4   -1    0    0    0  501 -0.00000000000E+00  0.00000000000E+00  0.85682463740E+02  0.85694229634E+02  0.14200000000E+01 0.  1.
          4   -1    0    0  501    0  0.00000000000E+00 -0.00000000000E+00 -0.23574412191E+02  0.23617140177E+02  0.14200000000E+01 0. -1.
         23    2    1    2    0    0  0.00000000000E+00  0.00000000000E+00  0.62108051549E+02  0.10931136981E+03  0.89953129477E+02 0.  0.
        -13    1    3    3    0    0 -0.10274713180E+02 -0.14604613772E+02 -0.19109246529E+02  0.26154138291E+02  0.10570000000E+00 0. -1.
         13    1    3    3    0    0  0.10274713180E+02  0.14604613772E+02  0.81217298079E+02  0.83157231520E+02  0.10570000000E+00 0.  1.
<mgrwt>
<rscale>  0 0.89953129E+02</rscale>
<asrwt>0</asrwt>
<pdfrwt beam="2">  1        4 0.36310245E-02 0.89953129E+02</pdfrwt>
<pdfrwt beam="1">  1       -4 0.13186109E-01 0.89953129E+02</pdfrwt>
<totfact> 0.26855337E+04</totfact>
</mgrwt>
</event>
<event>
 5    1  0.1090823E+000  0.9226763E+02  0.7818608E-02  0.1297451E+00
          4   -1    0    0  501    0  0.00000000000E+00  0.00000000000E+00  0.12023822876E+03  0.12024661349E+03  0.14200000000E+01 0. -1.
         -4   -1    0    0    0  501 -0.00000000000E+00 -0.00000000000E+00 -0.17663438439E+02  0.17720424868E+02  0.14200000000E+01 0.  1.
         23    2    1    2    0    0  0.00000000000E+00  0.00000000000E+00  0.10257479032E+03  0.13796703836E+03  0.92267632804E+02 0.  0.
        -13    1    3    3    0    0 -0.14349606978E+02 -0.40617553065E+02  0.75976515755E+02  0.87339217745E+02  0.10570000000E+00 0.  1.
         13    1    3    3    0    0  0.14349606978E+02  0.40617553065E+02  0.26598274565E+02  0.50627820611E+02  0.10570000000E+00 0. -1.
<mgrwt>
<rscale>  0 0.92267633E+02</rscale>
<asrwt>0</asrwt>
<pdfrwt beam="1">  1        4 0.18503217E-01 0.92267633E+02</pdfrwt>
<pdfrwt beam="2">  1       -4 0.27224807E-02 0.92267633E+02</pdfrwt>
<totfact> 0.23523680E+04</totfact>
</mgrwt>
</event>
<event>
 5    1  0.1090823E+000  0.9098197E+02  0.7818608E-02  0.1300491E+00
          4   -1    0    0  501    0  0.00000000000E+00  0.00000000000E+00  0.78956856768E+01  0.80223595224E+01  0.14200000000E+01 0. -1.
         -4   -1    0    0    0  501 -0.00000000000E+00 -0.00000000000E+00 -0.25988192857E+03  0.25988580799E+03  0.14200000000E+01 0.  1.
         23    2    1    2    0    0  0.00000000000E+00  0.00000000000E+00 -0.25198624289E+03  0.26790816751E+03  0.90981974121E+02 0.  0.
        -13    1    3    3    0    0  0.43893512440E+02  0.11862203835E+02 -0.13022603688E+03  0.13793543478E+03  0.10570000000E+00 0. -1.
         13    1    3    3    0    0 -0.43893512440E+02 -0.11862203835E+02 -0.12176020601E+03  0.12997273273E+03  0.10570000000E+00 0.  1.
<mgrwt>
<rscale>  0 0.90981974E+02</rscale>
<asrwt>0</asrwt>
<pdfrwt beam="1">  1        4 0.12247636E-02 0.90981974E+02</pdfrwt>
<pdfrwt beam="2">  1       -4 0.39991871E-01 0.90981974E+02</pdfrwt>
<totfact> 0.18954310E+04</totfact>
</mgrwt>
</event>
<event>
 5    1  0.1090823E+000  0.9067049E+02  0.7818608E-02  0.1301236E+00
         -4   -1    0    0    0  501 -0.00000000000E+00  0.00000000000E+00  0.99893824849E+01  0.10089804876E+02  0.14200000000E+01 0.  1.
          4   -1    0    0  501    0  0.00000000000E+00 -0.00000000000E+00 -0.20461499040E+03  0.20461991764E+03  0.14200000000E+01 0. -1.
         23    2    1    2    0    0  0.00000000000E+00  0.00000000000E+00 -0.19462560791E+03  0.21470972252E+03  0.90670489619E+02 0.  0.
        -13    1    3    3    0    0  0.75028552789E+01  0.32104853823E+02 -0.17099820814E+03  0.17414767537E+03  0.10570000000E+00 0. -1.
         13    1    3    3    0    0 -0.75028552789E+01 -0.32104853823E+02 -0.23627399769E+02  0.40562047146E+02  0.10570000000E+00 0.  1.
<mgrwt>
<rscale>  0 0.90670490E+02</rscale>
<asrwt>0</asrwt>
<pdfrwt beam="2">  1        4 0.31487330E-01 0.90670490E+02</pdfrwt>
<pdfrwt beam="1">  1       -4 0.15449320E-02 0.90670490E+02</pdfrwt>
<totfact> 0.21098511E+04</totfact>
</mgrwt>
</event>
<event>
 5    1  0.1090823E+000  0.9058797E+02  0.7818608E-02  0.1301434E+00
         -4   -1    0    0    0  501 -0.00000000000E+00  0.00000000000E+00  0.10780934558E+03  0.10781869687E+03  0.14200000000E+01 0.  1.
          4   -1    0    0  501    0  0.00000000000E+00 -0.00000000000E+00 -0.18992699201E+02  0.19045708781E+02  0.14200000000E+01 0. -1.
         23    2    1    2    0    0  0.00000000000E+00  0.00000000000E+00  0.88816646379E+02  0.12686440565E+03  0.90587972418E+02 0.  0.
        -13    1    3    3    0    0 -0.45250469986E+02 -0.10935014148E+01  0.46723625626E+02  0.65053125547E+02  0.10570000000E+00 0.  1.
         13    1    3    3    0    0  0.45250469986E+02  0.10935014148E+01  0.42093020753E+02  0.61811280102E+02  0.10570000000E+00 0. -1.
<mgrwt>
<rscale>  0 0.90587972E+02</rscale>
<asrwt>0</asrwt>
<pdfrwt beam="2">  1        4 0.29267507E-02 0.90587972E+02</pdfrwt>
<pdfrwt beam="1">  1       -4 0.16590850E-01 0.90587972E+02</pdfrwt>
<totfact> 0.25327768E+04</totfact>
</mgrwt>
</event>
<event>
 5    1  0.1090823E+000  0.9201919E+02  0.7818608E-02  0.1298034E+00
         -4   -1    0    0    0  501 -0.00000000000E+00  0.00000000000E+00  0.14009713749E+02  0.14081494215E+02  0.14200000000E+01 0.  1.
          4   -1    0    0  501    0  0.00000000000E+00 -0.00000000000E+00 -0.15063984142E+03  0.15064653405E+03  0.14200000000E+01 0. -1.
         23    2    1    2    0    0  0.00000000000E+00  0.00000000000E+00 -0.13663012767E+03  0.16472802827E+03  0.92019190989E+02 0.  0.
        -13    1    3    3    0    0 -0.28282910585E+02  0.34703282801E+02 -0.87313495219E+02  0.98121855304E+02  0.10570000000E+00 0. -1.
         13    1    3    3    0    0  0.28282910585E+02 -0.34703282801E+02 -0.49316632451E+02  0.66606172966E+02  0.10570000000E+00 0.  1.
<mgrwt>
<rscale>  0 0.92019191E+02</rscale>
<asrwt>0</asrwt>
<pdfrwt beam="2">  1        4 0.23181396E-01 0.92019191E+02</pdfrwt>
<pdfrwt beam="1">  1       -4 0.21613771E-02 0.92019191E+02</pdfrwt>
<totfact> 0.22393352E+04</totfact>
</mgrwt>
</event>
<event>
 5    1  0.1090823E+000  0.9512972E+02  0.7818608E-02  0.1290884E+00
          4   -1    0    0  501    0  0.00000000000E+00  0.00000000000E+00  0.20090062387E+02  0.20140183880E+02  0.14200000000E+01 0. -1.
         -4   -1    0    0    0  501 -0.00000000000E+00 -0.00000000000E+00 -0.11241877405E+03  0.11242774194E+03  0.14200000000E+01 0.  1.
         23    2    1    2    0    0  0.00000000000E+00  0.00000000000E+00 -0.92328711659E+02  0.13256792582E+03  0.95129721747E+02 0.  0.
        -13    1    3    3    0    0  0.35745466978E+02  0.19323489965E+02 -0.80618262391E+02  0.90279848678E+02  0.10570000000E+00 0.  1.
         13    1    3    3    0    0 -0.35745466978E+02 -0.19323489965E+02 -0.11710449268E+02  0.42288077143E+02  0.10570000000E+00 0. -1.
<mgrwt>
<rscale>  0 0.95129722E+02</rscale>
<asrwt>0</asrwt>
<pdfrwt beam="1">  1        4 0.30953242E-02 0.95129722E+02</pdfrwt>
<pdfrwt beam="2">  1       -4 0.17299741E-01 0.95129722E+02</pdfrwt>
<totfact> 0.21909126E+04</totfact>
</mgrwt>
</event>
<event>
 5    1  0.1090823E+000  0.8963133E+02  0.7818608E-02  0.1303747E+00
          4   -1    0    0  501    0  0.00000000000E+00  0.00000000000E+00  0.57622396690E+02  0.57639890703E+02  0.14200000000E+01 0.  1.
         -4   -1    0    0    0  501 -0.00000000000E+00 -0.00000000000E+00 -0.34818008191E+02  0.34846952441E+02  0.14200000000E+01 0. -1.
         23    2    1    2    0    0  0.00000000000E+00  0.00000000000E+00  0.22804388499E+02  0.92486843144E+02  0.89631333918E+02 0.  0.
        -13    1    3    3    0    0  0.37059830595E+02  0.25083321173E+02  0.13893397804E+02  0.46857675143E+02  0.10570000000E+00 0.  1.
         13    1    3    3    0    0 -0.37059830595E+02 -0.25083321173E+02  0.89109906944E+01  0.45629168001E+02  0.10570000000E+00 0. -1.
<mgrwt>
<rscale>  0 0.89631334E+02</rscale>
<asrwt>0</asrwt>
<pdfrwt beam="1">  1        4 0.88685562E-02 0.89631334E+02</pdfrwt>
<pdfrwt beam="2">  1       -4 0.53601889E-02 0.89631334E+02</pdfrwt>
<totfact> 0.28207500E+04</totfact>
</mgrwt>
</event>
<event>
 5    1  0.1090823E+000  0.9215748E+02  0.7818608E-02  0.1297710E+00
         -4   -1    0    0    0  501 -0.00000000000E+00  0.00000000000E+00  0.12630822103E+03  0.12631620284E+03  0.14200000000E+01 0. -1.
          4   -1    0    0  501    0  0.00000000000E+00 -0.00000000000E+00 -0.16771555289E+02  0.16831561627E+02  0.14200000000E+01 0.  1.
         23    2    1    2    0    0  0.00000000000E+00  0.00000000000E+00  0.10953666574E+03  0.14314776447E+03  0.92157481141E+02 0.  0.
        -13    1    3    3    0    0 -0.67792870935E+01  0.42229599380E+02  0.28137525962E+02  0.51195989462E+02  0.10570000000E+00 0.  1.
         13    1    3    3    0    0  0.67792870935E+01 -0.42229599380E+02  0.81399139781E+02  0.91951775006E+02  0.10570000000E+00 0. -1.
<mgrwt>
<rscale>  0 0.92157481E+02</rscale>
<asrwt>0</asrwt>
<pdfrwt beam="2">  1        4 0.25854692E-02 0.92157481E+02</pdfrwt>
<pdfrwt beam="1">  1       -4 0.19437264E-01 0.92157481E+02</pdfrwt>
<totfact> 0.23337890E+04</totfact>
</mgrwt>
</event>
<event>
 5    1  0.1090823E+000  0.9839761E+02  0.7818608E-02  0.1283702E+00
         -4   -1    0    0    0  501 -0.00000000000E+00  0.00000000000E+00  0.52573444666E+02  0.52592618151E+02  0.14200000000E+01 0.  1.
          4   -1    0    0  501    0  0.00000000000E+00 -0.00000000000E+00 -0.46002254383E+02  0.46024165482E+02  0.14200000000E+01 0. -1.
         23    2    1    2    0    0  0.00000000000E+00  0.00000000000E+00  0.65711902827E+01  0.98616783633E+02  0.98397609079E+02 0.  0.
        -13    1    3    3    0    0 -0.90918240894E+01 -0.41818471747E+02  0.27610325080E+02  0.50929235887E+02  0.10570000000E+00 0.  1.
         13    1    3    3    0    0  0.90918240894E+01  0.41818471747E+02 -0.21039134797E+02  0.47687547746E+02  0.10570000000E+00 0. -1.
<mgrwt>
<rscale>  0 0.98397609E+02</rscale>
<asrwt>0</asrwt>
<pdfrwt beam="2">  1        4 0.70804303E-02 0.98397609E+02</pdfrwt>
<pdfrwt beam="1">  1       -4 0.80913826E-02 0.98397609E+02</pdfrwt>
<totfact> 0.21559071E+04</totfact>
</mgrwt>
</event>
<event>
 5    1  0.1090823E+000  0.9203734E+02  0.7818608E-02  0.1297992E+00
         -4   -1    0    0    0  501 -0.00000000000E+00  0.00000000000E+00  0.10313634876E+03  0.10314612371E+03  0.14200000000E+01 0.  1.
          4   -1    0    0  501    0  0.00000000000E+00 -0.00000000000E+00 -0.20497873214E+02  0.20546999934E+02  0.14200000000E+01 0. -1.
         23    2    1    2    0    0  0.00000000000E+00  0.00000000000E+00  0.82638475548E+02  0.12369312364E+03  0.92037335878E+02 0.  0.
        -13    1    3    3    0    0 -0.44045315238E+02  0.12010375370E+02  0.49094133120E+02  0.67040912809E+02  0.10570000000E+00 0.  1.
         13    1    3    3    0    0  0.44045315238E+02 -0.12010375370E+02  0.33544342428E+02  0.56652210833E+02  0.10570000000E+00 0. -1.
<mgrwt>
<rscale>  0 0.92037336E+02</rscale>
<asrwt>0</asrwt>
<pdfrwt beam="2">  1        4 0.31580498E-02 0.92037336E+02</pdfrwt>
<pdfrwt beam="1">  1       -4 0.15871662E-01 0.92037336E+02</pdfrwt>
<totfact> 0.24435612E+04</totfact>
</mgrwt>
</event>
<event>
 5    1  0.1090823E+000  0.9131680E+02  0.7818608E-02  0.1299694E+00
         -4   -1    0    0    0  501 -0.00000000000E+00  0.00000000000E+00  0.58261910974E+01  0.59967410069E+01  0.14200000000E+01 0.  1.
          4   -1    0    0  501    0  0.00000000000E+00 -0.00000000000E+00 -0.35247988793E+03  0.35248274823E+03  0.14200000000E+01 0. -1.
         23    2    1    2    0    0  0.00000000000E+00  0.00000000000E+00 -0.34665369684E+03  0.35847948923E+03  0.91316803882E+02 0.  0.
        -13    1    3    3    0    0 -0.25289978473E+02  0.34265038532E+02 -0.23795181821E+03  0.24173281705E+03  0.10570000000E+00 0. -1.
         13    1    3    3    0    0  0.25289978473E+02 -0.34265038532E+02 -0.10870187862E+03  0.11674667218E+03  0.10570000000E+00 0.  1.
<mgrwt>
<rscale>  0 0.91316804E+02</rscale>
<asrwt>0</asrwt>
<pdfrwt beam="2">  1        4 0.54240998E-01 0.91316804E+02</pdfrwt>
<pdfrwt beam="1">  1       -4 0.90967661E-03 0.91316804E+02</pdfrwt>
<totfact> 0.16107911E+04</totfact>
</mgrwt>
</event>
<event>
 5    1  0.1090823E+000  0.9248417E+02  0.7818608E-02  0.1296945E+00
         -4   -1    0    0    0  501 -0.00000000000E+00  0.00000000000E+00  0.52430271291E+02  0.52449497115E+02  0.14200000000E+01 0.  1.
          4   -1    0    0  501    0  0.00000000000E+00 -0.00000000000E+00 -0.40745199630E+02  0.40769936141E+02  0.14200000000E+01 0. -1.
         23    2    1    2    0    0  0.00000000000E+00  0.00000000000E+00  0.11685071661E+02  0.93219433256E+02  0.92484170736E+02 0.  0.
        -13    1    3    3    0    0 -0.45665505564E+02  0.44564936591E+00 -0.14803648674E+01  0.45691789792E+02  0.10570000000E+00 0.  1.
         13    1    3    3    0    0  0.45665505564E+02 -0.44564936591E+00  0.13165436528E+02  0.47527643464E+02  0.10570000000E+00 0. -1.
<mgrwt>
<rscale>  0 0.92484171E+02</rscale>
<asrwt>0</asrwt>
<pdfrwt beam="2">  1        4 0.62718739E-02 0.92484171E+02</pdfrwt>
<pdfrwt beam="1">  1       -4 0.80695773E-02 0.92484171E+02</pdfrwt>
<totfact> 0.25863680E+04</totfact>
</mgrwt>
</event>
<event>
 5    1  0.1090823E+000  0.9394488E+02  0.7818608E-02  0.1293570E+00
          4   -1    0    0  501    0  0.00000000000E+00  0.00000000000E+00  0.20342291008E+02  0.20391792551E+02  0.14200000000E+01 0. -1.
         -4   -1    0    0    0  501 -0.00000000000E+00 -0.00000000000E+00 -0.10827821546E+03  0.10828752626E+03  0.14200000000E+01 0.  1.
         23    2    1    2    0    0  0.00000000000E+00  0.00000000000E+00 -0.87935924453E+02  0.12867931881E+03  0.93944878946E+02 0.  0.
        -13    1    3    3    0    0 -0.15019042580E+02 -0.18168046060E+02 -0.99619377175E+02  0.10237031317E+03  0.10570000000E+00 0.  1.
         13    1    3    3    0    0  0.15019042580E+02  0.18168046060E+02  0.11683452722E+02  0.26309005638E+02  0.10570000000E+00 0. -1.
<mgrwt>
<rscale>  0 0.93944879E+02</rscale>
<asrwt>0</asrwt>
<pdfrwt beam="1">  1        4 0.31341073E-02 0.93944879E+02</pdfrwt>
<pdfrwt beam="2">  1       -4 0.16662711E-01 0.93944879E+02</pdfrwt>
<totfact> 0.22860622E+04</totfact>
</mgrwt>
</event>
<event>
 5    1  0.1090823E+000  0.7307256E+02  0.7818608E-02  0.1349946E+00
         -4   -1    0    0    0  501 -0.00000000000E+00  0.00000000000E+00  0.15688263444E+02  0.15752396957E+02  0.14200000000E+01 0. -1.
          4   -1    0    0  501    0  0.00000000000E+00 -0.00000000000E+00 -0.84845417112E+02  0.84857299067E+02  0.14200000000E+01 0.  1.
         23    2    1    2    0    0  0.00000000000E+00  0.00000000000E+00 -0.69157153668E+02  0.10060969602E+03  0.73072560038E+02 0.  0.
        -13    1    3    3    0    0  0.31352567011E+02 -0.13830295740E+02 -0.52028607848E+02  0.62299660879E+02  0.10570000000E+00 0.  1.
         13    1    3    3    0    0 -0.31352567011E+02  0.13830295740E+02 -0.17128545820E+02  0.38310035145E+02  0.10570000000E+00 0. -1.
<mgrwt>
<rscale>  0 0.73072560E+02</rscale>
<asrwt>0</asrwt>
<pdfrwt beam="2">  1        4 0.13058988E-01 0.73072560E+02</pdfrwt>
<pdfrwt beam="1">  1       -4 0.24194264E-02 0.73072560E+02</pdfrwt>
<totfact> 0.47652968E+04</totfact>
</mgrwt>
</event>
<event>
 5    1  0.1090823E+000  0.9348775E+02  0.7818608E-02  0.1294619E+00
          4   -1    0    0  501    0  0.00000000000E+00  0.00000000000E+00  0.13683282454E+03  0.13684019246E+03  0.14200000000E+01 0. -1.
         -4   -1    0    0    0  501 -0.00000000000E+00 -0.00000000000E+00 -0.15928932896E+02  0.15992101275E+02  0.14200000000E+01 0.  1.
         23    2    1    2    0    0  0.00000000000E+00  0.00000000000E+00  0.12090389165E+03  0.15283229374E+03  0.93487747822E+02 0.  0.
        -13    1    3    3    0    0  0.47246821316E+01 -0.40683161881E+02  0.97281290024E+02  0.10555142274E+03  0.10570000000E+00 0. -1.
         13    1    3    3    0    0 -0.47246821316E+01  0.40683161881E+02  0.23622601625E+02  0.47280870993E+02  0.10570000000E+00 0.  1.
<mgrwt>
<rscale>  0 0.93487748E+02</rscale>
<asrwt>0</asrwt>
<pdfrwt beam="1">  1        4 0.21056631E-01 0.93487748E+02</pdfrwt>
<pdfrwt beam="2">  1       -4 0.24560307E-02 0.93487748E+02</pdfrwt>
<totfact> 0.21994387E+04</totfact>
</mgrwt>
</event>
<event>
 5    1  0.1090823E+000  0.9015978E+02  0.7818608E-02  0.1302465E+00
         -4   -1    0    0    0  501 -0.00000000000E+00  0.00000000000E+00  0.48923152336E+02  0.48943755828E+02  0.14200000000E+01 0.  1.
          4   -1    0    0  501    0  0.00000000000E+00 -0.00000000000E+00 -0.41497049865E+02  0.41521338460E+02  0.14200000000E+01 0. -1.
         23    2    1    2    0    0  0.00000000000E+00  0.00000000000E+00  0.74261024718E+01  0.90465094287E+02  0.90159781979E+02 0.  0.
        -13    1    3    3    0    0  0.24572469614E+02  0.37747690752E+02  0.55877945445E+01  0.45386441151E+02  0.10570000000E+00 0. -1.
         13    1    3    3    0    0 -0.24572469614E+02 -0.37747690752E+02  0.18383079272E+01  0.45078653136E+02  0.10570000000E+00 0.  1.
<mgrwt>
<rscale>  0 0.90159782E+02</rscale>
<asrwt>0</asrwt>
<pdfrwt beam="2">  1        4 0.63876148E-02 0.90159782E+02</pdfrwt>
<pdfrwt beam="1">  1       -4 0.75300920E-02 0.90159782E+02</pdfrwt>
<totfact> 0.27897288E+04</totfact>
</mgrwt>
</event>
<event>
 5    1  0.1090823E+000  0.9021352E+02  0.7818608E-02  0.1302335E+00
          4   -1    0    0  501    0  0.00000000000E+00  0.00000000000E+00  0.35237561277E+02  0.35266161185E+02  0.14200000000E+01 0. -1.
         -4   -1    0    0    0  501 -0.00000000000E+00 -0.00000000000E+00 -0.57679326712E+02  0.57696803464E+02  0.14200000000E+01 0.  1.
         23    2    1    2    0    0  0.00000000000E+00  0.00000000000E+00 -0.22441765435E+02  0.92962964649E+02  0.90213524266E+02 0.  0.
        -13    1    3    3    0    0 -0.40487863283E+02 -0.62439632469E+01 -0.30673567153E+02  0.51177466180E+02  0.10570000000E+00 0.  1.
         13    1    3    3    0    0  0.40487863283E+02  0.62439632469E+01  0.82318017183E+01  0.41785498469E+02  0.10570000000E+00 0. -1.
<mgrwt>
<rscale>  0 0.90213524E+02</rscale>
<asrwt>0</asrwt>
<pdfrwt beam="1">  1        4 0.54247076E-02 0.90213524E+02</pdfrwt>
<pdfrwt beam="2">  1       -4 0.88772869E-02 0.90213524E+02</pdfrwt>
<totfact> 0.27686710E+04</totfact>
</mgrwt>
</event>
<event>
 5    1  0.1090823E+000  0.9228530E+02  0.7818608E-02  0.1297410E+00
          4   -1    0    0  501    0  0.00000000000E+00  0.00000000000E+00  0.85360586351E+02  0.85372396605E+02  0.14200000000E+01 0. -1.
         -4   -1    0    0    0  501 -0.00000000000E+00 -0.00000000000E+00 -0.24909184701E+02  0.24949626900E+02  0.14200000000E+01 0.  1.
         23    2    1    2    0    0  0.00000000000E+00  0.00000000000E+00  0.60451401650E+02  0.11032202351E+03  0.92285301694E+02 0.  0.
        -13    1    3    3    0    0 -0.50839002226E+01  0.41710940943E+02  0.74342179613E+01  0.42672325985E+02  0.10570000000E+00 0.  1.
         13    1    3    3    0    0  0.50839002226E+01 -0.41710940943E+02  0.53017183689E+02  0.67649697520E+02  0.10570000000E+00 0. -1.
<mgrwt>
<rscale>  0 0.92285302E+02</rscale>
<asrwt>0</asrwt>
<pdfrwt beam="1">  1        4 0.13136417E-01 0.92285302E+02</pdfrwt>
<pdfrwt beam="2">  1       -4 0.38362017E-02 0.92285302E+02</pdfrwt>
<totfact> 0.25000554E+04</totfact>
</mgrwt>
</event>
<event>
 5    1  0.1090823E+000  0.9100922E+02  0.7818608E-02  0.1300426E+00
         -4   -1    0    0    0  501 -0.00000000000E+00  0.00000000000E+00  0.21916871032E+02  0.21962823949E+02  0.14200000000E+01 0.  1.
          4   -1    0    0  501    0  0.00000000000E+00 -0.00000000000E+00 -0.94328102910E+02  0.94338790530E+02  0.14200000000E+01 0. -1.
         23    2    1    2    0    0  0.00000000000E+00  0.00000000000E+00 -0.72411231879E+02  0.11630161448E+03  0.91009224963E+02 0.  0.
        -13    1    3    3    0    0 -0.28343392704E+01 -0.21904335622E+02  0.14635702436E+02  0.26496195131E+02  0.10570000000E+00 0.  1.
         13    1    3    3    0    0  0.28343392704E+01  0.21904335622E+02 -0.87046934315E+02  0.89805419348E+02  0.10570000000E+00 0. -1.
<mgrwt>
<rscale>  0 0.91009225E+02</rscale>
<asrwt>0</asrwt>
<pdfrwt beam="2">  1        4 0.14516373E-01 0.91009225E+02</pdfrwt>
<pdfrwt beam="1">  1       -4 0.33761833E-02 0.91009225E+02</pdfrwt>
<totfact> 0.25611392E+04</totfact>
</mgrwt>
</event>
<event>
 5    1  0.1090823E+000  0.9220408E+02  0.7818608E-02  0.1297600E+00
          4   -1    0    0  501    0  0.00000000000E+00  0.00000000000E+00  0.53359469319E+02  0.53378360466E+02  0.14200000000E+01 0. -1.
         -4   -1    0    0    0  501 -0.00000000000E+00 -0.00000000000E+00 -0.39793086070E+02  0.39818414069E+02  0.14200000000E+01 0.  1.
         23    2    1    2    0    0  0.00000000000E+00  0.00000000000E+00  0.13566383249E+02  0.93196774534E+02  0.92204078159E+02 0.  0.
        -13    1    3    3    0    0 -0.25142592359E+02  0.37412876600E+02 -0.29911614101E+01  0.45175563141E+02  0.10570000000E+00 0.  1.
         13    1    3    3    0    0  0.25142592359E+02 -0.37412876600E+02  0.16557544659E+02  0.48021211393E+02  0.10570000000E+00 0. -1.
<mgrwt>
<rscale>  0 0.92204078E+02</rscale>
<asrwt>0</asrwt>
<pdfrwt beam="1">  1        4 0.82125506E-02 0.92204078E+02</pdfrwt>
<pdfrwt beam="2">  1       -4 0.61254147E-02 0.92204078E+02</pdfrwt>
<totfact> 0.26079747E+04</totfact>
</mgrwt>
</event>
<event>
 5    1  0.1090823E+000  0.9188590E+02  0.7818608E-02  0.1298348E+00
         -4   -1    0    0    0  501 -0.00000000000E+00  0.00000000000E+00  0.68420286741E+02  0.68435020550E+02  0.14200000000E+01 0.  1.
          4   -1    0    0  501    0  0.00000000000E+00 -0.00000000000E+00 -0.30815430566E+02  0.30848130591E+02  0.14200000000E+01 0. -1.
         23    2    1    2    0    0  0.00000000000E+00  0.00000000000E+00  0.37604856175E+02  0.99283151141E+02  0.91885901490E+02 0.  0.
        -13    1    3    3    0    0  0.86530333623E+01 -0.31362449139E+02  0.53852531749E+02  0.62917283402E+02  0.10570000000E+00 0.  1.
         13    1    3    3    0    0 -0.86530333623E+01  0.31362449139E+02 -0.16247675574E+02  0.36365867739E+02  0.10570000000E+00 0. -1.
<mgrwt>
<rscale>  0 0.91885901E+02</rscale>
<asrwt>0</asrwt>
<pdfrwt beam="2">  1        4 0.47444842E-02 0.91885901E+02</pdfrwt>
<pdfrwt beam="1">  1       -4 0.10529847E-01 0.91885901E+02</pdfrwt>
<totfact> 0.25950545E+04</totfact>
</mgrwt>
</event>
<event>
 5    1  0.1090823E+000  0.8904939E+02  0.7818608E-02  0.1305170E+00
          4   -1    0    0  501    0  0.00000000000E+00  0.00000000000E+00  0.10130973704E+03  0.10131968821E+03  0.14200000000E+01 0.  1.
         -4   -1    0    0    0  501 -0.00000000000E+00 -0.00000000000E+00 -0.19531504367E+02  0.19583055503E+02  0.14200000000E+01 0. -1.
         23    2    1    2    0    0  0.00000000000E+00  0.00000000000E+00  0.81778232673E+02  0.12090274371E+03  0.89049391342E+02 0.  0.
        -13    1    3    3    0    0 -0.13921973036E+02 -0.87655051422E+01  0.97062349479E+02  0.98446768726E+02  0.10570000000E+00 0.  1.
         13    1    3    3    0    0  0.13921973036E+02  0.87655051422E+01 -0.15284116806E+02  0.22455974988E+02  0.10570000000E+00 0. -1.
<mgrwt>
<rscale>  0 0.89049391E+02</rscale>
<asrwt>0</asrwt>
<pdfrwt beam="1">  1        4 0.15590844E-01 0.89049391E+02</pdfrwt>
<pdfrwt beam="2">  1       -4 0.30095778E-02 0.89049391E+02</pdfrwt>
<totfact> 0.26876882E+04</totfact>
</mgrwt>
</event>
<event>
 5    1  0.1090823E+000  0.9196819E+02  0.7818608E-02  0.1298154E+00
          4   -1    0    0  501    0  0.00000000000E+00  0.00000000000E+00  0.97660262117E+01  0.98687216987E+01  0.14200000000E+01 0.  1.
         -4   -1    0    0    0  501 -0.00000000000E+00 -0.00000000000E+00 -0.21528220117E+03  0.21528688427E+03  0.14200000000E+01 0. -1.
         23    2    1    2    0    0  0.00000000000E+00  0.00000000000E+00 -0.20551617495E+03  0.22515560597E+03  0.91968194130E+02 0.  0.
        -13    1    3    3    0    0  0.21142906113E+02 -0.29575809959E+02 -0.33826214667E+02  0.49658584201E+02  0.10570000000E+00 0.  1.
         13    1    3    3    0    0 -0.21142906113E+02  0.29575809959E+02 -0.17168996029E+03  0.17549702177E+03  0.10570000000E+00 0. -1.
<mgrwt>
<rscale>  0 0.91968194E+02</rscale>
<asrwt>0</asrwt>
<pdfrwt beam="1">  1        4 0.15107256E-02 0.91968194E+02</pdfrwt>
<pdfrwt beam="2">  1       -4 0.33128595E-01 0.91968194E+02</pdfrwt>
<totfact> 0.19913188E+04</totfact>
</mgrwt>
</event>
<event>
 5    1  0.1090823E+000  0.9010223E+02  0.7818608E-02  0.1302604E+00
          4   -1    0    0  501    0  0.00000000000E+00  0.00000000000E+00  0.77956458561E+02  0.77969390348E+02  0.14200000000E+01 0. -1.
         -4   -1    0    0    0  501 -0.00000000000E+00 -0.00000000000E+00 -0.26000615825E+02  0.26039362959E+02  0.14200000000E+01 0.  1.
         23    2    1    2    0    0  0.00000000000E+00  0.00000000000E+00  0.51955842735E+02  0.10400875331E+03  0.90102226222E+02 0.  0.
        -13    1    3    3    0    0  0.28339446273E+02 -0.29272030604E+01 -0.14306764928E+02  0.31880831671E+02  0.10570000000E+00 0.  1.
         13    1    3    3    0    0 -0.28339446273E+02  0.29272030604E+01  0.66262607663E+02  0.72127921637E+02  0.10570000000E+00 0. -1.
<mgrwt>
<rscale>  0 0.90102226E+02</rscale>
<asrwt>0</asrwt>
<pdfrwt beam="1">  1        4 0.11997277E-01 0.90102226E+02</pdfrwt>
<pdfrwt beam="2">  1       -4 0.40040701E-02 0.90102226E+02</pdfrwt>
<totfact> 0.27065580E+04</totfact>
</mgrwt>
</event>
<event>
 5    1  0.1090823E+000  0.8670570E+02  0.7818608E-02  0.1311031E+00
         -4   -1    0    0    0  501 -0.00000000000E+00  0.00000000000E+00  0.18602252431E+02  0.18656371445E+02  0.14200000000E+01 0.  1.
          4   -1    0    0  501    0  0.00000000000E+00 -0.00000000000E+00 -0.10082863526E+03  0.10083863391E+03  0.14200000000E+01 0. -1.
         23    2    1    2    0    0  0.00000000000E+00  0.00000000000E+00 -0.82226382833E+02  0.11949500536E+03  0.86705699187E+02 0.  0.
        -13    1    3    3    0    0  0.23225804587E+01 -0.43115605497E+02 -0.35756286914E+02  0.56061332875E+02  0.10570000000E+00 0.  1.
         13    1    3    3    0    0 -0.23225804587E+01  0.43115605497E+02 -0.46470095919E+02  0.63433672482E+02  0.10570000000E+00 0. -1.
<mgrwt>
<rscale>  0 0.86705699E+02</rscale>
<asrwt>0</asrwt>
<pdfrwt beam="2">  1        4 0.15517030E-01 0.86705699E+02</pdfrwt>
<pdfrwt beam="1">  1       -4 0.28668172E-02 0.86705699E+02</pdfrwt>
<totfact> 0.28962667E+04</totfact>
</mgrwt>
</event>
<event>
 5    1  0.1090823E+000  0.8944006E+02  0.7818608E-02  0.1304213E+00
         -4   -1    0    0    0  501 -0.00000000000E+00  0.00000000000E+00  0.22735539382E+02  0.22779840891E+02  0.14200000000E+01 0.  1.
          4   -1    0    0  501    0  0.00000000000E+00 -0.00000000000E+00 -0.87827113396E+02  0.87838592016E+02  0.14200000000E+01 0. -1.
         23    2    1    2    0    0  0.00000000000E+00  0.00000000000E+00 -0.65091574013E+02  0.11061843291E+03  0.89440062004E+02 0.  0.
        -13    1    3    3    0    0 -0.50492846782E+01  0.18401549830E+02 -0.82567077885E+02  0.84743411749E+02  0.10570000000E+00 0. -1.
         13    1    3    3    0    0  0.50492846782E+01 -0.18401549830E+02  0.17475503871E+02  0.25875021158E+02  0.10570000000E+00 0.  1.
<mgrwt>
<rscale>  0 0.89440062E+02</rscale>
<asrwt>0</asrwt>
<pdfrwt beam="2">  1        4 0.13516154E-01 0.89440062E+02</pdfrwt>
<pdfrwt beam="1">  1       -4 0.35020661E-02 0.89440062E+02</pdfrwt>
<totfact> 0.27190446E+04</totfact>
</mgrwt>
</event>
<event>
 5    1  0.1090823E+000  0.9370531E+02  0.7818608E-02  0.1294119E+00
         -4   -1    0    0    0  501 -0.00000000000E+00  0.00000000000E+00  0.71774744925E+02  0.71788790274E+02  0.14200000000E+01 0. -1.
          4   -1    0    0  501    0  0.00000000000E+00 -0.00000000000E+00 -0.30550641570E+02  0.30583624709E+02  0.14200000000E+01 0.  1.
         23    2    1    2    0    0  0.00000000000E+00  0.00000000000E+00  0.41224103355E+02  0.10237241498E+03  0.93705307491E+02 0.  0.
        -13    1    3    3    0    0  0.39373376957E+02 -0.13991045169E+02  0.43765379054E+02  0.60509765609E+02  0.10570000000E+00 0. -1.
         13    1    3    3    0    0 -0.39373376957E+02  0.13991045169E+02 -0.25412756993E+01  0.41862649373E+02  0.10570000000E+00 0.  1.
<mgrwt>
<rscale>  0 0.93705307E+02</rscale>
<asrwt>0</asrwt>
<pdfrwt beam="2">  1        4 0.47037163E-02 0.93705307E+02</pdfrwt>
<pdfrwt beam="1">  1       -4 0.11045886E-01 0.93705307E+02</pdfrwt>
<totfact> 0.24425827E+04</totfact>
</mgrwt>
</event>
<event>
 5    1  0.1090823E+000  0.6052856E+02  0.7818608E-02  0.1395627E+00
         -4   -1    0    0    0  501 -0.00000000000E+00  0.00000000000E+00  0.32355164094E+02  0.32386309508E+02  0.14200000000E+01 0.  1.
          4   -1    0    0  501    0  0.00000000000E+00 -0.00000000000E+00 -0.28245908316E+02  0.28281579457E+02  0.14200000000E+01 0. -1.
         23    2    1    2    0    0  0.00000000000E+00  0.00000000000E+00  0.41092557784E+01  0.60667888965E+02  0.60528561592E+02 0.  0.
        -13    1    3    3    0    0  0.12252051066E+02 -0.19611959420E+02 -0.17513985700E+02  0.29008491433E+02  0.10570000000E+00 0. -1.
         13    1    3    3    0    0 -0.12252051066E+02  0.19611959420E+02  0.21623241478E+02  0.31659397533E+02  0.10570000000E+00 0.  1.
<mgrwt>
<rscale>  0 0.60528562E+02</rscale>
<asrwt>0</asrwt>
<pdfrwt beam="2">  1        4 0.43506641E-02 0.60528562E+02</pdfrwt>
<pdfrwt beam="1">  1       -4 0.49828573E-02 0.60528562E+02</pdfrwt>
<totfact> 0.86215618E+04</totfact>
</mgrwt>
</event>
<event>
 5    1  0.1090823E+000  0.9060660E+02  0.7818608E-02  0.1301389E+00
         -4   -1    0    0    0  501 -0.00000000000E+00  0.00000000000E+00  0.30511603658E+02  0.30544628952E+02  0.14200000000E+01 0.  1.
          4   -1    0    0  501    0  0.00000000000E+00 -0.00000000000E+00 -0.67188933090E+02  0.67203936862E+02  0.14200000000E+01 0. -1.
         23    2    1    2    0    0  0.00000000000E+00  0.00000000000E+00 -0.36677329432E+02  0.97748565814E+02  0.90606598128E+02 0.  0.
        -13    1    3    3    0    0  0.25727205976E-01  0.44684613456E+02 -0.10289857935E+02  0.45854200358E+02  0.10570000000E+00 0.  1.
         13    1    3    3    0    0 -0.25727205976E-01 -0.44684613456E+02 -0.26387471497E+02  0.51894365456E+02  0.10570000000E+00 0. -1.
<mgrwt>
<rscale>  0 0.90606598E+02</rscale>
<asrwt>0</asrwt>
<pdfrwt beam="2">  1        4 0.10340453E-01 0.90606598E+02</pdfrwt>
<pdfrwt beam="1">  1       -4 0.46977874E-02 0.90606598E+02</pdfrwt>
<totfact> 0.27053985E+04</totfact>
</mgrwt>
</event>
<event>
 5    1  0.1090823E+000  0.9187769E+02  0.7818608E-02  0.1298367E+00
         -4   -1    0    0    0  501 -0.00000000000E+00  0.00000000000E+00  0.43818915418E+02  0.43841917709E+02  0.14200000000E+01 0.  1.
          4   -1    0    0  501    0  0.00000000000E+00 -0.00000000000E+00 -0.48115214538E+02  0.48136163848E+02  0.14200000000E+01 0. -1.
         23    2    1    2    0    0  0.00000000000E+00  0.00000000000E+00 -0.42962991198E+01  0.91978081558E+02  0.91877686632E+02 0.  0.
        -13    1    3    3    0    0  0.33592286973E+02 -0.20425088761E+02  0.21642079892E+02  0.44877798403E+02  0.10570000000E+00 0.  1.
         13    1    3    3    0    0 -0.33592286973E+02  0.20425088761E+02 -0.25938379012E+02  0.47100283154E+02  0.10570000000E+00 0. -1.
<mgrwt>
<rscale>  0 0.91877687E+02</rscale>
<asrwt>0</asrwt>
<pdfrwt beam="2">  1        4 0.74057216E-02 0.91877687E+02</pdfrwt>
<pdfrwt beam="1">  1       -4 0.67447525E-02 0.91877687E+02</pdfrwt>
<totfact> 0.26408612E+04</totfact>
</mgrwt>
</event>
<event>
 5    1  0.1090823E+000  0.9445417E+02  0.7818608E-02  0.1292410E+00
          4   -1    0    0  501    0  0.00000000000E+00  0.00000000000E+00  0.16599954843E+03  0.16600562183E+03  0.14200000000E+01 0. -1.
         -4   -1    0    0    0  501 -0.00000000000E+00 -0.00000000000E+00 -0.13392311517E+02  0.13467383108E+02  0.14200000000E+01 0.  1.
         23    2    1    2    0    0  0.00000000000E+00  0.00000000000E+00  0.15260723692E+03  0.17947300494E+03  0.94454172715E+02 0.  0.
        -13    1    3    3    0    0 -0.71370553835E+01  0.42263286755E+02  0.11398439388E+03  0.12177674732E+03  0.10570000000E+00 0. -1.
         13    1    3    3    0    0  0.71370553835E+01 -0.42263286755E+02  0.38622843035E+02  0.57696257621E+02  0.10570000000E+00 0.  1.
<mgrwt>
<rscale>  0 0.94454173E+02</rscale>
<asrwt>0</asrwt>
<pdfrwt beam="1">  1        4 0.25544633E-01 0.94454173E+02</pdfrwt>
<pdfrwt beam="2">  1       -4 0.20665976E-02 0.94454173E+02</pdfrwt>
<totfact> 0.20254096E+04</totfact>
</mgrwt>
</event>
<event>
 5    1  0.1090823E+000  0.9330198E+02  0.7818608E-02  0.1295047E+00
          4   -1    0    0  501    0  0.00000000000E+00  0.00000000000E+00  0.93604194859E+01  0.94675156695E+01  0.14200000000E+01 0. -1.
         -4   -1    0    0    0  501 -0.00000000000E+00 -0.00000000000E+00 -0.23107007021E+03  0.23107443334E+03  0.14200000000E+01 0.  1.
         23    2    1    2    0    0  0.00000000000E+00  0.00000000000E+00 -0.22170965072E+03  0.24054194901E+03  0.93301982897E+02 0.  0.
        -13    1    3    3    0    0  0.25791876479E+02  0.33964515438E+02 -0.15960034594E+03  0.16520015374E+03  0.10570000000E+00 0.  1.
         13    1    3    3    0    0 -0.25791876479E+02 -0.33964515438E+02 -0.62109304784E+02  0.75341795270E+02  0.10570000000E+00 0. -1.
<mgrwt>
<rscale>  0 0.93301983E+02</rscale>
<asrwt>0</asrwt>
<pdfrwt beam="1">  1        4 0.14486385E-02 0.93301983E+02</pdfrwt>
<pdfrwt beam="2">  1       -4 0.35557811E-01 0.93301983E+02</pdfrwt>
<totfact> 0.18619192E+04</totfact>
</mgrwt>
</event>
<event>
 5    1  0.1090823E+000  0.8906553E+02  0.7818608E-02  0.1305131E+00
          4   -1    0    0  501    0  0.00000000000E+00  0.00000000000E+00  0.48608623878E+02  0.48629360630E+02  0.14200000000E+01 0. -1.
         -4   -1    0    0    0  501 -0.00000000000E+00 -0.00000000000E+00 -0.40756866575E+02  0.40781596009E+02  0.14200000000E+01 0.  1.
         23    2    1    2    0    0  0.00000000000E+00  0.00000000000E+00  0.78517573025E+01  0.89410956639E+02  0.89065532471E+02 0.  0.
        -13    1    3    3    0    0 -0.21296325236E+01  0.32706263990E+02 -0.26339363666E+02  0.42047690658E+02  0.10570000000E+00 0.  1.
         13    1    3    3    0    0  0.21296325236E+01 -0.32706263990E+02  0.34191120968E+02  0.47363265981E+02  0.10570000000E+00 0. -1.
<mgrwt>
<rscale>  0 0.89065532E+02</rscale>
<asrwt>0</asrwt>
<pdfrwt beam="1">  1        4 0.74817472E-02 0.89065532E+02</pdfrwt>
<pdfrwt beam="2">  1       -4 0.62737846E-02 0.89065532E+02</pdfrwt>
<totfact> 0.28906751E+04</totfact>
</mgrwt>
</event>
<event>
 5    1  0.1090823E+000  0.9337340E+02  0.7818608E-02  0.1294882E+00
         -4   -1    0    0    0  501 -0.00000000000E+00  0.00000000000E+00  0.32143912277E+03  0.32144225927E+03  0.14200000000E+01 0.  1.
          4   -1    0    0  501    0  0.00000000000E+00 -0.00000000000E+00 -0.67033587665E+01  0.68521105327E+01  0.14200000000E+01 0. -1.
         23    2    1    2    0    0  0.00000000000E+00  0.00000000000E+00  0.31473576400E+03  0.32829436980E+03  0.93373401479E+02 0.  0.
        -13    1    3    3    0    0  0.37291266507E+02  0.22549748446E+02  0.21625390381E+03  0.22060120535E+03  0.10570000000E+00 0.  1.
         13    1    3    3    0    0 -0.37291266507E+02 -0.22549748446E+02  0.98481860186E+02  0.10769316446E+03  0.10570000000E+00 0. -1.
<mgrwt>
<rscale>  0 0.93373401E+02</rscale>
<asrwt>0</asrwt>
<pdfrwt beam="2">  1        4 0.10429697E-02 0.93373401E+02</pdfrwt>
<pdfrwt beam="1">  1       -4 0.49463854E-01 0.93373401E+02</pdfrwt>
<totfact> 0.15947056E+04</totfact>
</mgrwt>
</event>
<event>
 5    1  0.1090823E+000  0.9201214E+02  0.7818608E-02  0.1298051E+00
         -4   -1    0    0    0  501 -0.00000000000E+00  0.00000000000E+00  0.97249070617E+02  0.97259437258E+02  0.14200000000E+01 0.  1.
          4   -1    0    0  501    0  0.00000000000E+00 -0.00000000000E+00 -0.21729605227E+02  0.21775953328E+02  0.14200000000E+01 0. -1.
         23    2    1    2    0    0  0.00000000000E+00  0.00000000000E+00  0.75519465389E+02  0.11903539059E+03  0.92012143542E+02 0.  0.
        -13    1    3    3    0    0  0.22581940403E+02 -0.20107489322E+02  0.82617327881E+02  0.87976640070E+02  0.10570000000E+00 0.  1.
         13    1    3    3    0    0 -0.22581940403E+02  0.20107489322E+02 -0.70978624921E+01  0.31058750516E+02  0.10570000000E+00 0. -1.
<mgrwt>
<rscale>  0 0.92012144E+02</rscale>
<asrwt>0</asrwt>
<pdfrwt beam="2">  1        4 0.33473789E-02 0.92012144E+02</pdfrwt>
<pdfrwt beam="1">  1       -4 0.14965758E-01 0.92012144E+02</pdfrwt>
<totfact> 0.24709461E+04</totfact>
</mgrwt>
</event>
<event>
 5    1  0.1090823E+000  0.9320509E+02  0.7818608E-02  0.1295271E+00
          4   -1    0    0  501    0  0.00000000000E+00  0.00000000000E+00  0.63269646964E+01  0.64843567352E+01  0.14200000000E+01 0. -1.
         -4   -1    0    0    0  501 -0.00000000000E+00 -0.00000000000E+00 -0.33888456909E+03  0.33888754413E+03  0.14200000000E+01 0.  1.
         23    2    1    2    0    0  0.00000000000E+00  0.00000000000E+00 -0.33255760439E+03  0.34537190087E+03  0.93205094647E+02 0.  0.
        -13    1    3    3    0    0  0.26579812871E+02 -0.35478769340E+02 -0.11302299008E+03  0.12140608299E+03  0.10570000000E+00 0.  1.
         13    1    3    3    0    0 -0.26579812871E+02  0.35478769340E+02 -0.21953461431E+03  0.22396581788E+03  0.10570000000E+00 0. -1.
<mgrwt>
<rscale>  0 0.93205095E+02</rscale>
<asrwt>0</asrwt>
<pdfrwt beam="1">  1        4 0.98571538E-03 0.93205095E+02</pdfrwt>
<pdfrwt beam="2">  1       -4 0.52148410E-01 0.93205095E+02</pdfrwt>
<totfact> 0.15581249E+04</totfact>
</mgrwt>
</event>
<event>
 5    1  0.1090823E+000  0.9328702E+02  0.7818608E-02  0.1295081E+00
         -4   -1    0    0    0  501 -0.00000000000E+00  0.00000000000E+00  0.20802830858E+02  0.20851239093E+02  0.14200000000E+01 0.  1.
          4   -1    0    0  501    0  0.00000000000E+00 -0.00000000000E+00 -0.10440796494E+03  0.10441762084E+03  0.14200000000E+01 0. -1.
         23    2    1    2    0    0  0.00000000000E+00  0.00000000000E+00 -0.83605134080E+02  0.12526885994E+03  0.93287023885E+02 0.  0.
        -13    1    3    3    0    0 -0.20053963248E+02 -0.93412566349E+01  0.13338423594E+02  0.25833026031E+02  0.10570000000E+00 0.  1.
         13    1    3    3    0    0  0.20053963248E+02  0.93412566349E+01 -0.96943557674E+02  0.99435833906E+02  0.10570000000E+00 0. -1.
<mgrwt>
<rscale>  0 0.93287024E+02</rscale>
<asrwt>0</asrwt>
<pdfrwt beam="2">  1        4 0.16067230E-01 0.93287024E+02</pdfrwt>
<pdfrwt beam="1">  1       -4 0.32049020E-02 0.93287024E+02</pdfrwt>
<totfact> 0.23476240E+04</totfact>
</mgrwt>
</event>
<event>
 5    1  0.1090823E+000  0.9049617E+02  0.7818608E-02  0.1301655E+00
          4   -1    0    0  501    0  0.00000000000E+00  0.00000000000E+00  0.10541859797E+02  0.10637067640E+02  0.14200000000E+01 0. -1.
         -4   -1    0    0    0  501 -0.00000000000E+00 -0.00000000000E+00 -0.19324427503E+03  0.19324949219E+03  0.14200000000E+01 0.  1.
         23    2    1    2    0    0  0.00000000000E+00  0.00000000000E+00 -0.18270241523E+03  0.20388655983E+03  0.90496169794E+02 0.  0.
        -13    1    3    3    0    0 -0.89214178666E+00 -0.36596792489E+02 -0.31434631323E+02  0.48252133179E+02  0.10570000000E+00 0. -1.
         13    1    3    3    0    0  0.89214178666E+00  0.36596792489E+02 -0.15126778391E+03  0.15563442665E+03  0.10570000000E+00 0.  1.
<mgrwt>
<rscale>  0 0.90496170E+02</rscale>
<asrwt>0</asrwt>
<pdfrwt beam="1">  1        4 0.16295497E-02 0.90496170E+02</pdfrwt>
<pdfrwt beam="2">  1       -4 0.29737611E-01 0.90496170E+02</pdfrwt>
<totfact> 0.21654115E+04</totfact>
</mgrwt>
</event>
<event>
 5    1  0.1090823E+000  0.9665516E+02  0.7818608E-02  0.1287491E+00
         -4   -1    0    0    0  501 -0.00000000000E+00  0.00000000000E+00  0.28699766644E+02  0.28734874376E+02  0.14200000000E+01 0.  1.
          4   -1    0    0  501    0  0.00000000000E+00 -0.00000000000E+00 -0.81287828322E+02  0.81300230217E+02  0.14200000000E+01 0. -1.
         23    2    1    2    0    0  0.00000000000E+00  0.00000000000E+00 -0.52588061679E+02  0.11003510459E+03  0.96655160295E+02 0.  0.
        -13    1    3    3    0    0  0.25873247214E+01  0.31521592738E+02  0.15305236582E+02  0.35136398468E+02  0.10570000000E+00 0.  1.
         13    1    3    3    0    0 -0.25873247214E+01 -0.31521592738E+02 -0.67893298261E+02  0.74898706125E+02  0.10570000000E+00 0. -1.
<mgrwt>
<rscale>  0 0.96655160E+02</rscale>
<asrwt>0</asrwt>
<pdfrwt beam="2">  1        4 0.12509474E-01 0.96655160E+02</pdfrwt>
<pdfrwt beam="1">  1       -4 0.44190033E-02 0.96655160E+02</pdfrwt>
<totfact> 0.22055793E+04</totfact>
</mgrwt>
</event>
<event>
 5    1  0.1090823E+000  0.9101797E+02  0.7818608E-02  0.1300405E+00
         -4   -1    0    0    0  501 -0.00000000000E+00  0.00000000000E+00  0.17659531908E+02  0.17716530902E+02  0.14200000000E+01 0. -1.
          4   -1    0    0  501    0  0.00000000000E+00 -0.00000000000E+00 -0.11702733560E+03  0.11703595036E+03  0.14200000000E+01 0.  1.
         23    2    1    2    0    0  0.00000000000E+00  0.00000000000E+00 -0.99367803689E+02  0.13475248126E+03  0.91017969637E+02 0.  0.
        -13    1    3    3    0    0 -0.11018919554E+02 -0.23704764664E+02 -0.10483589195E+03  0.10804586003E+03  0.10570000000E+00 0.  1.
         13    1    3    3    0    0  0.11018919554E+02  0.23704764664E+02  0.54680882638E+01  0.26706621232E+02  0.10570000000E+00 0. -1.
<mgrwt>
<rscale>  0 0.91017970E+02</rscale>
<asrwt>0</asrwt>
<pdfrwt beam="2">  1        4 0.18009252E-01 0.91017970E+02</pdfrwt>
<pdfrwt beam="1">  1       -4 0.27218983E-02 0.91017970E+02</pdfrwt>
<totfact> 0.24577480E+04</totfact>
</mgrwt>
</event>
<event>
 5    1  0.1090823E+000  0.8924704E+02  0.7818608E-02  0.1304685E+00
         -4   -1    0    0    0  501 -0.00000000000E+00  0.00000000000E+00  0.18643692674E+02  0.18697691743E+02  0.14200000000E+01 0. -1.
          4   -1    0    0  501    0  0.00000000000E+00 -0.00000000000E+00 -0.10659281815E+03  0.10660227615E+03  0.14200000000E+01 0.  1.
         23    2    1    2    0    0  0.00000000000E+00  0.00000000000E+00 -0.87949125477E+02  0.12529996790E+03  0.89247035149E+02 0.  0.
        -13    1    3    3    0    0  0.23657716645E+02  0.37702298032E+02 -0.39513497274E+02  0.59518723718E+02  0.10570000000E+00 0. -1.
         13    1    3    3    0    0 -0.23657716645E+02 -0.37702298032E+02 -0.48435628203E+02  0.65781244178E+02  0.10570000000E+00 0.  1.
<mgrwt>
<rscale>  0 0.89247035E+02</rscale>
<asrwt>0</asrwt>
<pdfrwt beam="2">  1        4 0.16403776E-01 0.89247035E+02</pdfrwt>
<pdfrwt beam="1">  1       -4 0.28731418E-02 0.89247035E+02</pdfrwt>
<totfact> 0.26455658E+04</totfact>
</mgrwt>
</event>
<event>
 5    1  0.1090823E+000  0.9018958E+02  0.7818608E-02  0.1302393E+00
         -4   -1    0    0    0  501 -0.00000000000E+00  0.00000000000E+00  0.62968312372E+02  0.62984321565E+02  0.14200000000E+01 0.  1.
          4   -1    0    0  501    0  0.00000000000E+00 -0.00000000000E+00 -0.32258925176E+02  0.32290163417E+02  0.14200000000E+01 0. -1.
         23    2    1    2    0    0  0.00000000000E+00  0.00000000000E+00  0.30709387196E+02  0.95274484982E+02  0.90189583803E+02 0.  0.
        -13    1    3    3    0    0  0.39848767186E+02  0.85922331859E+01 -0.50139582300E+01  0.41071908490E+02  0.10570000000E+00 0. -1.
         13    1    3    3    0    0 -0.39848767186E+02 -0.85922331859E+01  0.35723345426E+02  0.54202576492E+02  0.10570000000E+00 0.  1.
<mgrwt>
<rscale>  0 0.90189584E+02</rscale>
<asrwt>0</asrwt>
<pdfrwt beam="2">  1        4 0.49665460E-02 0.90189584E+02</pdfrwt>
<pdfrwt beam="1">  1       -4 0.96910670E-02 0.90189584E+02</pdfrwt>
<totfact> 0.27554231E+04</totfact>
</mgrwt>
</event>
<event>
 5    1  0.1090823E+000  0.9197861E+02  0.7818608E-02  0.1298130E+00
         -4   -1    0    0    0  501 -0.00000000000E+00  0.00000000000E+00  0.26363853701E+02  0.26402067760E+02  0.14200000000E+01 0.  1.
          4   -1    0    0  501    0  0.00000000000E+00 -0.00000000000E+00 -0.80121479907E+02  0.80134062311E+02  0.14200000000E+01 0. -1.
         23    2    1    2    0    0  0.00000000000E+00  0.00000000000E+00 -0.53757626205E+02  0.10653613007E+03  0.91978609661E+02 0.  0.
        -13    1    3    3    0    0  0.23782702405E+02 -0.35834429976E+02 -0.80135134957E+01  0.43748724283E+02  0.10570000000E+00 0.  1.
         13    1    3    3    0    0 -0.23782702405E+02  0.35834429976E+02 -0.45744112710E+02  0.62787405787E+02  0.10570000000E+00 0. -1.
<mgrwt>
<rscale>  0 0.91978610E+02</rscale>
<asrwt>0</asrwt>
<pdfrwt beam="2">  1        4 0.12330289E-01 0.91978610E+02</pdfrwt>
<pdfrwt beam="1">  1       -4 0.40598849E-02 0.91978610E+02</pdfrwt>
<totfact> 0.25447653E+04</totfact>
</mgrwt>
</event>
<event>
 5    1  0.1090823E+000  0.9181282E+02  0.7818608E-02  0.1298520E+00
         -4   -1    0    0    0  501 -0.00000000000E+00  0.00000000000E+00  0.75309468707E+02  0.75322854944E+02  0.14200000000E+01 0.  1.
          4   -1    0    0  501    0  0.00000000000E+00 -0.00000000000E+00 -0.27949279923E+02  0.27985329160E+02  0.14200000000E+01 0. -1.
         23    2    1    2    0    0  0.00000000000E+00  0.00000000000E+00  0.47360188783E+02  0.10330818410E+03  0.91812817304E+02 0.  0.
        -13    1    3    3    0    0 -0.41849682447E+02 -0.12617294689E+02  0.78953121648E+01  0.44417779918E+02  0.10570000000E+00 0. -1.
         13    1    3    3    0    0  0.41849682447E+02  0.12617294689E+02  0.39464876619E+02  0.58890404186E+02  0.10570000000E+00 0.  1.
<mgrwt>
<rscale>  0 0.91812817E+02</rscale>
<asrwt>0</asrwt>
<pdfrwt beam="2">  1        4 0.43036920E-02 0.91812817E+02</pdfrwt>
<pdfrwt beam="1">  1       -4 0.11589875E-01 0.91812817E+02</pdfrwt>
<totfact> 0.25764164E+04</totfact>
</mgrwt>
</event>
<event>
 5    1  0.1090823E+000  0.8852676E+02  0.7818608E-02  0.1306459E+00
         -4   -1    0    0    0  501 -0.00000000000E+00  0.00000000000E+00  0.21816104610E+02  0.21862269332E+02  0.14200000000E+01 0.  1.
          4   -1    0    0  501    0  0.00000000000E+00 -0.00000000000E+00 -0.89660647972E+02  0.89671891888E+02  0.14200000000E+01 0. -1.
         23    2    1    2    0    0  0.00000000000E+00  0.00000000000E+00 -0.67844543362E+02  0.11153416122E+03  0.88526758978E+02 0.  0.
        -13    1    3    3    0    0 -0.65374854009E+01  0.19970006948E+02 -0.83004660609E+02  0.85623155444E+02  0.10570000000E+00 0. -1.
         13    1    3    3    0    0  0.65374854009E+01 -0.19970006948E+02  0.15160117247E+02  0.25911005776E+02  0.10570000000E+00 0.  1.
<mgrwt>
<rscale>  0 0.88526759E+02</rscale>
<asrwt>0</asrwt>
<pdfrwt beam="2">  1        4 0.13798362E-01 0.88526759E+02</pdfrwt>
<pdfrwt beam="1">  1       -4 0.33607399E-02 0.88526759E+02</pdfrwt>
<totfact> 0.27893120E+04</totfact>
</mgrwt>
</event>
<event>
 5    1  0.1090823E+000  0.9151720E+02  0.7818608E-02  0.1299219E+00
          4   -1    0    0  501    0  0.00000000000E+00  0.00000000000E+00  0.46822513439E+02  0.46844040867E+02  0.14200000000E+01 0. -1.
         -4   -1    0    0    0  501 -0.00000000000E+00 -0.00000000000E+00 -0.44675775568E+02  0.44698336911E+02  0.14200000000E+01 0.  1.
         23    2    1    2    0    0  0.00000000000E+00  0.00000000000E+00  0.21467378706E+01  0.91542377778E+02  0.91517203004E+02 0.  0.
        -13    1    3    3    0    0 -0.37157257534E+02  0.22490743200E+02 -0.13330006031E+02  0.45433418872E+02  0.10570000000E+00 0.  1.
         13    1    3    3    0    0  0.37157257534E+02 -0.22490743200E+02  0.15476743901E+02  0.46108958906E+02  0.10570000000E+00 0. -1.
<mgrwt>
<rscale>  0 0.91517203E+02</rscale>
<asrwt>0</asrwt>
<pdfrwt beam="1">  1        4 0.72068551E-02 0.91517203E+02</pdfrwt>
<pdfrwt beam="2">  1       -4 0.68765877E-02 0.91517203E+02</pdfrwt>
<totfact> 0.26720382E+04</totfact>
</mgrwt>
</event>
<event>
 5    1  0.1090823E+000  0.9193678E+02  0.7818608E-02  0.1298228E+00
          4   -1    0    0  501    0  0.00000000000E+00  0.00000000000E+00  0.95989868273E+01  0.97034503199E+01  0.14200000000E+01 0. -1.
         -4   -1    0    0    0  501 -0.00000000000E+00 -0.00000000000E+00 -0.21883894213E+03  0.21884354912E+03  0.14200000000E+01 0.  1.
         23    2    1    2    0    0  0.00000000000E+00  0.00000000000E+00 -0.20923995530E+03  0.22854699944E+03  0.91936782950E+02 0.  0.
        -13    1    3    3    0    0 -0.45269323124E+02 -0.79829242090E+01 -0.10410360514E+03  0.11380074899E+03  0.10570000000E+00 0.  1.
         13    1    3    3    0    0  0.45269323124E+02  0.79829242090E+01 -0.10513635017E+03  0.11474625046E+03  0.10570000000E+00 0. -1.
<mgrwt>
<rscale>  0 0.91936783E+02</rscale>
<asrwt>0</asrwt>
<pdfrwt beam="1">  1        4 0.14851574E-02 0.91936783E+02</pdfrwt>
<pdfrwt beam="2">  1       -4 0.33675916E-01 0.91936783E+02</pdfrwt>
<totfact> 0.19805029E+04</totfact>
</mgrwt>
</event>
<event>
 5    1  0.1090823E+000  0.9418318E+02  0.7818608E-02  0.1293026E+00
         -4   -1    0    0    0  501 -0.00000000000E+00  0.00000000000E+00  0.12327397283E+02  0.12408913077E+02  0.14200000000E+01 0.  1.
          4   -1    0    0  501    0  0.00000000000E+00 -0.00000000000E+00 -0.17921627044E+03  0.17922189596E+03  0.14200000000E+01 0. -1.
         23    2    1    2    0    0  0.00000000000E+00  0.00000000000E+00 -0.16688887316E+03  0.19163080904E+03  0.94183177838E+02 0.  0.
        -13    1    3    3    0    0 -0.19835352512E+02  0.38387022666E+02 -0.45346706669E+02  0.62636568366E+02  0.10570000000E+00 0.  1.
         13    1    3    3    0    0  0.19835352512E+02 -0.38387022666E+02 -0.12154216649E+03  0.12899424067E+03  0.10570000000E+00 0. -1.
<mgrwt>
<rscale>  0 0.94183178E+02</rscale>
<asrwt>0</asrwt>
<pdfrwt beam="2">  1        4 0.27578435E-01 0.94183178E+02</pdfrwt>
<pdfrwt beam="1">  1       -4 0.19032260E-02 0.94183178E+02</pdfrwt>
<totfact> 0.19924586E+04</totfact>
</mgrwt>
</event>
<event>
 5    1  0.1090823E+000  0.9253768E+02  0.7818608E-02  0.1296820E+00
          4   -1    0    0  501    0  0.00000000000E+00  0.00000000000E+00  0.96314085845E+01  0.97355241934E+01  0.14200000000E+01 0. -1.
         -4   -1    0    0    0  501 -0.00000000000E+00 -0.00000000000E+00 -0.22097202391E+03  0.22097658643E+03  0.14200000000E+01 0.  1.
         23    2    1    2    0    0  0.00000000000E+00  0.00000000000E+00 -0.21134061533E+03  0.23071211063E+03  0.92537680449E+02 0.  0.
        -13    1    3    3    0    0  0.96149348160E+01  0.34793303537E+02 -0.33507224150E+02  0.49252067828E+02  0.10570000000E+00 0.  1.
         13    1    3    3    0    0 -0.96149348160E+01 -0.34793303537E+02 -0.17783339118E+03  0.18146004280E+03  0.10570000000E+00 0. -1.
<mgrwt>
<rscale>  0 0.92537680E+02</rscale>
<asrwt>0</asrwt>
<pdfrwt beam="1">  1        4 0.14901152E-02 0.92537680E+02</pdfrwt>
<pdfrwt beam="2">  1       -4 0.34004052E-01 0.92537680E+02</pdfrwt>
<totfact> 0.19383779E+04</totfact>
</mgrwt>
</event>
<event>
 5    1  0.1090823E+000  0.9152819E+02  0.7818608E-02  0.1299193E+00
         -4   -1    0    0    0  501 -0.00000000000E+00  0.00000000000E+00  0.15453523663E+02  0.15518627310E+02  0.14200000000E+01 0. -1.
          4   -1    0    0  501    0  0.00000000000E+00 -0.00000000000E+00 -0.13517215405E+03  0.13517961248E+03  0.14200000000E+01 0.  1.
         23    2    1    2    0    0  0.00000000000E+00  0.00000000000E+00 -0.11971863039E+03  0.15069823979E+03  0.91528186994E+02 0.  0.
        -13    1    3    3    0    0  0.78559017311E+01  0.36064213115E+02 -0.15313348087E+02  0.39960636403E+02  0.10570000000E+00 0.  1.
         13    1    3    3    0    0 -0.78559017311E+01 -0.36064213115E+02 -0.10440528230E+03  0.11073760339E+03  0.10570000000E+00 0. -1.
<mgrwt>
<rscale>  0 0.91528187E+02</rscale>
<asrwt>0</asrwt>
<pdfrwt beam="2">  1        4 0.20801297E-01 0.91528187E+02</pdfrwt>
<pdfrwt beam="1">  1       -4 0.23830470E-02 0.91528187E+02</pdfrwt>
<totfact> 0.23394245E+04</totfact>
</mgrwt>
</event>
<event>
 5    1  0.1090823E+000  0.9152557E+02  0.7818608E-02  0.1299199E+00
         -4   -1    0    0    0  501 -0.00000000000E+00  0.00000000000E+00  0.28924431842E+02  0.28959267211E+02  0.14200000000E+01 0.  1.
          4   -1    0    0  501    0  0.00000000000E+00 -0.00000000000E+00 -0.72318205897E+02  0.72332145718E+02  0.14200000000E+01 0. -1.
         23    2    1    2    0    0  0.00000000000E+00  0.00000000000E+00 -0.43393774056E+02  0.10129141293E+03  0.91525574056E+02 0.  0.
        -13    1    3    3    0    0 -0.25878694221E+02  0.39729528435E+01  0.19840971329E+02  0.32850669470E+02  0.10570000000E+00 0.  1.
         13    1    3    3    0    0  0.25878694221E+02 -0.39729528435E+01 -0.63234745384E+02  0.68440743459E+02  0.10570000000E+00 0. -1.
<mgrwt>
<rscale>  0 0.91525574E+02</rscale>
<asrwt>0</asrwt>
<pdfrwt beam="2">  1        4 0.11129630E-01 0.91525574E+02</pdfrwt>
<pdfrwt beam="1">  1       -4 0.44536646E-02 0.91525574E+02</pdfrwt>
<totfact> 0.26106450E+04</totfact>
</mgrwt>
</event>
<event>
 5    1  0.1090823E+000  0.9025757E+02  0.7818608E-02  0.1302229E+00
         -4   -1    0    0    0  501 -0.00000000000E+00  0.00000000000E+00  0.23626427166E+02  0.23669061254E+02  0.14200000000E+01 0.  1.
          4   -1    0    0  501    0  0.00000000000E+00 -0.00000000000E+00 -0.86074194537E+02  0.86085906891E+02  0.14200000000E+01 0. -1.
         23    2    1    2    0    0  0.00000000000E+00  0.00000000000E+00 -0.62447767371E+02  0.10975496814E+03  0.90257572440E+02 0.  0.
        -13    1    3    3    0    0  0.24568925071E+02 -0.40154022601E+01 -0.76996005175E+02  0.80920649527E+02  0.10570000000E+00 0. -1.
         13    1    3    3    0    0 -0.24568925071E+02  0.40154022601E+01  0.14548237804E+02  0.28834318618E+02  0.10570000000E+00 0.  1.
<mgrwt>
<rscale>  0 0.90257572E+02</rscale>
<asrwt>0</asrwt>
<pdfrwt beam="2">  1        4 0.13246364E-01 0.90257572E+02</pdfrwt>
<pdfrwt beam="1">  1       -4 0.36390155E-02 0.90257572E+02</pdfrwt>
<totfact> 0.26584686E+04</totfact>
</mgrwt>
</event>
<event>
 5    1  0.1090823E+000  0.9149308E+02  0.7818608E-02  0.1299276E+00
          4   -1    0    0  501    0  0.00000000000E+00  0.00000000000E+00  0.23139977225E+02  0.23183505904E+02  0.14200000000E+01 0. -1.
         -4   -1    0    0    0  501 -0.00000000000E+00 -0.00000000000E+00 -0.90304452494E+02  0.90315616259E+02  0.14200000000E+01 0.  1.
         23    2    1    2    0    0  0.00000000000E+00  0.00000000000E+00 -0.67164475269E+02  0.11349912216E+03  0.91493081670E+02 0.  0.
        -13    1    3    3    0    0  0.49367752795E-02 -0.27000921475E+02 -0.79392342410E+02  0.83858243428E+02  0.10570000000E+00 0.  1.
         13    1    3    3    0    0 -0.49367752795E-02  0.27000921475E+02  0.12227867141E+02  0.29640878735E+02  0.10570000000E+00 0. -1.
<mgrwt>
<rscale>  0 0.91493082E+02</rscale>
<asrwt>0</asrwt>
<pdfrwt beam="1">  1        4 0.35642037E-02 0.91493082E+02</pdfrwt>
<pdfrwt beam="2">  1       -4 0.13897200E-01 0.91493082E+02</pdfrwt>
<totfact> 0.25407220E+04</totfact>
</mgrwt>
</event>
<event>
 5    1  0.1090823E+000  0.9148488E+02  0.7818608E-02  0.1299295E+00
         -4   -1    0    0    0  501 -0.00000000000E+00  0.00000000000E+00  0.77057168249E+02  0.77070250931E+02  0.14200000000E+01 0.  1.
          4   -1    0    0  501    0  0.00000000000E+00 -0.00000000000E+00 -0.27119524189E+02  0.27156674911E+02  0.14200000000E+01 0. -1.
         23    2    1    2    0    0  0.00000000000E+00  0.00000000000E+00  0.49937644060E+02  0.10422692584E+03  0.91484882773E+02 0.  0.
        -13    1    3    3    0    0 -0.31105517200E+02  0.32483905313E+02  0.15464023656E+02  0.47559483858E+02  0.10570000000E+00 0. -1.
         13    1    3    3    0    0  0.31105517200E+02 -0.32483905313E+02  0.34473620405E+02  0.56667441984E+02  0.10570000000E+00 0.  1.
<mgrwt>
<rscale>  0 0.91484883E+02</rscale>
<asrwt>0</asrwt>
<pdfrwt beam="2">  1        4 0.41760986E-02 0.91484883E+02</pdfrwt>
<pdfrwt beam="1">  1       -4 0.11858813E-01 0.91484883E+02</pdfrwt>
<totfact> 0.25960428E+04</totfact>
</mgrwt>
</event>
<event>
 5    1  0.1090823E+000  0.9095479E+02  0.7818608E-02  0.1300556E+00
         -4   -1    0    0    0  501 -0.00000000000E+00  0.00000000000E+00  0.21796801418E+03  0.21797263958E+03  0.14200000000E+01 0.  1.
          4   -1    0    0  501    0  0.00000000000E+00 -0.00000000000E+00 -0.94306379606E+01  0.95369456507E+01  0.14200000000E+01 0. -1.
         23    2    1    2    0    0  0.00000000000E+00  0.00000000000E+00  0.20853737622E+03  0.22750958523E+03  0.90954791471E+02 0.  0.
        -13    1    3    3    0    0 -0.27252373289E+02  0.27828107711E+02  0.45548942091E+02  0.59931733888E+02  0.10570000000E+00 0. -1.
         13    1    3    3    0    0  0.27252373289E+02 -0.27828107711E+02  0.16298843413E+03  0.16757785134E+03  0.10570000000E+00 0.  1.
<mgrwt>
<rscale>  0 0.90954791E+02</rscale>
<asrwt>0</asrwt>
<pdfrwt beam="2">  1        4 0.14594008E-02 0.90954791E+02</pdfrwt>
<pdfrwt beam="1">  1       -4 0.33542072E-01 0.90954791E+02</pdfrwt>
<totfact> 0.20422085E+04</totfact>
</mgrwt>
</event>
<event>
 5    1  0.1090823E+000  0.9399568E+02  0.7818608E-02  0.1293454E+00
          4   -1    0    0  501    0  0.00000000000E+00  0.00000000000E+00  0.36979185438E+02  0.37006439381E+02  0.14200000000E+01 0. -1.
         -4   -1    0    0    0  501 -0.00000000000E+00 -0.00000000000E+00 -0.59673108280E+02  0.59690001271E+02  0.14200000000E+01 0.  1.
         23    2    1    2    0    0  0.00000000000E+00  0.00000000000E+00 -0.22693922842E+02  0.96696440652E+02  0.93995678097E+02 0.  0.
        -13    1    3    3    0    0 -0.34273478320E+01 -0.12920096192E+02  0.35004389821E+02  0.37469908967E+02  0.10570000000E+00 0. -1.
         13    1    3    3    0    0  0.34273478320E+01  0.12920096192E+02 -0.57698312663E+02  0.59226531685E+02  0.10570000000E+00 0.  1.
<mgrwt>
<rscale>  0 0.93995678E+02</rscale>
<asrwt>0</asrwt>
<pdfrwt beam="1">  1        4 0.56925014E-02 0.93995678E+02</pdfrwt>
<pdfrwt beam="2">  1       -4 0.91838741E-02 0.93995678E+02</pdfrwt>
<totfact> 0.24543726E+04</totfact>
</mgrwt>
</event>
<event>
 5    1  0.1090823E+000  0.9865298E+02  0.7818608E-02  0.1283154E+00
         -4   -1    0    0    0  501 -0.00000000000E+00  0.00000000000E+00  0.68245138859E+02  0.68259910474E+02  0.14200000000E+01 0.  1.
          4   -1    0    0  501    0  0.00000000000E+00 -0.00000000000E+00 -0.35619614497E+02  0.35647907890E+02  0.14200000000E+01 0. -1.
         23    2    1    2    0    0  0.00000000000E+00  0.00000000000E+00  0.32625524362E+02  0.10390781836E+03  0.98652977032E+02 0.  0.
        -13    1    3    3    0    0 -0.37224460955E+02 -0.17449109255E+01 -0.17725593368E+02  0.41266366938E+02  0.10570000000E+00 0. -1.
         13    1    3    3    0    0  0.37224460955E+02  0.17449109255E+01  0.50351117730E+02  0.62641451426E+02  0.10570000000E+00 0.  1.
<mgrwt>
<rscale>  0 0.98652977E+02</rscale>
<asrwt>0</asrwt>
<pdfrwt beam="2">  1        4 0.54832534E-02 0.98652977E+02</pdfrwt>
<pdfrwt beam="1">  1       -4 0.10502565E-01 0.98652977E+02</pdfrwt>
<totfact> 0.21147530E+04</totfact>
</mgrwt>
</event>
<event>
 5    1  0.1090823E+000  0.9031025E+02  0.7818608E-02  0.1302102E+00
          4   -1    0    0  501    0  0.00000000000E+00  0.00000000000E+00  0.42913971097E+02  0.42937458184E+02  0.14200000000E+01 0. -1.
         -4   -1    0    0    0  501 -0.00000000000E+00 -0.00000000000E+00 -0.47466212925E+02  0.47487448546E+02  0.14200000000E+01 0.  1.
         23    2    1    2    0    0  0.00000000000E+00  0.00000000000E+00 -0.45522418281E+01  0.90424906730E+02  0.90310247766E+02 0.  0.
        -13    1    3    3    0    0  0.38426998704E+02  0.19718894537E+02 -0.15464974424E+02  0.45876417009E+02  0.10570000000E+00 0.  1.
         13    1    3    3    0    0 -0.38426998704E+02 -0.19718894537E+02  0.10912732596E+02  0.44548489721E+02  0.10570000000E+00 0. -1.
<mgrwt>
<rscale>  0 0.90310248E+02</rscale>
<asrwt>0</asrwt>
<pdfrwt beam="1">  1        4 0.66055896E-02 0.90310248E+02</pdfrwt>
<pdfrwt beam="2">  1       -4 0.73059345E-02 0.90310248E+02</pdfrwt>
<totfact> 0.27774279E+04</totfact>
</mgrwt>
</event>
<event>
 5    1  0.1090823E+000  0.9102483E+02  0.7818608E-02  0.1300389E+00
          4   -1    0    0  501    0  0.00000000000E+00  0.00000000000E+00  0.10714978048E+03  0.10715918932E+03  0.14200000000E+01 0. -1.
         -4   -1    0    0    0  501 -0.00000000000E+00 -0.00000000000E+00 -0.19295282338E+02  0.19347462896E+02  0.14200000000E+01 0.  1.
         23    2    1    2    0    0  0.00000000000E+00  0.00000000000E+00  0.87854498141E+02  0.12650665222E+03  0.91024832943E+02 0.  0.
        -13    1    3    3    0    0  0.23070508423E+02  0.36399735829E+02  0.64266861792E+02  0.77378484248E+02  0.10570000000E+00 0. -1.
         13    1    3    3    0    0 -0.23070508423E+02 -0.36399735829E+02  0.23587636349E+02  0.49128167973E+02  0.10570000000E+00 0.  1.
<mgrwt>
<rscale>  0 0.91024833E+02</rscale>
<asrwt>0</asrwt>
<pdfrwt beam="1">  1        4 0.16489319E-01 0.91024833E+02</pdfrwt>
<pdfrwt beam="2">  1       -4 0.29732427E-02 0.91024833E+02</pdfrwt>
<totfact> 0.25021662E+04</totfact>
</mgrwt>
</event>
<event>
 5    1  0.1090823E+000  0.9176906E+02  0.7818608E-02  0.1298623E+00
          4   -1    0    0  501    0  0.00000000000E+00  0.00000000000E+00  0.31179513913E+02  0.31211832497E+02  0.14200000000E+01 0.  1.
         -4   -1    0    0    0  501 -0.00000000000E+00 -0.00000000000E+00 -0.67450016245E+02  0.67464961954E+02  0.14200000000E+01 0. -1.
         23    2    1    2    0    0  0.00000000000E+00  0.00000000000E+00 -0.36270502333E+02  0.98676794451E+02  0.91769060275E+02 0.  0.
        -13    1    3    3    0    0  0.36829222216E+02 -0.20995022837E+02  0.74172759319E+00  0.42399810439E+02  0.10570000000E+00 0.  1.
         13    1    3    3    0    0 -0.36829222216E+02  0.20995022837E+02 -0.37012229926E+02  0.56276984012E+02  0.10570000000E+00 0. -1.
<mgrwt>
<rscale>  0 0.91769060E+02</rscale>
<asrwt>0</asrwt>
<pdfrwt beam="1">  1        4 0.48004840E-02 0.91769060E+02</pdfrwt>
<pdfrwt beam="2">  1       -4 0.10380561E-01 0.91769060E+02</pdfrwt>
<totfact> 0.26077497E+04</totfact>
</mgrwt>
</event>
<event>
 5    1  0.1090823E+000  0.9587059E+02  0.7818608E-02  0.1289227E+00
         -4   -1    0    0    0  501 -0.00000000000E+00  0.00000000000E+00  0.24482523109E+02  0.24523668930E+02  0.14200000000E+01 0.  1.
          4   -1    0    0  501    0  0.00000000000E+00 -0.00000000000E+00 -0.93729064429E+02  0.93739820348E+02  0.14200000000E+01 0. -1.
         23    2    1    2    0    0  0.00000000000E+00  0.00000000000E+00 -0.69246541320E+02  0.11826348928E+03  0.95870586790E+02 0.  0.
        -13    1    3    3    0    0 -0.28933651505E+02 -0.33695665514E+02 -0.56869616129E+02  0.72157594714E+02  0.10570000000E+00 0.  1.
         13    1    3    3    0    0  0.28933651505E+02  0.33695665514E+02 -0.12376925191E+02  0.46105894564E+02  0.10570000000E+00 0. -1.
<mgrwt>
<rscale>  0 0.95870587E+02</rscale>
<asrwt>0</asrwt>
<pdfrwt beam="2">  1        4 0.14423848E-01 0.95870587E+02</pdfrwt>
<pdfrwt beam="1">  1       -4 0.37705345E-02 0.95870587E+02</pdfrwt>
<totfact> 0.22137784E+04</totfact>
</mgrwt>
</event>
<event>
 5    1  0.1090823E+000  0.9163964E+02  0.7818608E-02  0.1298929E+00
          4   -1    0    0  501    0  0.00000000000E+00  0.00000000000E+00  0.82182602110E+02  0.82194868998E+02  0.14200000000E+01 0. -1.
         -4   -1    0    0    0  501 -0.00000000000E+00 -0.00000000000E+00 -0.25512315551E+02  0.25551803161E+02  0.14200000000E+01 0.  1.
         23    2    1    2    0    0  0.00000000000E+00  0.00000000000E+00  0.56670286559E+02  0.10774667216E+03  0.91639641983E+02 0.  0.
        -13    1    3    3    0    0 -0.44272841400E+02 -0.18364443061E+01  0.42046185600E+02  0.61084776412E+02  0.10570000000E+00 0. -1.
         13    1    3    3    0    0  0.44272841400E+02  0.18364443061E+01  0.14624100958E+02  0.46661895747E+02  0.10570000000E+00 0.  1.
<mgrwt>
<rscale>  0 0.91639642E+02</rscale>
<asrwt>0</asrwt>
<pdfrwt beam="1">  1        4 0.12647458E-01 0.91639642E+02</pdfrwt>
<pdfrwt beam="2">  1       -4 0.39289527E-02 0.91639642E+02</pdfrwt>
<totfact> 0.25632486E+04</totfact>
</mgrwt>
</event>
<event>
 5    1  0.1090823E+000  0.9517101E+02  0.7818608E-02  0.1290791E+00
          4   -1    0    0  501    0  0.00000000000E+00  0.00000000000E+00  0.15764855629E+02  0.15828678814E+02  0.14200000000E+01 0. -1.
         -4   -1    0    0    0  501 -0.00000000000E+00 -0.00000000000E+00 -0.14327720076E+03  0.14328423729E+03  0.14200000000E+01 0.  1.
         23    2    1    2    0    0  0.00000000000E+00  0.00000000000E+00 -0.12751234513E+03  0.15911291611E+03  0.95171014033E+02 0.  0.
        -13    1    3    3    0    0 -0.37822281672E+01  0.47355893466E+02 -0.68329691687E+02  0.83221654841E+02  0.10570000000E+00 0. -1.
         13    1    3    3    0    0  0.37822281672E+01 -0.47355893466E+02 -0.59182653442E+02  0.75891261267E+02  0.10570000000E+00 0.  1.
<mgrwt>
<rscale>  0 0.95171014E+02</rscale>
<asrwt>0</asrwt>
<pdfrwt beam="1">  1        4 0.24308132E-02 0.95171014E+02</pdfrwt>
<pdfrwt beam="2">  1       -4 0.22048096E-01 0.95171014E+02</pdfrwt>
<totfact> 0.20684823E+04</totfact>
</mgrwt>
</event>
<event>
 5    1  0.1090823E+000  0.8910654E+02  0.7818608E-02  0.1305030E+00
          4   -1    0    0  501    0  0.00000000000E+00  0.00000000000E+00  0.52481018875E+02  0.52500226116E+02  0.14200000000E+01 0. -1.
         -4   -1    0    0    0  501 -0.00000000000E+00 -0.00000000000E+00 -0.37783612361E+02  0.37810286472E+02  0.14200000000E+01 0.  1.
         23    2    1    2    0    0  0.00000000000E+00  0.00000000000E+00  0.14697406514E+02  0.90310512587E+02  0.89106536941E+02 0.  0.
        -13    1    3    3    0    0 -0.38543527926E+02  0.21001260626E+02  0.15089044085E+02  0.46414942818E+02  0.10570000000E+00 0. -1.
         13    1    3    3    0    0  0.38543527926E+02 -0.21001260626E+02 -0.39163757043E+00  0.43895569769E+02  0.10570000000E+00 0.  1.
<mgrwt>
<rscale>  0 0.89106537E+02</rscale>
<asrwt>0</asrwt>
<pdfrwt beam="1">  1        4 0.80775322E-02 0.89106537E+02</pdfrwt>
<pdfrwt beam="2">  1       -4 0.58163928E-02 0.89106537E+02</pdfrwt>
<totfact> 0.28808314E+04</totfact>
</mgrwt>
</event>
<event>
 5    1  0.1090823E+000  0.9229067E+02  0.7818608E-02  0.1297397E+00
          4   -1    0    0  501    0  0.00000000000E+00  0.00000000000E+00  0.23265056004E+02  0.23308351097E+02  0.14200000000E+01 0. -1.
         -4   -1    0    0    0  501 -0.00000000000E+00 -0.00000000000E+00 -0.91393580854E+02  0.91404611597E+02  0.14200000000E+01 0.  1.
         23    2    1    2    0    0  0.00000000000E+00  0.00000000000E+00 -0.68128524849E+02  0.11471296269E+03  0.92290670775E+02 0.  0.
        -13    1    3    3    0    0  0.29186661732E+02  0.17919488994E+02 -0.72503705599E+02  0.80185832957E+02  0.10570000000E+00 0.  1.
         13    1    3    3    0    0 -0.29186661732E+02 -0.17919488994E+02  0.43751807500E+01  0.34527129738E+02  0.10570000000E+00 0. -1.
<mgrwt>
<rscale>  0 0.92290671E+02</rscale>
<asrwt>0</asrwt>
<pdfrwt beam="1">  1        4 0.35834184E-02 0.92290671E+02</pdfrwt>
<pdfrwt beam="2">  1       -4 0.14064730E-01 0.92290671E+02</pdfrwt>
<totfact> 0.24747854E+04</totfact>
</mgrwt>
</event>
<event>
 5    1  0.1090823E+000  0.9727954E+02  0.7818608E-02  0.1286123E+00
         -4   -1    0    0    0  501 -0.00000000000E+00  0.00000000000E+00  0.13593924723E+03  0.13594666358E+03  0.14200000000E+01 0.  1.
          4   -1    0    0  501    0  0.00000000000E+00 -0.00000000000E+00 -0.17366692228E+02  0.17424649177E+02  0.14200000000E+01 0. -1.
         23    2    1    2    0    0  0.00000000000E+00  0.00000000000E+00  0.11857255500E+03  0.15337131275E+03  0.97279539349E+02 0.  0.
        -13    1    3    3    0    0 -0.25643120446E+02  0.16357971552E+01  0.12439774375E+03  0.12702383745E+03  0.10570000000E+00 0.  1.
         13    1    3    3    0    0  0.25643120446E+02 -0.16357971552E+01 -0.58251887443E+01  0.26347475305E+02  0.10570000000E+00 0. -1.
<mgrwt>
<rscale>  0 0.97279539E+02</rscale>
<asrwt>0</asrwt>
<pdfrwt beam="2">  1        4 0.26768276E-02 0.97279539E+02</pdfrwt>
<pdfrwt beam="1">  1       -4 0.20918759E-01 0.97279539E+02</pdfrwt>
<totfact> 0.19725541E+04</totfact>
</mgrwt>
</event>
<event>
 5    1  0.1090823E+000  0.5988891E+02  0.7818608E-02  0.1398299E+00
         -4   -1    0    0    0  501 -0.00000000000E+00  0.00000000000E+00  0.10001206219E+03  0.10002214247E+03  0.14200000000E+01 0.  1.
          4   -1    0    0  501    0  0.00000000000E+00 -0.00000000000E+00 -0.88987949947E+01  0.90113790486E+01  0.14200000000E+01 0. -1.
         23    2    1    2    0    0  0.00000000000E+00  0.00000000000E+00  0.91113267197E+02  0.10903352152E+03  0.59888908447E+02 0.  0.
        -13    1    3    3    0    0 -0.21060420167E+01 -0.19606201200E+02  0.45297234373E+01  0.20232847189E+02  0.10570000000E+00 0. -1.
         13    1    3    3    0    0  0.21060420167E+01  0.19606201200E+02  0.86583543760E+02  0.88800674327E+02  0.10570000000E+00 0.  1.
<mgrwt>
<rscale>  0 0.59888908E+02</rscale>
<asrwt>0</asrwt>
<pdfrwt beam="2">  1        4 0.13784812E-02 0.59888908E+02</pdfrwt>
<pdfrwt beam="1">  1       -4 0.15395906E-01 0.59888908E+02</pdfrwt>
<totfact> 0.77961302E+04</totfact>
</mgrwt>
</event>
<event>
 5    1  0.1090823E+000  0.8928767E+02  0.7818608E-02  0.1304586E+00
         -4   -1    0    0    0  501 -0.00000000000E+00  0.00000000000E+00  0.58335167930E+02  0.58352448256E+02  0.14200000000E+01 0.  1.
          4   -1    0    0  501    0  0.00000000000E+00 -0.00000000000E+00 -0.34128768897E+02  0.34158297182E+02  0.14200000000E+01 0. -1.
         23    2    1    2    0    0  0.00000000000E+00  0.00000000000E+00  0.24206399034E+02  0.92510745438E+02  0.89287671419E+02 0.  0.
        -13    1    3    3    0    0 -0.17194917072E+02 -0.40713344539E+02  0.55651608998E+01  0.44544626893E+02  0.10570000000E+00 0. -1.
         13    1    3    3    0    0  0.17194917072E+02  0.40713344539E+02  0.18641238134E+02  0.47966118546E+02  0.10570000000E+00 0.  1.
<mgrwt>
<rscale>  0 0.89287671E+02</rscale>
<asrwt>0</asrwt>
<pdfrwt beam="2">  1        4 0.52541805E-02 0.89287671E+02</pdfrwt>
<pdfrwt beam="1">  1       -4 0.89782418E-02 0.89287671E+02</pdfrwt>
<totfact> 0.28500052E+04</totfact>
</mgrwt>
</event>
<event>
 5    1  0.1090823E+000  0.9144647E+02  0.7818608E-02  0.1299386E+00
         -4   -1    0    0    0  501 -0.00000000000E+00  0.00000000000E+00  0.10906113760E+03  0.10907038157E+03  0.14200000000E+01 0. -1.
          4   -1    0    0  501    0  0.00000000000E+00 -0.00000000000E+00 -0.19132825827E+02  0.19185448239E+02  0.14200000000E+01 0.  1.
         23    2    1    2    0    0  0.00000000000E+00  0.00000000000E+00  0.89928311777E+02  0.12825582981E+03  0.91446468606E+02 0.  0.
        -13    1    3    3    0    0  0.80981774013E+01 -0.39485304748E+02  0.75238309569E+02  0.85355047698E+02  0.10570000000E+00 0.  1.
         13    1    3    3    0    0 -0.80981774013E+01  0.39485304748E+02  0.14690002208E+02  0.42900782109E+02  0.10570000000E+00 0. -1.
<mgrwt>
<rscale>  0 0.91446469E+02</rscale>
<asrwt>0</asrwt>
<pdfrwt beam="2">  1        4 0.29482707E-02 0.91446469E+02</pdfrwt>
<pdfrwt beam="1">  1       -4 0.16783395E-01 0.91446469E+02</pdfrwt>
<totfact> 0.24615613E+04</totfact>
</mgrwt>
</event>
<event>
 5    1  0.1090823E+000  0.9484253E+02  0.7818608E-02  0.1291531E+00
         -4   -1    0    0    0  501 -0.00000000000E+00  0.00000000000E+00  0.21902211629E+02  0.21948195239E+02  0.14200000000E+01 0.  1.
          4   -1    0    0  501    0  0.00000000000E+00 -0.00000000000E+00 -0.10251491471E+03  0.10252474891E+03  0.14200000000E+01 0. -1.
         23    2    1    2    0    0  0.00000000000E+00  0.00000000000E+00 -0.80612703082E+02  0.12447294415E+03  0.94842532263E+02 0.  0.
        -13    1    3    3    0    0 -0.31425956873E+02  0.18789691841E+02 -0.79856118177E+02  0.87850179667E+02  0.10570000000E+00 0. -1.
         13    1    3    3    0    0  0.31425956873E+02 -0.18789691841E+02 -0.75658490562E+00  0.36622764478E+02  0.10570000000E+00 0.  1.
<mgrwt>
<rscale>  0 0.94842532E+02</rscale>
<asrwt>0</asrwt>
<pdfrwt beam="2">  1        4 0.15775819E-01 0.94842532E+02</pdfrwt>
<pdfrwt beam="1">  1       -4 0.33738648E-02 0.94842532E+02</pdfrwt>
<totfact> 0.22484737E+04</totfact>
</mgrwt>
</event>
<event>
 5    1  0.1090823E+000  0.8556018E+02  0.7818608E-02  0.1313974E+00
          4   -1    0    0  501    0  0.00000000000E+00  0.00000000000E+00  0.43322296266E+02  0.43345562099E+02  0.14200000000E+01 0. -1.
         -4   -1    0    0    0  501 -0.00000000000E+00 -0.00000000000E+00 -0.42198114024E+02  0.42221999327E+02  0.14200000000E+01 0.  1.
         23    2    1    2    0    0  0.00000000000E+00  0.00000000000E+00  0.11241822414E+01  0.85567561427E+02  0.85560176384E+02 0.  0.
        -13    1    3    3    0    0  0.16945985480E+02  0.37552720288E+01 -0.38541875637E+02  0.42270034800E+02  0.10570000000E+00 0.  1.
         13    1    3    3    0    0 -0.16945985480E+02 -0.37552720288E+01  0.39666057878E+02  0.43297526627E+02  0.10570000000E+00 0. -1.
<mgrwt>
<rscale>  0 0.85560176E+02</rscale>
<asrwt>0</asrwt>
<pdfrwt beam="1">  1        4 0.66685957E-02 0.85560176E+02</pdfrwt>
<pdfrwt beam="2">  1       -4 0.64956445E-02 0.85560176E+02</pdfrwt>
<totfact> 0.32513475E+04</totfact>
</mgrwt>
</event>
<event>
 5    1  0.1090823E+000  0.9181166E+02  0.7818608E-02  0.1298523E+00
          4   -1    0    0  501    0  0.00000000000E+00  0.00000000000E+00  0.56860734067E+02  0.56878462344E+02  0.14200000000E+01 0. -1.
         -4   -1    0    0    0  501 -0.00000000000E+00 -0.00000000000E+00 -0.37024398868E+02  0.37051619553E+02  0.14200000000E+01 0.  1.
         23    2    1    2    0    0  0.00000000000E+00  0.00000000000E+00  0.19836335199E+02  0.93930081897E+02  0.91811655530E+02 0.  0.
        -13    1    3    3    0    0 -0.26881306817E+02  0.37186468133E+02  0.85095241906E+01  0.46667560927E+02  0.10570000000E+00 0.  1.
         13    1    3    3    0    0  0.26881306817E+02 -0.37186468133E+02  0.11326811009E+02  0.47262520971E+02  0.10570000000E+00 0. -1.
<mgrwt>
<rscale>  0 0.91811656E+02</rscale>
<asrwt>0</asrwt>
<pdfrwt beam="1">  1        4 0.87512628E-02 0.91811656E+02</pdfrwt>
<pdfrwt beam="2">  1       -4 0.56995190E-02 0.91811656E+02</pdfrwt>
<totfact> 0.26338394E+04</totfact>
</mgrwt>
</event>
<event>
 5    1  0.1090823E+000  0.9379542E+02  0.7818608E-02  0.1293912E+00
         -4   -1    0    0    0  501 -0.00000000000E+00  0.00000000000E+00  0.92152885548E+02  0.92163825414E+02  0.14200000000E+01 0.  1.
          4   -1    0    0  501    0  0.00000000000E+00 -0.00000000000E+00 -0.23833316040E+02  0.23875580694E+02  0.14200000000E+01 0. -1.
         23    2    1    2    0    0  0.00000000000E+00  0.00000000000E+00  0.68319569508E+02  0.11603940611E+03  0.93795416690E+02 0.  0.
        -13    1    3    3    0    0  0.36646768397E+02  0.25574860063E+02  0.51757180974E+02  0.68380377712E+02  0.10570000000E+00 0.  1.
         13    1    3    3    0    0 -0.36646768397E+02 -0.25574860063E+02  0.16562388534E+02  0.47659028396E+02  0.10570000000E+00 0. -1.
<mgrwt>
<rscale>  0 0.93795417E+02</rscale>
<asrwt>0</asrwt>
<pdfrwt beam="2">  1        4 0.36707567E-02 0.93795417E+02</pdfrwt>
<pdfrwt beam="1">  1       -4 0.14181459E-01 0.93795417E+02</pdfrwt>
<totfact> 0.23613621E+04</totfact>
</mgrwt>
</event>
<event>
 5    1  0.1090823E+000  0.9152481E+02  0.7818608E-02  0.1299201E+00
          4   -1    0    0  501    0  0.00000000000E+00  0.00000000000E+00  0.75215091334E+01  0.76543778091E+01  0.14200000000E+01 0. -1.
         -4   -1    0    0    0  501 -0.00000000000E+00 -0.00000000000E+00 -0.27585541899E+03  0.27585907378E+03  0.14200000000E+01 0.  1.
         23    2    1    2    0    0  0.00000000000E+00  0.00000000000E+00 -0.26833390986E+03  0.28351345159E+03  0.91524805667E+02 0.  0.
        -13    1    3    3    0    0  0.64697623510E+00  0.41419333033E+02 -0.19440895930E+03  0.19877332405E+03  0.10570000000E+00 0.  1.
         13    1    3    3    0    0 -0.64697623510E+00 -0.41419333033E+02 -0.73924950557E+02  0.84740127534E+02  0.10570000000E+00 0. -1.
<mgrwt>
<rscale>  0 0.91524806E+02</rscale>
<asrwt>0</asrwt>
<pdfrwt beam="1">  1        4 0.11676573E-02 0.91524806E+02</pdfrwt>
<pdfrwt beam="2">  1       -4 0.42449789E-01 0.91524806E+02</pdfrwt>
<totfact> 0.18150039E+04</totfact>
</mgrwt>
</event>
<event>
 5    1  0.1090823E+000  0.1073860E+03  0.7818608E-02  0.1265489E+00
         -4   -1    0    0    0  501 -0.00000000000E+00  0.00000000000E+00  0.91670591936E+02  0.91681589351E+02  0.14200000000E+01 0.  1.
          4   -1    0    0  501    0  0.00000000000E+00 -0.00000000000E+00 -0.31419949187E+02  0.31452020712E+02  0.14200000000E+01 0. -1.
         23    2    1    2    0    0  0.00000000000E+00  0.00000000000E+00  0.60250642750E+02  0.12313361006E+03  0.10738596731E+03 0.  0.
        -13    1    3    3    0    0 -0.33912766111E+02  0.36974096883E+02  0.52054916431E+02  0.72297199411E+02  0.10570000000E+00 0.  1.
         13    1    3    3    0    0  0.33912766111E+02 -0.36974096883E+02  0.81957263191E+01  0.50836410652E+02  0.10570000000E+00 0. -1.
<mgrwt>
<rscale>  0 0.10738597E+03</rscale>
<asrwt>0</asrwt>
<pdfrwt beam="2">  1        4 0.48371514E-02 0.10738597E+03</pdfrwt>
<pdfrwt beam="1">  1       -4 0.14106481E-01 0.10738597E+03</pdfrwt>
<totfact> 0.16046089E+04</totfact>
</mgrwt>
</event>
<event>
 5    1  0.1090823E+000  0.9357219E+02  0.7818608E-02  0.1294425E+00
         -4   -1    0    0    0  501 -0.00000000000E+00  0.00000000000E+00  0.48451562379E+02  0.48472366323E+02  0.14200000000E+01 0.  1.
          4   -1    0    0  501    0  0.00000000000E+00 -0.00000000000E+00 -0.45136208670E+02  0.45158539980E+02  0.14200000000E+01 0. -1.
         23    2    1    2    0    0  0.00000000000E+00  0.00000000000E+00  0.33153537086E+01  0.93630906302E+02  0.93572191621E+02 0.  0.
        -13    1    3    3    0    0 -0.45751917917E+02 -0.70612645719E+01 -0.51162192770E+01  0.46575597931E+02  0.10570000000E+00 0. -1.
         13    1    3    3    0    0  0.45751917917E+02  0.70612645719E+01  0.84315729856E+01  0.47055308372E+02  0.10570000000E+00 0.  1.
<mgrwt>
<rscale>  0 0.93572192E+02</rscale>
<asrwt>0</asrwt>
<pdfrwt beam="2">  1        4 0.69473502E-02 0.93572192E+02</pdfrwt>
<pdfrwt beam="1">  1       -4 0.74574046E-02 0.93572192E+02</pdfrwt>
<totfact> 0.25027344E+04</totfact>
</mgrwt>
</event>
<event>
 5    1  0.1090823E+000  0.9178871E+02  0.7818608E-02  0.1298577E+00
         -4   -1    0    0    0  501 -0.00000000000E+00  0.00000000000E+00  0.37617993055E+02  0.37644784519E+02  0.14200000000E+01 0.  1.
          4   -1    0    0  501    0  0.00000000000E+00 -0.00000000000E+00 -0.55935871973E+02  0.55953893281E+02  0.14200000000E+01 0. -1.
         23    2    1    2    0    0  0.00000000000E+00  0.00000000000E+00 -0.18317878918E+02  0.93598677800E+02  0.91788712802E+02 0.  0.
        -13    1    3    3    0    0 -0.98547091228E+01 -0.40521015149E+02  0.10381725996E+02  0.42975101719E+02  0.10570000000E+00 0.  1.
         13    1    3    3    0    0  0.98547091228E+01  0.40521015149E+02 -0.28699604914E+02  0.50623576082E+02  0.10570000000E+00 0. -1.
<mgrwt>
<rscale>  0 0.91788713E+02</rscale>
<asrwt>0</asrwt>
<pdfrwt beam="2">  1        4 0.86089659E-02 0.91788713E+02</pdfrwt>
<pdfrwt beam="1">  1       -4 0.57908307E-02 0.91788713E+02</pdfrwt>
<totfact> 0.26377009E+04</totfact>
</mgrwt>
</event>
<event>
 5    1  0.1090823E+000  0.9107096E+02  0.7818608E-02  0.1300279E+00
         -4   -1    0    0    0  501 -0.00000000000E+00  0.00000000000E+00  0.14383869487E+02  0.14453791939E+02  0.14200000000E+01 0. -1.
          4   -1    0    0  501    0  0.00000000000E+00 -0.00000000000E+00 -0.14373018043E+03  0.14373719480E+03  0.14200000000E+01 0.  1.
         23    2    1    2    0    0  0.00000000000E+00  0.00000000000E+00 -0.12934631095E+03  0.15819098673E+03  0.91070962047E+02 0.  0.
        -13    1    3    3    0    0 -0.49606041226E+01  0.23590029446E+02 -0.13177590633E+03  0.13396267295E+03  0.10570000000E+00 0.  1.
         13    1    3    3    0    0  0.49606041226E+01 -0.23590029446E+02  0.24295953828E+01  0.24228313783E+02  0.10570000000E+00 0. -1.
<mgrwt>
<rscale>  0 0.91070962E+02</rscale>
<asrwt>0</asrwt>
<pdfrwt beam="2">  1        4 0.22118253E-01 0.91070962E+02</pdfrwt>
<pdfrwt beam="1">  1       -4 0.22188213E-02 0.91070962E+02</pdfrwt>
<totfact> 0.23341542E+04</totfact>
</mgrwt>
</event>
<event>
 5    1  0.1090823E+000  0.9067597E+02  0.7818608E-02  0.1301223E+00
          4   -1    0    0  501    0  0.00000000000E+00  0.00000000000E+00  0.22379349328E+02  0.22424354536E+02  0.14200000000E+01 0.  1.
         -4   -1    0    0    0  501 -0.00000000000E+00 -0.00000000000E+00 -0.91706758443E+02  0.91717751521E+02  0.14200000000E+01 0. -1.
         23    2    1    2    0    0  0.00000000000E+00  0.00000000000E+00 -0.69327409114E+02  0.11414210606E+03  0.90675965507E+02 0.  0.
        -13    1    3    3    0    0  0.20479815688E+02  0.40448650208E+02 -0.34571602413E+02  0.57015112208E+02  0.10570000000E+00 0. -1.
         13    1    3    3    0    0 -0.20479815688E+02 -0.40448650208E+02 -0.34755806701E+02  0.57126993849E+02  0.10570000000E+00 0.  1.
<mgrwt>
<rscale>  0 0.90675966E+02</rscale>
<asrwt>0</asrwt>
<pdfrwt beam="1">  1        4 0.34472844E-02 0.90675966E+02</pdfrwt>
<pdfrwt beam="2">  1       -4 0.14113039E-01 0.90675966E+02</pdfrwt>
<totfact> 0.25993040E+04</totfact>
</mgrwt>
</event>
<event>
 5    1  0.1090823E+000  0.9018178E+02  0.7818608E-02  0.1302412E+00
          4   -1    0    0  501    0  0.00000000000E+00  0.00000000000E+00  0.15649931279E+03  0.15650575486E+03  0.14200000000E+01 0. -1.
         -4   -1    0    0    0  501 -0.00000000000E+00 -0.00000000000E+00 -0.12946142664E+02  0.13023786311E+02  0.14200000000E+01 0.  1.
         23    2    1    2    0    0  0.00000000000E+00  0.00000000000E+00  0.14355317013E+03  0.16952954117E+03  0.90181775743E+02 0.  0.
        -13    1    3    3    0    0  0.12573442696E+02  0.22832083718E+02  0.26092744503E+01  0.26195705636E+02  0.10570000000E+00 0.  1.
         13    1    3    3    0    0 -0.12573442696E+02 -0.22832083718E+02  0.14094389568E+03  0.14333383554E+03  0.10570000000E+00 0. -1.
<mgrwt>
<rscale>  0 0.90181776E+02</rscale>
<asrwt>0</asrwt>
<pdfrwt beam="1">  1        4 0.24083286E-01 0.90181776E+02</pdfrwt>
<pdfrwt beam="2">  1       -4 0.19981823E-02 0.90181776E+02</pdfrwt>
<totfact> 0.23407605E+04</totfact>
</mgrwt>
</event>
<event>
 5    1  0.1090823E+000  0.9046358E+02  0.7818608E-02  0.1301733E+00
          4   -1    0    0  501    0  0.00000000000E+00  0.00000000000E+00  0.84167656977E+01  0.85357099769E+01  0.14200000000E+01 0. -1.
         -4   -1    0    0    0  501 -0.00000000000E+00 -0.00000000000E+00 -0.24124956615E+03  0.24125374519E+03  0.14200000000E+01 0.  1.
         23    2    1    2    0    0  0.00000000000E+00  0.00000000000E+00 -0.23283280045E+03  0.24978945516E+03  0.90463578005E+02 0.  0.
        -13    1    3    3    0    0 -0.36288060125E+02  0.20544985193E+02 -0.16479553496E+03  0.16998970334E+03  0.10570000000E+00 0.  1.
         13    1    3    3    0    0  0.36288060125E+02 -0.20544985193E+02 -0.68037265488E+02  0.79799751828E+02  0.10570000000E+00 0. -1.
<mgrwt>
<rscale>  0 0.90463578E+02</rscale>
<asrwt>0</asrwt>
<pdfrwt beam="1">  1        4 0.13043582E-02 0.90463578E+02</pdfrwt>
<pdfrwt beam="2">  1       -4 0.37124784E-01 0.90463578E+02</pdfrwt>
<totfact> 0.19882466E+04</totfact>
</mgrwt>
</event>
<event>
 5    1  0.1090823E+000  0.9168600E+02  0.7818608E-02  0.1298819E+00
          4   -1    0    0  501    0  0.00000000000E+00  0.00000000000E+00  0.38671732368E+02  0.38697794309E+02  0.14200000000E+01 0. -1.
         -4   -1    0    0    0  501 -0.00000000000E+00 -0.00000000000E+00 -0.54290447119E+02  0.54309014430E+02  0.14200000000E+01 0.  1.
         23    2    1    2    0    0  0.00000000000E+00  0.00000000000E+00 -0.15618714751E+02  0.93006808739E+02  0.91685997957E+02 0.  0.
        -13    1    3    3    0    0 -0.21312468502E+02 -0.34486101397E+02 -0.29519937672E+02  0.50149281110E+02  0.10570000000E+00 0.  1.
         13    1    3    3    0    0  0.21312468502E+02  0.34486101397E+02  0.13901222921E+02  0.42857527629E+02  0.10570000000E+00 0. -1.
<mgrwt>
<rscale>  0 0.91685998E+02</rscale>
<asrwt>0</asrwt>
<pdfrwt beam="1">  1        4 0.59529303E-02 0.91685998E+02</pdfrwt>
<pdfrwt beam="2">  1       -4 0.83558095E-02 0.91685998E+02</pdfrwt>
<totfact> 0.26494687E+04</totfact>
</mgrwt>
</event>
<event>
 5    1  0.1090823E+000  0.9003156E+02  0.7818608E-02  0.1302775E+00
          4   -1    0    0  501    0  0.00000000000E+00  0.00000000000E+00  0.30735493218E+03  0.30735821241E+03  0.14200000000E+01 0. -1.
         -4   -1    0    0    0  501 -0.00000000000E+00 -0.00000000000E+00 -0.65132821052E+01  0.66662766056E+01  0.14200000000E+01 0.  1.
         23    2    1    2    0    0  0.00000000000E+00  0.00000000000E+00  0.30084165007E+03  0.31402448901E+03  0.90031557141E+02 0.  0.
        -13    1    3    3    0    0 -0.54195391477E+01  0.40038703077E+02  0.21964914557E+03  0.22333434011E+03  0.10570000000E+00 0. -1.
         13    1    3    3    0    0  0.54195391477E+01 -0.40038703077E+02  0.81192504501E+02  0.90690148904E+02  0.10570000000E+00 0.  1.
<mgrwt>
<rscale>  0 0.90031557E+02</rscale>
<asrwt>0</asrwt>
<pdfrwt beam="1">  1        4 0.47297396E-01 0.90031557E+02</pdfrwt>
<pdfrwt beam="2">  1       -4 0.10140645E-02 0.90031557E+02</pdfrwt>
<totfact> 0.17993527E+04</totfact>
</mgrwt>
</event>
<event>
 5    1  0.1090823E+000  0.9104404E+02  0.7818608E-02  0.1300343E+00
         -4   -1    0    0    0  501 -0.00000000000E+00  0.00000000000E+00  0.13283738467E+02  0.13359420185E+02  0.14200000000E+01 0.  1.
          4   -1    0    0  501    0  0.00000000000E+00 -0.00000000000E+00 -0.15547728210E+03  0.15548376651E+03  0.14200000000E+01 0. -1.
         23    2    1    2    0    0  0.00000000000E+00  0.00000000000E+00 -0.14219354363E+03  0.16884318669E+03  0.91044043425E+02 0.  0.
        -13    1    3    3    0    0 -0.33784701294E+02  0.30509357687E+02 -0.70859709724E+02  0.84221948343E+02  0.10570000000E+00 0.  1.
         13    1    3    3    0    0  0.33784701294E+02 -0.30509357687E+02 -0.71333833904E+02  0.84621238350E+02  0.10570000000E+00 0. -1.
<mgrwt>
<rscale>  0 0.91044043E+02</rscale>
<asrwt>0</asrwt>
<pdfrwt beam="2">  1        4 0.23925901E-01 0.91044043E+02</pdfrwt>
<pdfrwt beam="1">  1       -4 0.20499727E-02 0.91044043E+02</pdfrwt>
<totfact> 0.22850860E+04</totfact>
</mgrwt>
</event>
<event>
 5    1  0.1090823E+000  0.8776541E+02  0.7818608E-02  0.1308355E+00
         -4   -1    0    0    0  501 -0.00000000000E+00  0.00000000000E+00  0.61265040984E+02  0.61281495142E+02  0.14200000000E+01 0.  1.
          4   -1    0    0  501    0  0.00000000000E+00 -0.00000000000E+00 -0.31395425893E+02  0.31427522445E+02  0.14200000000E+01 0. -1.
         23    2    1    2    0    0  0.00000000000E+00  0.00000000000E+00  0.29869615091E+02  0.92709017587E+02  0.87765414807E+02 0.  0.
        -13    1    3    3    0    0 -0.21438528831E+02  0.35250973128E+02 -0.85505191171E+00  0.41267225629E+02  0.10570000000E+00 0.  1.
         13    1    3    3    0    0  0.21438528831E+02 -0.35250973128E+02  0.30724667003E+02  0.51441791957E+02  0.10570000000E+00 0. -1.
<mgrwt>
<rscale>  0 0.87765415E+02</rscale>
<asrwt>0</asrwt>
<pdfrwt beam="2">  1        4 0.48338002E-02 0.87765415E+02</pdfrwt>
<pdfrwt beam="1">  1       -4 0.94291256E-02 0.87765415E+02</pdfrwt>
<totfact> 0.29838839E+04</totfact>
</mgrwt>
</event>
<event>
 5    1  0.1090823E+000  0.8996557E+02  0.7818608E-02  0.1302935E+00
         -4   -1    0    0    0  501 -0.00000000000E+00  0.00000000000E+00  0.12380873572E+03  0.12381687866E+03  0.14200000000E+01 0.  1.
          4   -1    0    0  501    0  0.00000000000E+00 -0.00000000000E+00 -0.16303817822E+02  0.16365539269E+02  0.14200000000E+01 0. -1.
         23    2    1    2    0    0  0.00000000000E+00  0.00000000000E+00  0.10750491790E+03  0.14018241793E+03  0.89965565212E+02 0.  0.
        -13    1    3    3    0    0 -0.21040461666E+01 -0.37191528645E+02  0.93042133666E+02  0.10022218628E+03  0.10570000000E+00 0.  1.
         13    1    3    3    0    0  0.21040461666E+01  0.37191528645E+02  0.14462784235E+02  0.39960231650E+02  0.10570000000E+00 0. -1.
<mgrwt>
<rscale>  0 0.89965565E+02</rscale>
<asrwt>0</asrwt>
<pdfrwt beam="2">  1        4 0.25136538E-02 0.89965565E+02</pdfrwt>
<pdfrwt beam="1">  1       -4 0.19052872E-01 0.89965565E+02</pdfrwt>
<totfact> 0.25060373E+04</totfact>
</mgrwt>
</event>
<event>
 5    1  0.1090823E+000  0.9178126E+02  0.7818608E-02  0.1298595E+00
          4   -1    0    0  501    0  0.00000000000E+00  0.00000000000E+00  0.52532155268E+02  0.52551343818E+02  0.14200000000E+01 0. -1.
         -4   -1    0    0    0  501 -0.00000000000E+00 -0.00000000000E+00 -0.40049687440E+02  0.40074853262E+02  0.14200000000E+01 0.  1.
         23    2    1    2    0    0  0.00000000000E+00  0.00000000000E+00  0.12482467828E+02  0.92626197080E+02  0.91781263788E+02 0.  0.
        -13    1    3    3    0    0  0.10769271623E+01 -0.38507624772E+02 -0.18927115703E+02  0.42921367861E+02  0.10570000000E+00 0.  1.
         13    1    3    3    0    0 -0.10769271623E+01  0.38507624772E+02  0.31409583531E+02  0.49704829220E+02  0.10570000000E+00 0. -1.
<mgrwt>
<rscale>  0 0.91781264E+02</rscale>
<asrwt>0</asrwt>
<pdfrwt beam="1">  1        4 0.80852818E-02 0.91781264E+02</pdfrwt>
<pdfrwt beam="2">  1       -4 0.61649023E-02 0.91781264E+02</pdfrwt>
<totfact> 0.26443848E+04</totfact>
</mgrwt>
</event>
<event>
 5    1  0.1090823E+000  0.9445039E+02  0.7818608E-02  0.1292419E+00
          4   -1    0    0  501    0  0.00000000000E+00  0.00000000000E+00  0.36694462497E+02  0.36721927754E+02  0.14200000000E+01 0. -1.
         -4   -1    0    0    0  501 -0.00000000000E+00 -0.00000000000E+00 -0.60719573182E+02  0.60736175113E+02  0.14200000000E+01 0.  1.
         23    2    1    2    0    0  0.00000000000E+00  0.00000000000E+00 -0.24025110685E+02  0.97458102867E+02  0.94450388412E+02 0.  0.
        -13    1    3    3    0    0  0.20674352174E+02  0.10707170139E+02 -0.54407868910E+02  0.59180230669E+02  0.10570000000E+00 0.  1.
         13    1    3    3    0    0 -0.20674352174E+02 -0.10707170139E+02  0.30382758225E+02  0.38277872199E+02  0.10570000000E+00 0. -1.
<mgrwt>
<rscale>  0 0.94450388E+02</rscale>
<asrwt>0</asrwt>
<pdfrwt beam="1">  1        4 0.56486917E-02 0.94450388E+02</pdfrwt>
<pdfrwt beam="2">  1       -4 0.93448626E-02 0.94450388E+02</pdfrwt>
<totfact> 0.24179437E+04</totfact>
</mgrwt>
</event>
<event>
 5    1  0.1090823E+000  0.9117103E+02  0.7818608E-02  0.1300040E+00
          4   -1    0    0  501    0  0.00000000000E+00  0.00000000000E+00  0.80896204101E+02  0.80908666025E+02  0.14200000000E+01 0. -1.
         -4   -1    0    0    0  501 -0.00000000000E+00 -0.00000000000E+00 -0.25653642478E+02  0.25692912883E+02  0.14200000000E+01 0.  1.
         23    2    1    2    0    0  0.00000000000E+00  0.00000000000E+00  0.55242561623E+02  0.10660157891E+03  0.91171026160E+02 0.  0.
        -13    1    3    3    0    0  0.55468833013E+01 -0.40183779789E+02  0.33041809655E+01  0.40699297989E+02  0.10570000000E+00 0.  1.
         13    1    3    3    0    0 -0.55468833013E+01  0.40183779789E+02  0.51938380657E+02  0.65902280919E+02  0.10570000000E+00 0. -1.
<mgrwt>
<rscale>  0 0.91171026E+02</rscale>
<asrwt>0</asrwt>
<pdfrwt beam="1">  1        4 0.12449549E-01 0.91171026E+02</pdfrwt>
<pdfrwt beam="2">  1       -4 0.39506937E-02 0.91171026E+02</pdfrwt>
<totfact> 0.26060123E+04</totfact>
</mgrwt>
</event>
<event>
 5    1  0.1090823E+000  0.8995906E+02  0.7818608E-02  0.1302951E+00
         -4   -1    0    0    0  501 -0.00000000000E+00  0.00000000000E+00  0.89782751081E+02  0.89793979707E+02  0.14200000000E+01 0.  1.
          4   -1    0    0  501    0  0.00000000000E+00 -0.00000000000E+00 -0.22498907490E+02  0.22543674019E+02  0.14200000000E+01 0. -1.
         23    2    1    2    0    0  0.00000000000E+00  0.00000000000E+00  0.67283843591E+02  0.11233765373E+03  0.89959062002E+02 0.  0.
        -13    1    3    3    0    0 -0.14900280547E+01 -0.28605768614E+02  0.76947883243E+02  0.82106626345E+02  0.10570000000E+00 0.  1.
         13    1    3    3    0    0  0.14900280547E+01  0.28605768614E+02 -0.96640396525E+01  0.30231027381E+02  0.10570000000E+00 0. -1.
<mgrwt>
<rscale>  0 0.89959062E+02</rscale>
<asrwt>0</asrwt>
<pdfrwt beam="2">  1        4 0.34656777E-02 0.89959062E+02</pdfrwt>
<pdfrwt beam="1">  1       -4 0.13817038E-01 0.89959062E+02</pdfrwt>
<totfact> 0.26664640E+04</totfact>
</mgrwt>
</event>
<event>
 5    1  0.1090823E+000  0.8820167E+02  0.7818608E-02  0.1307266E+00
          4   -1    0    0  501    0  0.00000000000E+00  0.00000000000E+00  0.42792969935E+03  0.42793205534E+03  0.14200000000E+01 0. -1.
         -4   -1    0    0    0  501 -0.00000000000E+00 -0.00000000000E+00 -0.44315239200E+01  0.46534722792E+01  0.14200000000E+01 0.  1.
         23    2    1    2    0    0  0.00000000000E+00  0.00000000000E+00  0.42349817543E+03  0.43258552762E+03  0.88201667282E+02 0.  0.
        -13    1    3    3    0    0  0.10912228425E+02  0.41919403988E+02  0.25235862558E+03  0.25604921448E+03  0.10570000000E+00 0.  1.
         13    1    3    3    0    0 -0.10912228425E+02 -0.41919403988E+02  0.17113954985E+03  0.17653631313E+03  0.10570000000E+00 0. -1.
<mgrwt>
<rscale>  0 0.88201667E+02</rscale>
<asrwt>0</asrwt>
<pdfrwt beam="1">  1        4 0.65852629E-01 0.88201667E+02</pdfrwt>
<pdfrwt beam="2">  1       -4 0.69902670E-03 0.88201667E+02</pdfrwt>
<totfact> 0.15733662E+04</totfact>
</mgrwt>
</event>
<event>
 5    1  0.1090823E+000  0.9444445E+02  0.7818608E-02  0.1292432E+00
          4   -1    0    0  501    0  0.00000000000E+00  0.00000000000E+00  0.18741647563E+02  0.18795365210E+02  0.14200000000E+01 0. -1.
         -4   -1    0    0    0  501 -0.00000000000E+00 -0.00000000000E+00 -0.11875482846E+03  0.11876331792E+03  0.14200000000E+01 0.  1.
         23    2    1    2    0    0  0.00000000000E+00  0.00000000000E+00 -0.10001318090E+03  0.13755868313E+03  0.94444454314E+02 0.  0.
        -13    1    3    3    0    0 -0.38178360221E+02  0.20121502456E+02 -0.22086305760E+02  0.48479667128E+02  0.10570000000E+00 0. -1.
         13    1    3    3    0    0  0.38178360221E+02 -0.20121502456E+02 -0.77926875140E+02  0.89079016001E+02  0.10570000000E+00 0.  1.
<mgrwt>
<rscale>  0 0.94444454E+02</rscale>
<asrwt>0</asrwt>
<pdfrwt beam="1">  1        4 0.28881156E-02 0.94444454E+02</pdfrwt>
<pdfrwt beam="2">  1       -4 0.18274758E-01 0.94444454E+02</pdfrwt>
<totfact> 0.22103663E+04</totfact>
</mgrwt>
</event>
<event>
 5    1  0.1090823E+000  0.9095741E+02  0.7818608E-02  0.1300550E+00
         -4   -1    0    0    0  501 -0.00000000000E+00  0.00000000000E+00  0.11920364652E+03  0.11921210401E+03  0.14200000000E+01 0.  1.
          4   -1    0    0  501    0  0.00000000000E+00 -0.00000000000E+00 -0.17312941337E+02  0.17371077621E+02  0.14200000000E+01 0. -1.
         23    2    1    2    0    0  0.00000000000E+00  0.00000000000E+00  0.10189070518E+03  0.13658318163E+03  0.90957405981E+02 0.  0.
        -13    1    3    3    0    0  0.22961453717E+02 -0.38172680690E+02  0.37189414811E+02  0.58029696314E+02  0.10570000000E+00 0. -1.
         13    1    3    3    0    0 -0.22961453717E+02  0.38172680690E+02  0.64701290368E+02  0.78553485318E+02  0.10570000000E+00 0.  1.
<mgrwt>
<rscale>  0 0.90957406E+02</rscale>
<asrwt>0</asrwt>
<pdfrwt beam="2">  1        4 0.26686520E-02 0.90957406E+02</pdfrwt>
<pdfrwt beam="1">  1       -4 0.18344146E-01 0.90957406E+02</pdfrwt>
<totfact> 0.24523661E+04</totfact>
</mgrwt>
</event>
<event>
 5    1  0.1090823E+000  0.9342195E+02  0.7818608E-02  0.1294770E+00
         -4   -1    0    0    0  501 -0.00000000000E+00  0.00000000000E+00  0.49278037136E+02  0.49298492309E+02  0.14200000000E+01 0.  1.
          4   -1    0    0  501    0  0.00000000000E+00 -0.00000000000E+00 -0.44236597553E+02  0.44259382769E+02  0.14200000000E+01 0. -1.
         23    2    1    2    0    0  0.00000000000E+00  0.00000000000E+00  0.50414395826E+01  0.93557875078E+02  0.93421945367E+02 0.  0.
        -13    1    3    3    0    0 -0.32337894746E+02  0.18615726071E+02 -0.25620328150E+02  0.45262535068E+02  0.10570000000E+00 0. -1.
         13    1    3    3    0    0  0.32337894746E+02 -0.18615726071E+02  0.30661767732E+02  0.48295340010E+02  0.10570000000E+00 0.  1.
<mgrwt>
<rscale>  0 0.93421945E+02</rscale>
<asrwt>0</asrwt>
<pdfrwt beam="2">  1        4 0.68089565E-02 0.93421945E+02</pdfrwt>
<pdfrwt beam="1">  1       -4 0.75845627E-02 0.93421945E+02</pdfrwt>
<totfact> 0.25141666E+04</totfact>
</mgrwt>
</event>
<event>
 5    1  0.1090823E+000  0.9089828E+02  0.7818608E-02  0.1300691E+00
          4   -1    0    0  501    0  0.00000000000E+00  0.00000000000E+00  0.11492322318E+03  0.11493199566E+03  0.14200000000E+01 0. -1.
         -4   -1    0    0    0  501 -0.00000000000E+00 -0.00000000000E+00 -0.17936430942E+02  0.17992552764E+02  0.14200000000E+01 0.  1.
         23    2    1    2    0    0  0.00000000000E+00  0.00000000000E+00  0.96986792239E+02  0.13292454842E+03  0.90898282188E+02 0.  0.
        -13    1    3    3    0    0  0.79162256751E+01 -0.38209940176E+02  0.14418991579E+02  0.41600296247E+02  0.10570000000E+00 0.  1.
         13    1    3    3    0    0 -0.79162256751E+01  0.38209940176E+02  0.82567800660E+02  0.91324252176E+02  0.10570000000E+00 0. -1.
<mgrwt>
<rscale>  0 0.90898282E+02</rscale>
<asrwt>0</asrwt>
<pdfrwt beam="1">  1        4 0.17685488E-01 0.90898282E+02</pdfrwt>
<pdfrwt beam="2">  1       -4 0.27644428E-02 0.90898282E+02</pdfrwt>
<totfact> 0.24763240E+04</totfact>
</mgrwt>
</event>
<event>
 5    1  0.1090823E+000  0.9019991E+02  0.7818608E-02  0.1302368E+00
         -4   -1    0    0    0  501 -0.00000000000E+00  0.00000000000E+00  0.60522777715E+02  0.60539433614E+02  0.14200000000E+01 0.  1.
          4   -1    0    0  501    0  0.00000000000E+00 -0.00000000000E+00 -0.33570986249E+02  0.33601004713E+02  0.14200000000E+01 0. -1.
         23    2    1    2    0    0  0.00000000000E+00  0.00000000000E+00  0.26951791466E+02  0.94140438327E+02  0.90199906126E+02 0.  0.
        -13    1    3    3    0    0 -0.40726281017E+02 -0.18282880902E+02  0.20166968699E+02  0.48985829569E+02  0.10570000000E+00 0.  1.
         13    1    3    3    0    0  0.40726281017E+02  0.18282880902E+02  0.67848227668E+01  0.45154608757E+02  0.10570000000E+00 0. -1.
<mgrwt>
<rscale>  0 0.90199906E+02</rscale>
<asrwt>0</asrwt>
<pdfrwt beam="2">  1        4 0.51683575E-02 0.90199906E+02</pdfrwt>
<pdfrwt beam="1">  1       -4 0.93147869E-02 0.90199906E+02</pdfrwt>
<totfact> 0.27620173E+04</totfact>
</mgrwt>
</event>
<event>
 5    1  0.1090823E+000  0.9363020E+02  0.7818608E-02  0.1294291E+00
          4   -1    0    0  501    0  0.00000000000E+00  0.00000000000E+00  0.22075932465E+03  0.22076389156E+03  0.14200000000E+01 0. -1.
         -4   -1    0    0    0  501 -0.00000000000E+00 -0.00000000000E+00 -0.98723247559E+01  0.99739258111E+01  0.14200000000E+01 0.  1.
         23    2    1    2    0    0  0.00000000000E+00  0.00000000000E+00  0.21088699989E+03  0.23073781737E+03  0.93630196219E+02 0.  0.
        -13    1    3    3    0    0 -0.87485618716E+01  0.38449446461E+02  0.43258504292E+02  0.58533807616E+02  0.10570000000E+00 0.  1.
         13    1    3    3    0    0  0.87485618716E+01 -0.38449446461E+02  0.16762849560E+03  0.17220400976E+03  0.10570000000E+00 0. -1.
<mgrwt>
<rscale>  0 0.93630196E+02</rscale>
<asrwt>0</asrwt>
<pdfrwt beam="1">  1        4 0.33971137E-01 0.93630196E+02</pdfrwt>
<pdfrwt beam="2">  1       -4 0.15269861E-02 0.93630196E+02</pdfrwt>
<totfact> 0.18782185E+04</totfact>
</mgrwt>
</event>
<event>
 5    1  0.1090823E+000  0.9067989E+02  0.7818608E-02  0.1301214E+00
          4   -1    0    0  501    0  0.00000000000E+00  0.00000000000E+00  0.94964069623E+02  0.94974685676E+02  0.14200000000E+01 0. -1.
         -4   -1    0    0    0  501 -0.00000000000E+00 -0.00000000000E+00 -0.21612117848E+02  0.21658717364E+02  0.14200000000E+01 0.  1.
         23    2    1    2    0    0  0.00000000000E+00  0.00000000000E+00  0.73351951775E+02  0.11663340304E+03  0.90679886831E+02 0.  0.
        -13    1    3    3    0    0  0.38104040225E+02  0.24510887467E+02  0.34449007431E+02  0.56916138058E+02  0.10570000000E+00 0.  1.
         13    1    3    3    0    0 -0.38104040225E+02 -0.24510887467E+02  0.38902944343E+02  0.59717264983E+02  0.10570000000E+00 0. -1.
<mgrwt>
<rscale>  0 0.90679887E+02</rscale>
<asrwt>0</asrwt>
<pdfrwt beam="1">  1        4 0.14614258E-01 0.90679887E+02</pdfrwt>
<pdfrwt beam="2">  1       -4 0.33293424E-02 0.90679887E+02</pdfrwt>
<totfact> 0.25843516E+04</totfact>
</mgrwt>
</event>
<event>
 5    1  0.1090823E+000  0.9096798E+02  0.7818608E-02  0.1300524E+00
          4   -1    0    0  501    0  0.00000000000E+00  0.00000000000E+00  0.24542838157E+03  0.24543248946E+03  0.14200000000E+01 0. -1.
         -4   -1    0    0    0  501 -0.00000000000E+00 -0.00000000000E+00 -0.83653031657E+01  0.84849688894E+01  0.14200000000E+01 0.  1.
         23    2    1    2    0    0  0.00000000000E+00  0.00000000000E+00  0.23706307841E+03  0.25391745835E+03  0.90967975187E+02 0.  0.
        -13    1    3    3    0    0 -0.36169068528E+02  0.27421367408E+02  0.11032257915E+03  0.11929465852E+03  0.10570000000E+00 0. -1.
         13    1    3    3    0    0  0.36169068528E+02 -0.27421367408E+02  0.12674049926E+03  0.13462279983E+03  0.10570000000E+00 0.  1.
<mgrwt>
<rscale>  0 0.90967975E+02</rscale>
<asrwt>0</asrwt>
<pdfrwt beam="1">  1        4 0.37767737E-01 0.90967975E+02</pdfrwt>
<pdfrwt beam="2">  1       -4 0.12964906E-02 0.90967975E+02</pdfrwt>
<totfact> 0.19444331E+04</totfact>
</mgrwt>
</event>
<event>
 5    1  0.1090823E+000  0.9117374E+02  0.7818608E-02  0.1300034E+00
         -4   -1    0    0    0  501 -0.00000000000E+00  0.00000000000E+00  0.54699610279E+02  0.54718038750E+02  0.14200000000E+01 0.  1.
          4   -1    0    0  501    0  0.00000000000E+00 -0.00000000000E+00 -0.37954169695E+02  0.37980724022E+02  0.14200000000E+01 0. -1.
         23    2    1    2    0    0  0.00000000000E+00  0.00000000000E+00  0.16745440583E+02  0.92698762772E+02  0.91173739855E+02 0.  0.
        -13    1    3    3    0    0 -0.20446028499E+02  0.39991850733E+02  0.16298188984E+02  0.47781066784E+02  0.10570000000E+00 0. -1.
         13    1    3    3    0    0  0.20446028499E+02 -0.39991850733E+02  0.44725159991E+00  0.44917695988E+02  0.10570000000E+00 0.  1.
<mgrwt>
<rscale>  0 0.91173740E+02</rscale>
<asrwt>0</asrwt>
<pdfrwt beam="2">  1        4 0.58425632E-02 0.91173740E+02</pdfrwt>
<pdfrwt beam="1">  1       -4 0.84187849E-02 0.91173740E+02</pdfrwt>
<totfact> 0.26921227E+04</totfact>
</mgrwt>
</event>
<event>
 5    1  0.1090823E+000  0.9137606E+02  0.7818608E-02  0.1299553E+00
          4   -1    0    0  501    0  0.00000000000E+00  0.00000000000E+00  0.12340617953E+03  0.12341434903E+03  0.14200000000E+01 0. -1.
         -4   -1    0    0    0  501 -0.00000000000E+00 -0.00000000000E+00 -0.16876296269E+02  0.16935931500E+02  0.14200000000E+01 0.  1.
         23    2    1    2    0    0  0.00000000000E+00  0.00000000000E+00  0.10652988326E+03  0.14035028053E+03  0.91376064791E+02 0.  0.
        -13    1    3    3    0    0 -0.71424126048E+01 -0.26255557408E+02 -0.31075637890E+01  0.27386793858E+02  0.10570000000E+00 0.  1.
         13    1    3    3    0    0  0.71424126048E+01  0.26255557408E+02  0.10963744705E+03  0.11296348667E+03  0.10570000000E+00 0. -1.
<mgrwt>
<rscale>  0 0.91376065E+02</rscale>
<asrwt>0</asrwt>
<pdfrwt beam="1">  1        4 0.18990782E-01 0.91376065E+02</pdfrwt>
<pdfrwt beam="2">  1       -4 0.26015691E-02 0.91376065E+02</pdfrwt>
<totfact> 0.24025014E+04</totfact>
</mgrwt>
</event>
<event>
 5    1  0.1090823E+000  0.9074342E+02  0.7818608E-02  0.1301061E+00
         -4   -1    0    0    0  501 -0.00000000000E+00  0.00000000000E+00  0.28308705935E+02  0.28344298046E+02  0.14200000000E+01 0.  1.
          4   -1    0    0  501    0  0.00000000000E+00 -0.00000000000E+00 -0.72631176613E+02  0.72645056378E+02  0.14200000000E+01 0. -1.
         23    2    1    2    0    0  0.00000000000E+00  0.00000000000E+00 -0.44322470679E+02  0.10098935442E+03  0.90743420147E+02 0.  0.
        -13    1    3    3    0    0  0.13237888227E+02 -0.17878299042E+02 -0.66169875921E+02  0.69809303916E+02  0.10570000000E+00 0. -1.
         13    1    3    3    0    0 -0.13237888227E+02  0.17878299042E+02  0.21847405242E+02  0.31180050508E+02  0.10570000000E+00 0.  1.
<mgrwt>
<rscale>  0 0.90743420E+02</rscale>
<asrwt>0</asrwt>
<pdfrwt beam="2">  1        4 0.11177833E-01 0.90743420E+02</pdfrwt>
<pdfrwt beam="1">  1       -4 0.43589911E-02 0.90743420E+02</pdfrwt>
<totfact> 0.26739876E+04</totfact>
</mgrwt>
</event>
<event>
 5    1  0.1090823E+000  0.9217745E+02  0.7818608E-02  0.1297663E+00
         -4   -1    0    0    0  501 -0.00000000000E+00  0.00000000000E+00  0.14665032960E+02  0.14733621134E+02  0.14200000000E+01 0.  1.
          4   -1    0    0  501    0  0.00000000000E+00 -0.00000000000E+00 -0.14443594162E+03  0.14444292171E+03  0.14200000000E+01 0. -1.
         23    2    1    2    0    0  0.00000000000E+00  0.00000000000E+00 -0.12977090866E+03  0.15917654284E+03  0.92177454168E+02 0.  0.
        -13    1    3    3    0    0 -0.12018087045E+02 -0.42030448800E+02 -0.39673071895E+02  0.59033523092E+02  0.10570000000E+00 0.  1.
         13    1    3    3    0    0  0.12018087045E+02  0.42030448800E+02 -0.90097836763E+02  0.10014301975E+03  0.10570000000E+00 0. -1.
<mgrwt>
<rscale>  0 0.92177454E+02</rscale>
<asrwt>0</asrwt>
<pdfrwt beam="2">  1        4 0.22226726E-01 0.92177454E+02</pdfrwt>
<pdfrwt beam="1">  1       -4 0.22619720E-02 0.92177454E+02</pdfrwt>
<totfact> 0.22547671E+04</totfact>
</mgrwt>
</event>
<event>
 5    1  0.1090823E+000  0.9177525E+02  0.7818608E-02  0.1298609E+00
          4   -1    0    0  501    0  0.00000000000E+00  0.00000000000E+00  0.50653806190E+02  0.50673706017E+02  0.14200000000E+01 0. -1.
         -4   -1    0    0    0  501 -0.00000000000E+00 -0.00000000000E+00 -0.41529709481E+02  0.41553978986E+02  0.14200000000E+01 0.  1.
         23    2    1    2    0    0  0.00000000000E+00  0.00000000000E+00  0.91240967095E+01  0.92227685003E+02  0.91775251241E+02 0.  0.
        -13    1    3    3    0    0  0.12217579888E+02 -0.23186897840E+02 -0.33290090660E+02  0.42369125533E+02  0.10570000000E+00 0.  1.
         13    1    3    3    0    0 -0.12217579888E+02  0.23186897840E+02  0.42414187370E+02  0.49858559471E+02  0.10570000000E+00 0. -1.
<mgrwt>
<rscale>  0 0.91775251E+02</rscale>
<asrwt>0</asrwt>
<pdfrwt beam="1">  1        4 0.77962909E-02 0.91775251E+02</pdfrwt>
<pdfrwt beam="2">  1       -4 0.63925837E-02 0.91775251E+02</pdfrwt>
<totfact> 0.26473413E+04</totfact>
</mgrwt>
</event>
<event>
 5    1  0.1090823E+000  0.9126496E+02  0.7818608E-02  0.1299817E+00
         -4   -1    0    0    0  501 -0.00000000000E+00  0.00000000000E+00  0.69604631619E+02  0.69619114781E+02  0.14200000000E+01 0.  1.
          4   -1    0    0  501    0  0.00000000000E+00 -0.00000000000E+00 -0.29881989646E+02  0.29915710007E+02  0.14200000000E+01 0. -1.
         23    2    1    2    0    0  0.00000000000E+00  0.00000000000E+00  0.39722641973E+02  0.99534824788E+02  0.91264960747E+02 0.  0.
        -13    1    3    3    0    0 -0.15409422518E+02  0.33237873876E+02  0.49531338979E+02  0.61608207860E+02  0.10570000000E+00 0. -1.
         13    1    3    3    0    0  0.15409422518E+02 -0.33237873876E+02 -0.98086970063E+01  0.37926616928E+02  0.10570000000E+00 0.  1.
<mgrwt>
<rscale>  0 0.91264961E+02</rscale>
<asrwt>0</asrwt>
<pdfrwt beam="2">  1        4 0.46009372E-02 0.91264961E+02</pdfrwt>
<pdfrwt beam="1">  1       -4 0.10712113E-01 0.91264961E+02</pdfrwt>
<totfact> 0.26417624E+04</totfact>
</mgrwt>
</event>
<event>
 5    1  0.1090823E+000  0.9380376E+02  0.7818608E-02  0.1293893E+00
          4   -1    0    0  501    0  0.00000000000E+00  0.00000000000E+00  0.10076350092E+03  0.10077350603E+03  0.14200000000E+01 0. -1.
         -4   -1    0    0    0  501 -0.00000000000E+00 -0.00000000000E+00 -0.21796990552E+02  0.21843195671E+02  0.14200000000E+01 0.  1.
         23    2    1    2    0    0  0.00000000000E+00  0.00000000000E+00  0.78966510364E+02  0.12261670170E+03  0.93803762056E+02 0.  0.
        -13    1    3    3    0    0 -0.28965653231E+02  0.34036599357E+02  0.20892301519E+02  0.49335571327E+02  0.10570000000E+00 0.  1.
         13    1    3    3    0    0  0.28965653231E+02 -0.34036599357E+02  0.58074208845E+02  0.73281130370E+02  0.10570000000E+00 0. -1.
<mgrwt>
<rscale>  0 0.93803762E+02</rscale>
<asrwt>0</asrwt>
<pdfrwt beam="1">  1        4 0.15506401E-01 0.93803762E+02</pdfrwt>
<pdfrwt beam="2">  1       -4 0.33577071E-02 0.93803762E+02</pdfrwt>
<totfact> 0.23263145E+04</totfact>
</mgrwt>
</event>
<event>
 5    1  0.1090823E+000  0.1027400E+03  0.7818608E-02  0.1274637E+00
          4   -1    0    0  501    0  0.00000000000E+00  0.00000000000E+00  0.30988108924E+02  0.31020626923E+02  0.14200000000E+01 0. -1.
         -4   -1    0    0    0  501 -0.00000000000E+00 -0.00000000000E+00 -0.85074688654E+02  0.85086538592E+02  0.14200000000E+01 0.  1.
         23    2    1    2    0    0  0.00000000000E+00  0.00000000000E+00 -0.54086579730E+02  0.11610716551E+03  0.10274003979E+03 0.  0.
        -13    1    3    3    0    0  0.29218319665E+02  0.33349588901E+02 -0.56359965475E+02  0.71710265407E+02  0.10570000000E+00 0.  1.
         13    1    3    3    0    0 -0.29218319665E+02 -0.33349588901E+02  0.22733857453E+01  0.44396900107E+02  0.10570000000E+00 0. -1.
<mgrwt>
<rscale>  0 0.10274004E+03</rscale>
<asrwt>0</asrwt>
<pdfrwt beam="1">  1        4 0.47708143E-02 0.10274004E+03</pdfrwt>
<pdfrwt beam="2">  1       -4 0.13091826E-01 0.10274004E+03</pdfrwt>
<totfact> 0.18406419E+04</totfact>
</mgrwt>
</event>
<event>
 5    1  0.1090823E+000  0.8245348E+02  0.7818608E-02  0.1322230E+00
          4   -1    0    0  501    0  0.00000000000E+00  0.00000000000E+00  0.13596982542E+02  0.13670930263E+02  0.14200000000E+01 0. -1.
         -4   -1    0    0    0  501 -0.00000000000E+00 -0.00000000000E+00 -0.12458455409E+03  0.12459264633E+03  0.14200000000E+01 0.  1.
         23    2    1    2    0    0  0.00000000000E+00  0.00000000000E+00 -0.11098757155E+03  0.13826357659E+03  0.82453475198E+02 0.  0.
        -13    1    3    3    0    0 -0.27624424250E+02  0.27944995290E+02 -0.34576505550E+02  0.52340973295E+02  0.10570000000E+00 0. -1.
         13    1    3    3    0    0  0.27624424250E+02 -0.27944995290E+02 -0.76411066000E+02  0.85922603293E+02  0.10570000000E+00 0.  1.
<mgrwt>
<rscale>  0 0.82453475E+02</rscale>
<asrwt>0</asrwt>
<pdfrwt beam="1">  1        4 0.20981543E-02 0.82453475E+02</pdfrwt>
<pdfrwt beam="2">  1       -4 0.19173165E-01 0.82453475E+02</pdfrwt>
<totfact> 0.31760916E+04</totfact>
</mgrwt>
</event>
<event>
 5    1  0.1090823E+000  0.9103784E+02  0.7818608E-02  0.1300358E+00
          4   -1    0    0  501    0  0.00000000000E+00  0.00000000000E+00  0.12911762331E+03  0.12912543146E+03  0.14200000000E+01 0. -1.
         -4   -1    0    0    0  501 -0.00000000000E+00 -0.00000000000E+00 -0.16007442679E+02  0.16070302459E+02  0.14200000000E+01 0.  1.
         23    2    1    2    0    0  0.00000000000E+00  0.00000000000E+00  0.11311018063E+03  0.14519573392E+03  0.91037839308E+02 0.  0.
        -13    1    3    3    0    0 -0.22394671747E+02  0.39569238153E+02  0.53091949478E+02  0.69900015754E+02  0.10570000000E+00 0. -1.
         13    1    3    3    0    0  0.22394671747E+02 -0.39569238153E+02  0.60018231157E+02  0.75295718167E+02  0.10570000000E+00 0.  1.
<mgrwt>
<rscale>  0 0.91037839E+02</rscale>
<asrwt>0</asrwt>
<pdfrwt beam="1">  1        4 0.19869685E-01 0.91037839E+02</pdfrwt>
<pdfrwt beam="2">  1       -4 0.24681196E-02 0.91037839E+02</pdfrwt>
<totfact> 0.24015219E+04</totfact>
</mgrwt>
</event>
<event>
 5    1  0.1090823E+000  0.9196227E+02  0.7818608E-02  0.1298168E+00
          4   -1    0    0  501    0  0.00000000000E+00  0.00000000000E+00  0.12066919219E+03  0.12067754697E+03  0.14200000000E+01 0. -1.
         -4   -1    0    0    0  501 -0.00000000000E+00 -0.00000000000E+00 -0.17483417046E+02  0.17540988330E+02  0.14200000000E+01 0.  1.
         23    2    1    2    0    0  0.00000000000E+00  0.00000000000E+00  0.10318577514E+03  0.13821853530E+03  0.91962271119E+02 0.  0.
        -13    1    3    3    0    0  0.43147050865E+02  0.26569904585E+01  0.28042102227E+02  0.51527645652E+02  0.10570000000E+00 0.  1.
         13    1    3    3    0    0 -0.43147050865E+02 -0.26569904585E+01  0.75143672913E+02  0.86690889648E+02  0.10570000000E+00 0. -1.
<mgrwt>
<rscale>  0 0.91962271E+02</rscale>
<asrwt>0</asrwt>
<pdfrwt beam="1">  1        4 0.18569563E-01 0.91962271E+02</pdfrwt>
<pdfrwt beam="2">  1       -4 0.26948275E-02 0.91962271E+02</pdfrwt>
<totfact> 0.23722550E+04</totfact>
</mgrwt>
</event>
<event>
 5    1  0.1090823E+000  0.8709479E+02  0.7818608E-02  0.1310044E+00
         -4   -1    0    0    0  501 -0.00000000000E+00  0.00000000000E+00  0.80114812361E+02  0.80127395812E+02  0.14200000000E+01 0. -1.
          4   -1    0    0  501    0  0.00000000000E+00 -0.00000000000E+00 -0.23634969935E+02  0.23677588641E+02  0.14200000000E+01 0.  1.
         23    2    1    2    0    0  0.00000000000E+00  0.00000000000E+00  0.56479842426E+02  0.10380498445E+03  0.87094788575E+02 0.  0.
        -13    1    3    3    0    0  0.22580856945E+02 -0.36636614193E+02  0.36166277562E+02  0.56215188384E+02  0.10570000000E+00 0.  1.
         13    1    3    3    0    0 -0.22580856945E+02  0.36636614193E+02  0.20313564864E+02  0.47589796069E+02  0.10570000000E+00 0. -1.
<mgrwt>
<rscale>  0 0.87094789E+02</rscale>
<asrwt>0</asrwt>
<pdfrwt beam="2">  1        4 0.36403956E-02 0.87094789E+02</pdfrwt>
<pdfrwt beam="1">  1       -4 0.12329602E-01 0.87094789E+02</pdfrwt>
<totfact> 0.29670152E+04</totfact>
</mgrwt>
</event>
<event>
 5    1  0.1090823E+000  0.9113297E+02  0.7818608E-02  0.1300131E+00
          4   -1    0    0  501    0  0.00000000000E+00  0.00000000000E+00  0.33864118612E+02  0.33893877462E+02  0.14200000000E+01 0.  1.
         -4   -1    0    0    0  501 -0.00000000000E+00 -0.00000000000E+00 -0.61247896310E+02  0.61264355072E+02  0.14200000000E+01 0. -1.
         23    2    1    2    0    0  0.00000000000E+00  0.00000000000E+00 -0.27383777698E+02  0.95158232534E+02  0.91132968447E+02 0.  0.
        -13    1    3    3    0    0  0.20767117986E+02 -0.35289760910E+02  0.71824309751E+01  0.41572092824E+02  0.10570000000E+00 0.  1.
         13    1    3    3    0    0 -0.20767117986E+02  0.35289760910E+02 -0.34566208673E+02  0.53586139710E+02  0.10570000000E+00 0. -1.
<mgrwt>
<rscale>  0 0.91132968E+02</rscale>
<asrwt>0</asrwt>
<pdfrwt beam="1">  1        4 0.52134196E-02 0.91132968E+02</pdfrwt>
<pdfrwt beam="2">  1       -4 0.94263085E-02 0.91132968E+02</pdfrwt>
<totfact> 0.26796757E+04</totfact>
</mgrwt>
</event>
<event>
 5    1  0.1090823E+000  0.5886376E+02  0.7818608E-02  0.1402663E+00
          4   -1    0    0  501    0  0.00000000000E+00  0.00000000000E+00  0.24819376044E+02  0.24859964345E+02  0.14200000000E+01 0.  1.
         -4   -1    0    0    0  501 -0.00000000000E+00 -0.00000000000E+00 -0.34818003546E+02  0.34846947799E+02  0.14200000000E+01 0. -1.
         23    2    1    2    0    0  0.00000000000E+00  0.00000000000E+00 -0.99986275014E+01  0.59706912144E+02  0.58863764795E+02 0.  0.
        -13    1    3    3    0    0 -0.26504945280E+02  0.75083177585E+01  0.55094699709E+01  0.28093636142E+02  0.10570000000E+00 0.  1.
         13    1    3    3    0    0  0.26504945280E+02 -0.75083177585E+01 -0.15508097472E+02  0.31613276002E+02  0.10570000000E+00 0. -1.
<mgrwt>
<rscale>  0 0.58863765E+02</rscale>
<asrwt>0</asrwt>
<pdfrwt beam="1">  1        4 0.38237142E-02 0.58863765E+02</pdfrwt>
<pdfrwt beam="2">  1       -4 0.53619646E-02 0.58863765E+02</pdfrwt>
<totfact> 0.92834376E+04</totfact>
</mgrwt>
</event>
<event>
 5    1  0.1090823E+000  0.9261636E+02  0.7818608E-02  0.1296637E+00
          4   -1    0    0  501    0  0.00000000000E+00  0.00000000000E+00  0.18684790701E+02  0.18738671339E+02  0.14200000000E+01 0. -1.
         -4   -1    0    0    0  501 -0.00000000000E+00 -0.00000000000E+00 -0.11454616789E+03  0.11455496924E+03  0.14200000000E+01 0.  1.
         23    2    1    2    0    0  0.00000000000E+00  0.00000000000E+00 -0.95861377188E+02  0.13329364058E+03  0.92616364554E+02 0.  0.
        -13    1    3    3    0    0 -0.31212838774E+02  0.14218549831E+02 -0.92708790909E+02  0.98850086231E+02  0.10570000000E+00 0.  1.
         13    1    3    3    0    0  0.31212838774E+02 -0.14218549831E+02 -0.31525862797E+01  0.34443554351E+02  0.10570000000E+00 0. -1.
<mgrwt>
<rscale>  0 0.92616365E+02</rscale>
<asrwt>0</asrwt>
<pdfrwt beam="1">  1        4 0.28794049E-02 0.92616365E+02</pdfrwt>
<pdfrwt beam="2">  1       -4 0.17627309E-01 0.92616365E+02</pdfrwt>
<totfact> 0.23522155E+04</totfact>
</mgrwt>
</event>
<event>
 5    1  0.1090823E+000  0.9117753E+02  0.7818608E-02  0.1300025E+00
          4   -1    0    0  501    0  0.00000000000E+00  0.00000000000E+00  0.16429912951E+02  0.16491162469E+02  0.14200000000E+01 0. -1.
         -4   -1    0    0    0  501 -0.00000000000E+00 -0.00000000000E+00 -0.12619646079E+03  0.12620444967E+03  0.14200000000E+01 0.  1.
         23    2    1    2    0    0  0.00000000000E+00  0.00000000000E+00 -0.10976654784E+03  0.14269561214E+03  0.91177533959E+02 0.  0.
        -13    1    3    3    0    0  0.22149287392E+02 -0.17772823122E+02 -0.11069718904E+03  0.11428185774E+03  0.10570000000E+00 0.  1.
         13    1    3    3    0    0 -0.22149287392E+02  0.17772823122E+02  0.93064120018E+00  0.28413754402E+02  0.10570000000E+00 0. -1.
<mgrwt>
<rscale>  0 0.91177534E+02</rscale>
<asrwt>0</asrwt>
<pdfrwt beam="1">  1        4 0.25330050E-02 0.91177534E+02</pdfrwt>
<pdfrwt beam="2">  1       -4 0.19420166E-01 0.91177534E+02</pdfrwt>
<totfact> 0.24044679E+04</totfact>
</mgrwt>
</event>
<event>
 5    1  0.1090823E+000  0.9418237E+02  0.7818608E-02  0.1293028E+00
          4   -1    0    0  501    0  0.00000000000E+00  0.00000000000E+00  0.54231613191E+02  0.54250200639E+02  0.14200000000E+01 0. -1.
         -4   -1    0    0    0  501 -0.00000000000E+00 -0.00000000000E+00 -0.40852969515E+02  0.40877640810E+02  0.14200000000E+01 0.  1.
         23    2    1    2    0    0  0.00000000000E+00  0.00000000000E+00  0.13378643676E+02  0.95127841448E+02  0.94182366248E+02 0.  0.
        -13    1    3    3    0    0  0.36270072562E+02 -0.15824926265E+02  0.32472466235E+02  0.51190025306E+02  0.10570000000E+00 0. -1.
         13    1    3    3    0    0 -0.36270072562E+02  0.15824926265E+02 -0.19093822559E+02  0.43937816142E+02  0.10570000000E+00 0.  1.
<mgrwt>
<rscale>  0 0.94182366E+02</rscale>
<asrwt>0</asrwt>
<pdfrwt beam="1">  1        4 0.83466526E-02 0.94182366E+02</pdfrwt>
<pdfrwt beam="2">  1       -4 0.62883999E-02 0.94182366E+02</pdfrwt>
<totfact> 0.24501353E+04</totfact>
</mgrwt>
</event>
<event>
 5    1  0.1090823E+000  0.9228402E+02  0.7818608E-02  0.1297413E+00
          4   -1    0    0  501    0  0.00000000000E+00  0.00000000000E+00  0.16621726309E+02  0.16682271593E+02  0.14200000000E+01 0. -1.
         -4   -1    0    0    0  501 -0.00000000000E+00 -0.00000000000E+00 -0.12779313650E+03  0.12780102557E+03  0.14200000000E+01 0.  1.
         23    2    1    2    0    0  0.00000000000E+00  0.00000000000E+00 -0.11117141019E+03  0.14448329716E+03  0.92284021991E+02 0.  0.
        -13    1    3    3    0    0  0.27692994840E+00 -0.32747772978E+02 -0.10647687827E+03  0.11139941698E+03  0.10570000000E+00 0.  1.
         13    1    3    3    0    0 -0.27692994840E+00  0.32747772978E+02 -0.46945319182E+01  0.33083880178E+02  0.10570000000E+00 0. -1.
<mgrwt>
<rscale>  0 0.92284022E+02</rscale>
<asrwt>0</asrwt>
<pdfrwt beam="1">  1        4 0.25624529E-02 0.92284022E+02</pdfrwt>
<pdfrwt beam="2">  1       -4 0.19665746E-01 0.92284022E+02</pdfrwt>
<totfact> 0.23185124E+04</totfact>
</mgrwt>
</event>
<event>
 5    1  0.1090823E+000  0.9100815E+02  0.7818608E-02  0.1300429E+00
         -4   -1    0    0    0  501 -0.00000000000E+00  0.00000000000E+00  0.23753272765E+02  0.23795679588E+02  0.14200000000E+01 0.  1.
          4   -1    0    0  501    0  0.00000000000E+00 -0.00000000000E+00 -0.87046069187E+02  0.87057650789E+02  0.14200000000E+01 0. -1.
         23    2    1    2    0    0  0.00000000000E+00  0.00000000000E+00 -0.63292796422E+02  0.11085333038E+03  0.91008146760E+02 0.  0.
        -13    1    3    3    0    0 -0.50376302378E+01 -0.44997579521E+02 -0.37154618666E+02  0.58571637692E+02  0.10570000000E+00 0. -1.
         13    1    3    3    0    0  0.50376302378E+01  0.44997579521E+02 -0.26138177755E+02  0.52281692685E+02  0.10570000000E+00 0.  1.
<mgrwt>
<rscale>  0 0.91008147E+02</rscale>
<asrwt>0</asrwt>
<pdfrwt beam="2">  1        4 0.13395856E-01 0.91008147E+02</pdfrwt>
<pdfrwt beam="1">  1       -4 0.36585027E-02 0.91008147E+02</pdfrwt>
<totfact> 0.25931951E+04</totfact>
</mgrwt>
</event>
<event>
 5    1  0.1090823E+000  0.9111374E+02  0.7818608E-02  0.1300177E+00
          4   -1    0    0  501    0  0.00000000000E+00  0.00000000000E+00  0.18099145020E+03  0.18099702055E+03  0.14200000000E+01 0. -1.
         -4   -1    0    0    0  501 -0.00000000000E+00 -0.00000000000E+00 -0.11417267492E+02  0.11505233461E+02  0.14200000000E+01 0.  1.
         23    2    1    2    0    0  0.00000000000E+00  0.00000000000E+00  0.16957418271E+03  0.19250225401E+03  0.91113744055E+02 0.  0.
        -13    1    3    3    0    0  0.39353862756E+02  0.12974186771E+02  0.44791462811E+02  0.61019196565E+02  0.10570000000E+00 0.  1.
         13    1    3    3    0    0 -0.39353862756E+02 -0.12974186771E+02  0.12478271990E+03  0.13148305744E+03  0.10570000000E+00 0. -1.
<mgrwt>
<rscale>  0 0.91113744E+02</rscale>
<asrwt>0</asrwt>
<pdfrwt beam="1">  1        4 0.27852033E-01 0.91113744E+02</pdfrwt>
<pdfrwt beam="2">  1       -4 0.17636979E-02 0.91113744E+02</pdfrwt>
<totfact> 0.21743883E+04</totfact>
</mgrwt>
</event>
<event>
 5    1  0.1090823E+000  0.9156681E+02  0.7818608E-02  0.1299101E+00
          4   -1    0    0  501    0  0.00000000000E+00  0.00000000000E+00  0.14132632683E+02  0.14203791978E+02  0.14200000000E+01 0.  1.
         -4   -1    0    0    0  501 -0.00000000000E+00 -0.00000000000E+00 -0.14787072128E+03  0.14787753924E+03  0.14200000000E+01 0. -1.
         23    2    1    2    0    0  0.00000000000E+00  0.00000000000E+00 -0.13373808860E+03  0.16208133122E+03  0.91566814884E+02 0.  0.
        -13    1    3    3    0    0  0.23388187382E+02 -0.12213720276E+02 -0.13309794932E+03  0.13568808923E+03  0.10570000000E+00 0. -1.
         13    1    3    3    0    0 -0.23388187382E+02  0.12213720276E+02 -0.64013927559E+00  0.26393241991E+02  0.10570000000E+00 0.  1.
<mgrwt>
<rscale>  0 0.91566815E+02</rscale>
<asrwt>0</asrwt>
<pdfrwt beam="1">  1        4 0.21802495E-02 0.91566815E+02</pdfrwt>
<pdfrwt beam="2">  1       -4 0.22755339E-01 0.91566815E+02</pdfrwt>
<totfact> 0.22817182E+04</totfact>
</mgrwt>
</event>
<event>
 5    1  0.1090823E+000  0.9252888E+02  0.7818608E-02  0.1296841E+00
          4   -1    0    0  501    0  0.00000000000E+00  0.00000000000E+00  0.25905391900E+02  0.25944281249E+02  0.14200000000E+01 0. -1.
         -4   -1    0    0    0  501 -0.00000000000E+00 -0.00000000000E+00 -0.82516683528E+02  0.82528900759E+02  0.14200000000E+01 0.  1.
         23    2    1    2    0    0  0.00000000000E+00  0.00000000000E+00 -0.56611291628E+02  0.10847318201E+03  0.92528875898E+02 0.  0.
        -13    1    3    3    0    0 -0.94172291816E+01  0.42516989875E+02 -0.46618139757E+02  0.63793736059E+02  0.10570000000E+00 0.  1.
         13    1    3    3    0    0  0.94172291816E+01 -0.42516989875E+02 -0.99931518710E+01  0.44679445949E+02  0.10570000000E+00 0. -1.
<mgrwt>
<rscale>  0 0.92528876E+02</rscale>
<asrwt>0</asrwt>
<pdfrwt beam="1">  1        4 0.39893762E-02 0.92528876E+02</pdfrwt>
<pdfrwt beam="2">  1       -4 0.12698806E-01 0.92528876E+02</pdfrwt>
<totfact> 0.24927557E+04</totfact>
</mgrwt>
</event>
<event>
 5    1  0.1090823E+000  0.9206903E+02  0.7818608E-02  0.1297917E+00
          4   -1    0    0  501    0  0.00000000000E+00  0.00000000000E+00  0.10095237150E+02  0.10194616869E+02  0.14200000000E+01 0. -1.
         -4   -1    0    0    0  501 -0.00000000000E+00 -0.00000000000E+00 -0.20878846607E+03  0.20879329483E+03  0.14200000000E+01 0.  1.
         23    2    1    2    0    0  0.00000000000E+00  0.00000000000E+00 -0.19869322892E+03  0.21898791170E+03  0.92069029807E+02 0.  0.
        -13    1    3    3    0    0 -0.21871580645E+02  0.25499455316E+02 -0.17420676973E+03  0.17741645373E+03  0.10570000000E+00 0.  1.
         13    1    3    3    0    0  0.21871580645E+02 -0.25499455316E+02 -0.24486459192E+02  0.41571457968E+02  0.10570000000E+00 0. -1.
<mgrwt>
<rscale>  0 0.92069030E+02</rscale>
<asrwt>0</asrwt>
<pdfrwt beam="1">  1        4 0.15611296E-02 0.92069030E+02</pdfrwt>
<pdfrwt beam="2">  1       -4 0.32129315E-01 0.92069030E+02</pdfrwt>
<totfact> 0.20087391E+04</totfact>
</mgrwt>
</event>
<event>
 5    1  0.1090823E+000  0.9249195E+02  0.7818608E-02  0.1296927E+00
          4   -1    0    0  501    0  0.00000000000E+00  0.00000000000E+00  0.25622520879E+03  0.25622914358E+03  0.14200000000E+01 0. -1.
         -4   -1    0    0    0  501 -0.00000000000E+00 -0.00000000000E+00 -0.82824937020E+01  0.84033387367E+01  0.14200000000E+01 0.  1.
         23    2    1    2    0    0  0.00000000000E+00  0.00000000000E+00  0.24794271509E+03  0.26463248232E+03  0.92491949551E+02 0.  0.
        -13    1    3    3    0    0 -0.30794971594E+02  0.17065777640E+02  0.38179683881E+02  0.51935252725E+02  0.10570000000E+00 0.  1.
         13    1    3    3    0    0  0.30794971594E+02 -0.17065777640E+02  0.20976303121E+03  0.21269722959E+03  0.10570000000E+00 0. -1.
<mgrwt>
<rscale>  0 0.92491950E+02</rscale>
<asrwt>0</asrwt>
<pdfrwt beam="1">  1        4 0.39428863E-01 0.92491950E+02</pdfrwt>
<pdfrwt beam="2">  1       -4 0.12838282E-02 0.92491950E+02</pdfrwt>
<totfact> 0.18245556E+04</totfact>
</mgrwt>
</event>
<event>
 5    1  0.1090823E+000  0.8933855E+02  0.7818608E-02  0.1304461E+00
         -4   -1    0    0    0  501 -0.00000000000E+00  0.00000000000E+00  0.40219103952E+02  0.40244163834E+02  0.14200000000E+01 0.  1.
          4   -1    0    0  501    0  0.00000000000E+00 -0.00000000000E+00 -0.49561167657E+02  0.49581506023E+02  0.14200000000E+01 0. -1.
         23    2    1    2    0    0  0.00000000000E+00  0.00000000000E+00 -0.93420637047E+01  0.89825669857E+02  0.89338551650E+02 0.  0.
        -13    1    3    3    0    0 -0.42472060154E+02  0.20069828183E+01 -0.18436155994E+02  0.46344437574E+02  0.10570000000E+00 0. -1.
         13    1    3    3    0    0  0.42472060154E+02 -0.20069828183E+01  0.90940922898E+01  0.43481232282E+02  0.10570000000E+00 0.  1.
<mgrwt>
<rscale>  0 0.89338552E+02</rscale>
<asrwt>0</asrwt>
<pdfrwt beam="2">  1        4 0.76282872E-02 0.89338552E+02</pdfrwt>
<pdfrwt beam="1">  1       -4 0.61910467E-02 0.89338552E+02</pdfrwt>
<totfact> 0.28640148E+04</totfact>
</mgrwt>
</event>
<event>
 5    1  0.1090823E+000  0.9226445E+02  0.7818608E-02  0.1297459E+00
         -4   -1    0    0    0  501 -0.00000000000E+00  0.00000000000E+00  0.30316458169E+02  0.30349695812E+02  0.14200000000E+01 0. -1.
          4   -1    0    0  501    0  0.00000000000E+00 -0.00000000000E+00 -0.70120022597E+02  0.70134399327E+02  0.14200000000E+01 0.  1.
         23    2    1    2    0    0  0.00000000000E+00  0.00000000000E+00 -0.39803564428E+02  0.10048409514E+03  0.92264454883E+02 0.  0.
        -13    1    3    3    0    0  0.36279957574E+02 -0.10923323016E+02 -0.48563977919E+02  0.61595660814E+02  0.10570000000E+00 0.  1.
         13    1    3    3    0    0 -0.36279957574E+02  0.10923323016E+02  0.87604134903E+01  0.38888434326E+02  0.10570000000E+00 0. -1.
<mgrwt>
<rscale>  0 0.92264455E+02</rscale>
<asrwt>0</asrwt>
<pdfrwt beam="2">  1        4 0.10791358E-01 0.92264455E+02</pdfrwt>
<pdfrwt beam="1">  1       -4 0.46677331E-02 0.92264455E+02</pdfrwt>
<totfact> 0.25590134E+04</totfact>
</mgrwt>
</event>
<event>
 5    1  0.1090823E+000  0.9034636E+02  0.7818608E-02  0.1302015E+00
          4   -1    0    0  501    0  0.00000000000E+00  0.00000000000E+00  0.17775740208E+02  0.17832367761E+02  0.14200000000E+01 0.  1.
         -4   -1    0    0    0  501 -0.00000000000E+00 -0.00000000000E+00 -0.11455421177E+03  0.11456301251E+03  0.14200000000E+01 0. -1.
         23    2    1    2    0    0  0.00000000000E+00  0.00000000000E+00 -0.96778471565E+02  0.13239538027E+03  0.90346356641E+02 0.  0.
        -13    1    3    3    0    0 -0.34426997198E+02  0.13798533808E+02 -0.10599937346E+02  0.38574441221E+02  0.10570000000E+00 0.  1.
         13    1    3    3    0    0  0.34426997198E+02 -0.13798533808E+02 -0.86178534219E+02  0.93820939048E+02  0.10570000000E+00 0. -1.
<mgrwt>
<rscale>  0 0.90346357E+02</rscale>
<asrwt>0</asrwt>
<pdfrwt beam="1">  1        4 0.27397623E-02 0.90346357E+02</pdfrwt>
<pdfrwt beam="2">  1       -4 0.17628757E-01 0.90346357E+02</pdfrwt>
<totfact> 0.25201251E+04</totfact>
</mgrwt>
</event>
<event>
 5    1  0.1090823E+000  0.9162823E+02  0.7818608E-02  0.1298956E+00
          4   -1    0    0  501    0  0.00000000000E+00  0.00000000000E+00  0.22941677107E+02  0.22985581317E+02  0.14200000000E+01 0.  1.
         -4   -1    0    0    0  501 -0.00000000000E+00 -0.00000000000E+00 -0.91353079292E+02  0.91364114926E+02  0.14200000000E+01 0. -1.
         23    2    1    2    0    0  0.00000000000E+00  0.00000000000E+00 -0.68411402185E+02  0.11434969624E+03  0.91628232995E+02 0.  0.
        -13    1    3    3    0    0 -0.26826216100E+02  0.44855824652E-01  0.12142300430E+02  0.29446468625E+02  0.10570000000E+00 0.  1.
         13    1    3    3    0    0  0.26826216100E+02 -0.44855824652E-01 -0.80553702616E+02  0.84903227618E+02  0.10570000000E+00 0. -1.
<mgrwt>
<rscale>  0 0.91628233E+02</rscale>
<asrwt>0</asrwt>
<pdfrwt beam="1">  1        4 0.35337150E-02 0.91628233E+02</pdfrwt>
<pdfrwt beam="2">  1       -4 0.14058546E-01 0.91628233E+02</pdfrwt>
<totfact> 0.25256882E+04</totfact>
</mgrwt>
</event>
<event>
 5    1  0.1090823E+000  0.9157300E+02  0.7818608E-02  0.1299087E+00
         -4   -1    0    0    0  501 -0.00000000000E+00  0.00000000000E+00  0.64597728687E+01  0.66140052552E+01  0.14200000000E+01 0. -1.
          4   -1    0    0  501    0  0.00000000000E+00 -0.00000000000E+00 -0.32054770742E+03  0.32055085265E+03  0.14200000000E+01 0.  1.
         23    2    1    2    0    0  0.00000000000E+00  0.00000000000E+00 -0.31408793455E+03  0.32716485790E+03  0.91572996102E+02 0.  0.
        -13    1    3    3    0    0  0.36398466766E+02 -0.25071538713E+02 -0.11432613359E+03  0.12257204588E+03  0.10570000000E+00 0.  1.
         13    1    3    3    0    0 -0.36398466766E+02  0.25071538713E+02 -0.19976180096E+03  0.20459281203E+03  0.10570000000E+00 0. -1.
<mgrwt>
<rscale>  0 0.91572996E+02</rscale>
<asrwt>0</asrwt>
<pdfrwt beam="2">  1        4 0.49327126E-01 0.91572996E+02</pdfrwt>
<pdfrwt beam="1">  1       -4 0.10059174E-02 0.91572996E+02</pdfrwt>
<totfact> 0.16827324E+04</totfact>
</mgrwt>
</event>
<event>
 5    1  0.1090823E+000  0.9192013E+02  0.7818608E-02  0.1298267E+00
          4   -1    0    0  501    0  0.00000000000E+00  0.00000000000E+00  0.10227237759E+02  0.10325347073E+02  0.14200000000E+01 0. -1.
         -4   -1    0    0    0  501 -0.00000000000E+00 -0.00000000000E+00 -0.20545290526E+03  0.20545781241E+03  0.14200000000E+01 0.  1.
         23    2    1    2    0    0  0.00000000000E+00  0.00000000000E+00 -0.19522566750E+03  0.21578315948E+03  0.91920131987E+02 0.  0.
        -13    1    3    3    0    0 -0.15142765076E+02 -0.33321727556E+02 -0.32359077477E+02  0.48854497533E+02  0.10570000000E+00 0. -1.
         13    1    3    3    0    0  0.15142765076E+02  0.33321727556E+02 -0.16286659002E+03  0.16692866195E+03  0.10570000000E+00 0.  1.
<mgrwt>
<rscale>  0 0.91920132E+02</rscale>
<asrwt>0</asrwt>
<pdfrwt beam="1">  1        4 0.15813457E-02 0.91920132E+02</pdfrwt>
<pdfrwt beam="2">  1       -4 0.31616060E-01 0.91920132E+02</pdfrwt>
<totfact> 0.20298046E+04</totfact>
</mgrwt>
</event>
<event>
 5    1  0.1090823E+000  0.8251351E+02  0.7818608E-02  0.1322066E+00
          4   -1    0    0  501    0  0.00000000000E+00  0.00000000000E+00  0.15614387057E+03  0.15615032730E+03  0.14200000000E+01 0. -1.
         -4   -1    0    0    0  501 -0.00000000000E+00 -0.00000000000E+00 -0.10848015009E+02  0.10940558927E+02  0.14200000000E+01 0.  1.
         23    2    1    2    0    0  0.00000000000E+00  0.00000000000E+00  0.14529585556E+03  0.16709088623E+03  0.82513505669E+02 0.  0.
        -13    1    3    3    0    0 -0.27961275208E+02 -0.25891726138E+02  0.40636450648E+02  0.55709484717E+02  0.10570000000E+00 0.  1.
         13    1    3    3    0    0  0.27961275208E+02  0.25891726138E+02  0.10465940491E+03  0.11138140151E+03  0.10570000000E+00 0. -1.
<mgrwt>
<rscale>  0 0.82513506E+02</rscale>
<asrwt>0</asrwt>
<pdfrwt beam="1">  1        4 0.24029750E-01 0.82513506E+02</pdfrwt>
<pdfrwt beam="2">  1       -4 0.16765408E-02 0.82513506E+02</pdfrwt>
<totfact> 0.29802017E+04</totfact>
</mgrwt>
</event>
<event>
 5    1  0.1090823E+000  0.9091262E+02  0.7818608E-02  0.1300657E+00
         -4   -1    0    0    0  501 -0.00000000000E+00  0.00000000000E+00  0.33622239438E+02  0.33652212183E+02  0.14200000000E+01 0.  1.
          4   -1    0    0  501    0  0.00000000000E+00 -0.00000000000E+00 -0.61390071148E+02  0.61406491803E+02  0.14200000000E+01 0. -1.
         23    2    1    2    0    0  0.00000000000E+00  0.00000000000E+00 -0.27767831710E+02  0.95058703986E+02  0.90912621377E+02 0.  0.
        -13    1    3    3    0    0  0.26719901228E+02 -0.40702134968E+01 -0.52098534293E+02  0.58692318130E+02  0.10570000000E+00 0. -1.
         13    1    3    3    0    0 -0.26719901228E+02  0.40702134968E+01  0.24330702583E+02  0.36366385855E+02  0.10570000000E+00 0.  1.
<mgrwt>
<rscale>  0 0.90912621E+02</rscale>
<asrwt>0</asrwt>
<pdfrwt beam="2">  1        4 0.94481950E-02 0.90912621E+02</pdfrwt>
<pdfrwt beam="1">  1       -4 0.51762210E-02 0.90912621E+02</pdfrwt>
<totfact> 0.26979560E+04</totfact>
</mgrwt>
</event>
<event>
 5    1  0.1090823E+000  0.9163896E+02  0.7818608E-02  0.1298931E+00
         -4   -1    0    0    0  501 -0.00000000000E+00  0.00000000000E+00  0.78779830383E+01  0.80049370236E+01  0.14200000000E+01 0.  1.
          4   -1    0    0  501    0  0.00000000000E+00 -0.00000000000E+00 -0.26423369987E+03  0.26423751540E+03  0.14200000000E+01 0. -1.
         23    2    1    2    0    0  0.00000000000E+00  0.00000000000E+00 -0.25635571683E+03  0.27224245243E+03  0.91638961973E+02 0.  0.
        -13    1    3    3    0    0  0.24500112932E+02  0.33569319073E+02 -0.18549681294E+03  0.19009532740E+03  0.10570000000E+00 0. -1.
         13    1    3    3    0    0 -0.24500112932E+02 -0.33569319073E+02 -0.70858903891E+02  0.82147125025E+02  0.10570000000E+00 0.  1.
<mgrwt>
<rscale>  0 0.91638962E+02</rscale>
<asrwt>0</asrwt>
<pdfrwt beam="2">  1        4 0.40661391E-01 0.91638962E+02</pdfrwt>
<pdfrwt beam="1">  1       -4 0.12220568E-02 0.91638962E+02</pdfrwt>
<totfact> 0.18451563E+04</totfact>
</mgrwt>
</event>
<event>
 5    1  0.1090823E+000  0.9237840E+02  0.7818608E-02  0.1297192E+00
          4   -1    0    0  501    0  0.00000000000E+00  0.00000000000E+00  0.82156306148E+01  0.83374448364E+01  0.14200000000E+01 0. -1.
         -4   -1    0    0    0  501 -0.00000000000E+00 -0.00000000000E+00 -0.25764612396E+03  0.25765003705E+03  0.14200000000E+01 0.  1.
         23    2    1    2    0    0  0.00000000000E+00  0.00000000000E+00 -0.24943049335E+03  0.26598748189E+03  0.92378403914E+02 0.  0.
        -13    1    3    3    0    0 -0.10498777637E+02  0.41771757131E+02 -0.17275143655E+03  0.17803981023E+03  0.10570000000E+00 0.  1.
         13    1    3    3    0    0  0.10498777637E+02 -0.41771757131E+02 -0.76679056804E+02  0.87947671660E+02  0.10570000000E+00 0. -1.
<mgrwt>
<rscale>  0 0.92378404E+02</rscale>
<asrwt>0</asrwt>
<pdfrwt beam="1">  1        4 0.12736147E-02 0.92378404E+02</pdfrwt>
<pdfrwt beam="2">  1       -4 0.39647530E-01 0.92378404E+02</pdfrwt>
<totfact> 0.18261393E+04</totfact>
</mgrwt>
</event>
<event>
 5    1  0.1090823E+000  0.8932858E+02  0.7818608E-02  0.1304486E+00
          4   -1    0    0  501    0  0.00000000000E+00  0.00000000000E+00  0.14438926904E+02  0.14508584016E+02  0.14200000000E+01 0. -1.
         -4   -1    0    0    0  501 -0.00000000000E+00 -0.00000000000E+00 -0.13775538342E+03  0.13776270200E+03  0.14200000000E+01 0.  1.
         23    2    1    2    0    0  0.00000000000E+00  0.00000000000E+00 -0.12331645652E+03  0.15227128602E+03  0.89328584990E+02 0.  0.
        -13    1    3    3    0    0 -0.39737195685E+02  0.81458677866E+01 -0.29791045154E+02  0.50328097786E+02  0.10570000000E+00 0. -1.
         13    1    3    3    0    0  0.39737195685E+02 -0.81458677866E+01 -0.93525411365E+02  0.10194318823E+03  0.10570000000E+00 0.  1.
<mgrwt>
<rscale>  0 0.89328585E+02</rscale>
<asrwt>0</asrwt>
<pdfrwt beam="1">  1        4 0.22272947E-02 0.89328585E+02</pdfrwt>
<pdfrwt beam="2">  1       -4 0.21199056E-01 0.89328585E+02</pdfrwt>
<totfact> 0.24889787E+04</totfact>
</mgrwt>
</event>
<event>
 5    1  0.1090823E+000  0.9310096E+02  0.7818608E-02  0.1295511E+00
         -4   -1    0    0    0  501 -0.00000000000E+00  0.00000000000E+00  0.66693919868E+02  0.66709034976E+02  0.14200000000E+01 0.  1.
          4   -1    0    0  501    0  0.00000000000E+00 -0.00000000000E+00 -0.32456604669E+02  0.32487652833E+02  0.14200000000E+01 0. -1.
         23    2    1    2    0    0  0.00000000000E+00  0.00000000000E+00  0.34237315199E+02  0.99196687809E+02  0.93100961973E+02 0.  0.
        -13    1    3    3    0    0  0.11942770060E+02 -0.44312112938E+02  0.25422729744E+02  0.52464459112E+02  0.10570000000E+00 0. -1.
         13    1    3    3    0    0 -0.11942770060E+02  0.44312112938E+02  0.88145854549E+01  0.46732228697E+02  0.10570000000E+00 0.  1.
<mgrwt>
<rscale>  0 0.93100962E+02</rscale>
<asrwt>0</asrwt>
<pdfrwt beam="2">  1        4 0.49968748E-02 0.93100962E+02</pdfrwt>
<pdfrwt beam="1">  1       -4 0.10264154E-01 0.93100962E+02</pdfrwt>
<totfact> 0.25044376E+04</totfact>
</mgrwt>
</event>
<event>
 5    1  0.1090823E+000  0.7537590E+02  0.7818608E-02  0.1342711E+00
          4   -1    0    0  501    0  0.00000000000E+00  0.00000000000E+00  0.50930266934E+02  0.50950058783E+02  0.14200000000E+01 0.  1.
         -4   -1    0    0    0  501 -0.00000000000E+00 -0.00000000000E+00 -0.27845445170E+02  0.27881628660E+02  0.14200000000E+01 0. -1.
         23    2    1    2    0    0  0.00000000000E+00  0.00000000000E+00  0.23084821764E+02  0.78831687443E+02  0.75375897668E+02 0.  0.
        -13    1    3    3    0    0  0.12519106743E+02  0.17295752312E+02  0.44022653832E+02  0.48927255232E+02  0.10570000000E+00 0.  1.
         13    1    3    3    0    0 -0.12519106743E+02 -0.17295752312E+02 -0.20937832068E+02  0.29904432211E+02  0.10570000000E+00 0. -1.
<mgrwt>
<rscale>  0 0.75375898E+02</rscale>
<asrwt>0</asrwt>
<pdfrwt beam="1">  1        4 0.78397315E-02 0.75375898E+02</pdfrwt>
<pdfrwt beam="2">  1       -4 0.42882204E-02 0.75375898E+02</pdfrwt>
<totfact> 0.46380230E+04</totfact>
</mgrwt>
</event>
<event>
 5    1  0.1090823E+000  0.9005120E+02  0.7818608E-02  0.1302728E+00
         -4   -1    0    0    0  501 -0.00000000000E+00  0.00000000000E+00  0.12094518379E+03  0.12095351951E+03  0.14200000000E+01 0.  1.
          4   -1    0    0  501    0  0.00000000000E+00 -0.00000000000E+00 -0.16723172512E+02  0.16783351836E+02  0.14200000000E+01 0. -1.
         23    2    1    2    0    0  0.00000000000E+00  0.00000000000E+00  0.10422201128E+03  0.13773687135E+03  0.90051197069E+02 0.  0.
        -13    1    3    3    0    0 -0.27580319384E+02  0.11198958754E+02  0.10378143977E+03  0.10796614797E+03  0.10570000000E+00 0.  1.
         13    1    3    3    0    0  0.27580319384E+02 -0.11198958754E+02  0.44057150733E+00  0.29770723375E+02  0.10570000000E+00 0. -1.
<mgrwt>
<rscale>  0 0.90051197E+02</rscale>
<asrwt>0</asrwt>
<pdfrwt beam="2">  1        4 0.25780662E-02 0.90051197E+02</pdfrwt>
<pdfrwt beam="1">  1       -4 0.18612222E-01 0.90051197E+02</pdfrwt>
<totfact> 0.25129342E+04</totfact>
</mgrwt>
</event>
<event>
 5    1  0.1090823E+000  0.9074880E+02  0.7818608E-02  0.1301048E+00
         -4   -1    0    0    0  501 -0.00000000000E+00  0.00000000000E+00  0.16435070445E+02  0.16496300814E+02  0.14200000000E+01 0.  1.
          4   -1    0    0  501    0  0.00000000000E+00 -0.00000000000E+00 -0.12497270934E+03  0.12498077644E+03  0.14200000000E+01 0. -1.
         23    2    1    2    0    0  0.00000000000E+00  0.00000000000E+00 -0.10853763889E+03  0.14147707725E+03  0.90748797963E+02 0.  0.
        -13    1    3    3    0    0 -0.67007338177E-01 -0.35995654148E+02 -0.11201742005E+02  0.37698565012E+02  0.10570000000E+00 0.  1.
         13    1    3    3    0    0  0.67007338177E-01  0.35995654148E+02 -0.97335896888E+02  0.10377851224E+03  0.10570000000E+00 0. -1.
<mgrwt>
<rscale>  0 0.90748798E+02</rscale>
<asrwt>0</asrwt>
<pdfrwt beam="2">  1        4 0.19231901E-01 0.90748798E+02</pdfrwt>
<pdfrwt beam="1">  1       -4 0.25338030E-02 0.90748798E+02</pdfrwt>
<totfact> 0.24415502E+04</totfact>
</mgrwt>
</event>
<event>
 5    1  0.1090823E+000  0.9157166E+02  0.7818608E-02  0.1299090E+00
         -4   -1    0    0    0  501 -0.00000000000E+00  0.00000000000E+00  0.14175272867E+03  0.14175984088E+03  0.14200000000E+01 0.  1.
          4   -1    0    0  501    0  0.00000000000E+00 -0.00000000000E+00 -0.14747137815E+02  0.14815345887E+02  0.14200000000E+01 0. -1.
         23    2    1    2    0    0  0.00000000000E+00  0.00000000000E+00  0.12700559085E+03  0.15657518676E+03  0.91571660472E+02 0.  0.
        -13    1    3    3    0    0  0.41129174159E+02  0.19426748658E+02  0.54565000381E+02  0.71037722159E+02  0.10570000000E+00 0. -1.
         13    1    3    3    0    0 -0.41129174159E+02 -0.19426748658E+02  0.72440590472E+02  0.85537464604E+02  0.10570000000E+00 0.  1.
<mgrwt>
<rscale>  0 0.91571660E+02</rscale>
<asrwt>0</asrwt>
<pdfrwt beam="2">  1        4 0.22745843E-02 0.91571660E+02</pdfrwt>
<pdfrwt beam="1">  1       -4 0.21813906E-01 0.91571660E+02</pdfrwt>
<totfact> 0.23077091E+04</totfact>
</mgrwt>
</event>
<event>
 5    1  0.1090823E+000  0.9142734E+02  0.7818608E-02  0.1299432E+00
         -4   -1    0    0    0  501 -0.00000000000E+00  0.00000000000E+00  0.10753417612E+02  0.10846768659E+02  0.14200000000E+01 0.  1.
          4   -1    0    0  501    0  0.00000000000E+00 -0.00000000000E+00 -0.19339678497E+03  0.19340199801E+03  0.14200000000E+01 0. -1.
         23    2    1    2    0    0  0.00000000000E+00  0.00000000000E+00 -0.18264336735E+03  0.20424876667E+03  0.91427343003E+02 0.  0.
        -13    1    3    3    0    0  0.32007253110E+02  0.70822074511E+01 -0.16249860283E+03  0.16577222025E+03  0.10570000000E+00 0. -1.
         13    1    3    3    0    0 -0.32007253110E+02 -0.70822074511E+01 -0.20144764525E+02  0.38476546418E+02  0.10570000000E+00 0.  1.
<mgrwt>
<rscale>  0 0.91427343E+02</rscale>
<asrwt>0</asrwt>
<pdfrwt beam="2">  1        4 0.29760931E-01 0.91427343E+02</pdfrwt>
<pdfrwt beam="1">  1       -4 0.16619539E-02 0.91427343E+02</pdfrwt>
<totfact> 0.21054546E+04</totfact>
</mgrwt>
</event>
<event>
 5    1  0.1090823E+000  0.9098436E+02  0.7818608E-02  0.1300485E+00
         -4   -1    0    0    0  501 -0.00000000000E+00  0.00000000000E+00  0.14434797446E+03  0.14435495880E+03  0.14200000000E+01 0.  1.
          4   -1    0    0  501    0  0.00000000000E+00 -0.00000000000E+00 -0.14294637887E+02  0.14364994686E+02  0.14200000000E+01 0. -1.
         23    2    1    2    0    0  0.00000000000E+00  0.00000000000E+00  0.13005333657E+03  0.15871995349E+03  0.90984357345E+02 0.  0.
        -13    1    3    3    0    0  0.28429142677E+02  0.34531135736E+02  0.79508088289E+02  0.91225888675E+02  0.10570000000E+00 0.  1.
         13    1    3    3    0    0 -0.28429142677E+02 -0.34531135736E+02  0.50545248284E+02  0.67494064814E+02  0.10570000000E+00 0. -1.
<mgrwt>
<rscale>  0 0.90984357E+02</rscale>
<asrwt>0</asrwt>
<pdfrwt beam="2">  1        4 0.22051244E-02 0.90984357E+02</pdfrwt>
<pdfrwt beam="1">  1       -4 0.22213329E-01 0.90984357E+02</pdfrwt>
<totfact> 0.23375464E+04</totfact>
</mgrwt>
</event>
<event>
 5    1  0.1090823E+000  0.8130709E+02  0.7818608E-02  0.1325382E+00
         -4   -1    0    0    0  501 -0.00000000000E+00  0.00000000000E+00  0.34120048377E+03  0.34120343862E+03  0.14200000000E+01 0. -1.
          4   -1    0    0  501    0  0.00000000000E+00 -0.00000000000E+00 -0.47367005010E+01  0.49449703372E+01  0.14200000000E+01 0.  1.
         23    2    1    2    0    0  0.00000000000E+00  0.00000000000E+00  0.33646378327E+03  0.34614840896E+03  0.81307094221E+02 0.  0.
        -13    1    3    3    0    0 -0.18500553035E+02 -0.36129638149E+02  0.15863784484E+03  0.16374858229E+03  0.10570000000E+00 0.  1.
         13    1    3    3    0    0  0.18500553035E+02  0.36129638149E+02  0.17782593844E+03  0.18239982667E+03  0.10570000000E+00 0. -1.
<mgrwt>
<rscale>  0 0.81307094E+02</rscale>
<asrwt>0</asrwt>
<pdfrwt beam="2">  1        4 0.74497094E-03 0.81307094E+02</pdfrwt>
<pdfrwt beam="1">  1       -4 0.52508649E-01 0.81307094E+02</pdfrwt>
<totfact> 0.22296842E+04</totfact>
</mgrwt>
</event>
<event>
 5    1  0.1090823E+000  0.9797682E+02  0.7818608E-02  0.1284609E+00
         -4   -1    0    0    0  501 -0.00000000000E+00  0.00000000000E+00  0.24097084153E+03  0.24097502540E+03  0.14200000000E+01 0.  1.
          4   -1    0    0  501    0  0.00000000000E+00 -0.00000000000E+00 -0.99042388075E+01  0.10005515797E+02  0.14200000000E+01 0. -1.
         23    2    1    2    0    0  0.00000000000E+00  0.00000000000E+00  0.23106660272E+03  0.25098054120E+03  0.97976819538E+02 0.  0.
        -13    1    3    3    0    0  0.46665688792E+02 -0.14072765934E+02  0.12811502619E+03  0.13707370412E+03  0.10570000000E+00 0.  1.
         13    1    3    3    0    0 -0.46665688792E+02  0.14072765934E+02  0.10295157653E+03  0.11390683708E+03  0.10570000000E+00 0. -1.
<mgrwt>
<rscale>  0 0.97976820E+02</rscale>
<asrwt>0</asrwt>
<pdfrwt beam="2">  1        4 0.15318414E-02 0.97976820E+02</pdfrwt>
<pdfrwt beam="1">  1       -4 0.37080549E-01 0.97976820E+02</pdfrwt>
<totfact> 0.16019125E+04</totfact>
</mgrwt>
</event>
<event>
 5    1  0.1090823E+000  0.9236724E+02  0.7818608E-02  0.1297218E+00
         -4   -1    0    0    0  501 -0.00000000000E+00  0.00000000000E+00  0.10768242480E+03  0.10769178711E+03  0.14200000000E+01 0.  1.
          4   -1    0    0  501    0  0.00000000000E+00 -0.00000000000E+00 -0.19771877154E+02  0.19822803187E+02  0.14200000000E+01 0. -1.
         23    2    1    2    0    0  0.00000000000E+00  0.00000000000E+00  0.87910547641E+02  0.12751459029E+03  0.92367236350E+02 0.  0.
        -13    1    3    3    0    0 -0.29020747215E+01 -0.43373108498E+02  0.22423322753E+02  0.48912832204E+02  0.10570000000E+00 0. -1.
         13    1    3    3    0    0  0.29020747215E+01  0.43373108498E+02  0.65487224888E+02  0.78601758088E+02  0.10570000000E+00 0.  1.
<mgrwt>
<rscale>  0 0.92367236E+02</rscale>
<asrwt>0</asrwt>
<pdfrwt beam="2">  1        4 0.30464649E-02 0.92367236E+02</pdfrwt>
<pdfrwt beam="1">  1       -4 0.16571164E-01 0.92367236E+02</pdfrwt>
<totfact> 0.23996174E+04</totfact>
</mgrwt>
</event>
<event>
 5    1  0.1090823E+000  0.8842125E+02  0.7818608E-02  0.1306721E+00
         -4   -1    0    0    0  501 -0.00000000000E+00  0.00000000000E+00  0.21506752717E+02  0.21553580037E+02  0.14200000000E+01 0.  1.
          4   -1    0    0  501    0  0.00000000000E+00 -0.00000000000E+00 -0.90730911356E+02  0.90742022654E+02  0.14200000000E+01 0. -1.
         23    2    1    2    0    0  0.00000000000E+00  0.00000000000E+00 -0.69224158639E+02  0.11229560269E+03  0.88421254485E+02 0.  0.
        -13    1    3    3    0    0 -0.34318168126E+02  0.16080547805E+02 -0.57003031544E+01  0.38325256813E+02  0.10570000000E+00 0.  1.
         13    1    3    3    0    0  0.34318168126E+02 -0.16080547805E+02 -0.63523855484E+02  0.73970345878E+02  0.10570000000E+00 0. -1.
<mgrwt>
<rscale>  0 0.88421254E+02</rscale>
<asrwt>0</asrwt>
<pdfrwt beam="2">  1        4 0.13963058E-01 0.88421254E+02</pdfrwt>
<pdfrwt beam="1">  1       -4 0.33131881E-02 0.88421254E+02</pdfrwt>
<totfact> 0.27933815E+04</totfact>
</mgrwt>
</event>
<event>
 5    1  0.1090823E+000  0.9023840E+02  0.7818608E-02  0.1302275E+00
         -4   -1    0    0    0  501 -0.00000000000E+00  0.00000000000E+00  0.50206664661E+03  0.50206865470E+03  0.14200000000E+01 0.  1.
          4   -1    0    0  501    0  0.00000000000E+00 -0.00000000000E+00 -0.39283223004E+01  0.41770942167E+01  0.14200000000E+01 0. -1.
         23    2    1    2    0    0  0.00000000000E+00  0.00000000000E+00  0.49813832431E+03  0.50624574892E+03  0.90238396241E+02 0.  0.
        -13    1    3    3    0    0 -0.34214512184E+02 -0.29282361298E+02  0.26457712554E+03  0.26838248091E+03  0.10570000000E+00 0.  1.
         13    1    3    3    0    0  0.34214512184E+02  0.29282361298E+02  0.23356119877E+03  0.23786326801E+03  0.10570000000E+00 0. -1.
<mgrwt>
<rscale>  0 0.90238396E+02</rscale>
<asrwt>0</asrwt>
<pdfrwt beam="2">  1        4 0.62364793E-03 0.90238396E+02</pdfrwt>
<pdfrwt beam="1">  1       -4 0.77260328E-01 0.90238396E+02</pdfrwt>
<totfact> 0.13313165E+04</totfact>
</mgrwt>
</event>
<event>
 5    1  0.1090823E+000  0.9356443E+02  0.7818608E-02  0.1294442E+00
          4   -1    0    0  501    0  0.00000000000E+00  0.00000000000E+00  0.79849959015E+02  0.79862584198E+02  0.14200000000E+01 0. -1.
         -4   -1    0    0    0  501 -0.00000000000E+00 -0.00000000000E+00 -0.27375404016E+02  0.27412207956E+02  0.14200000000E+01 0.  1.
         23    2    1    2    0    0  0.00000000000E+00  0.00000000000E+00  0.52474555000E+02  0.10727479215E+03  0.93564427585E+02 0.  0.
        -13    1    3    3    0    0 -0.30493458932E+02 -0.20399459996E+02  0.59517888527E+02  0.69916945249E+02  0.10570000000E+00 0.  1.
         13    1    3    3    0    0  0.30493458932E+02  0.20399459996E+02 -0.70433335269E+01  0.37357846905E+02  0.10570000000E+00 0. -1.
<mgrwt>
<rscale>  0 0.93564428E+02</rscale>
<asrwt>0</asrwt>
<pdfrwt beam="1">  1        4 0.12288411E-01 0.93564428E+02</pdfrwt>
<pdfrwt beam="2">  1       -4 0.42154028E-02 0.93564428E+02</pdfrwt>
<totfact> 0.24251118E+04</totfact>
</mgrwt>
</event>
<event>
 5    1  0.1090823E+000  0.9056371E+02  0.7818608E-02  0.1301492E+00
         -4   -1    0    0    0  501 -0.00000000000E+00  0.00000000000E+00  0.38528205876E+02  0.38554364837E+02  0.14200000000E+01 0.  1.
          4   -1    0    0  501    0  0.00000000000E+00 -0.00000000000E+00 -0.53165653928E+02  0.53184613918E+02  0.14200000000E+01 0. -1.
         23    2    1    2    0    0  0.00000000000E+00  0.00000000000E+00 -0.14637448052E+02  0.91738978755E+02  0.90563708722E+02 0.  0.
        -13    1    3    3    0    0  0.44234802043E+02  0.26376788681E+01 -0.16754111178E+02  0.47374956205E+02  0.10570000000E+00 0. -1.
         13    1    3    3    0    0 -0.44234802043E+02 -0.26376788681E+01  0.21166631260E+01  0.44364022550E+02  0.10570000000E+00 0.  1.
<mgrwt>
<rscale>  0 0.90563709E+02</rscale>
<asrwt>0</asrwt>
<pdfrwt beam="2">  1        4 0.81828021E-02 0.90563709E+02</pdfrwt>
<pdfrwt beam="1">  1       -4 0.59308869E-02 0.90563709E+02</pdfrwt>
<totfact> 0.27478180E+04</totfact>
</mgrwt>
</event>
<event>
 5    1  0.1090823E+000  0.9092385E+02  0.7818608E-02  0.1300630E+00
          4   -1    0    0  501    0  0.00000000000E+00  0.00000000000E+00  0.96496281796E+02  0.96506729302E+02  0.14200000000E+01 0. -1.
         -4   -1    0    0    0  501 -0.00000000000E+00 -0.00000000000E+00 -0.21383145404E+02  0.21430242821E+02  0.14200000000E+01 0.  1.
         23    2    1    2    0    0  0.00000000000E+00  0.00000000000E+00  0.75113136392E+02  0.11793697212E+03  0.90923847999E+02 0.  0.
        -13    1    3    3    0    0 -0.19837305375E+02 -0.40411147927E+02  0.29332958227E+02  0.53730933103E+02  0.10570000000E+00 0.  1.
         13    1    3    3    0    0  0.19837305375E+02  0.40411147927E+02  0.45780178165E+02  0.64206039020E+02  0.10570000000E+00 0. -1.
<mgrwt>
<rscale>  0 0.90923848E+02</rscale>
<asrwt>0</asrwt>
<pdfrwt beam="1">  1        4 0.14850009E-01 0.90923848E+02</pdfrwt>
<pdfrwt beam="2">  1       -4 0.32941411E-02 0.90923848E+02</pdfrwt>
<totfact> 0.25581607E+04</totfact>
</mgrwt>
</event>
<event>
 5    1  0.1090823E+000  0.8932472E+02  0.7818608E-02  0.1304495E+00
          4   -1    0    0  501    0  0.00000000000E+00  0.00000000000E+00  0.18146016121E+03  0.18146571716E+03  0.14200000000E+01 0. -1.
         -4   -1    0    0    0  501 -0.00000000000E+00 -0.00000000000E+00 -0.10941034036E+02  0.11032797731E+02  0.14200000000E+01 0.  1.
         23    2    1    2    0    0  0.00000000000E+00  0.00000000000E+00  0.17051912717E+03  0.19249851489E+03  0.89324719449E+02 0.  0.
        -13    1    3    3    0    0  0.92215999210E+01 -0.42525594387E+02  0.63574752561E+02  0.77040407701E+02  0.10570000000E+00 0.  1.
         13    1    3    3    0    0 -0.92215999210E+01  0.42525594387E+02  0.10694437461E+03  0.11545810719E+03  0.10570000000E+00 0. -1.
<mgrwt>
<rscale>  0 0.89324719E+02</rscale>
<asrwt>0</asrwt>
<pdfrwt beam="1">  1        4 0.27924435E-01 0.89324719E+02</pdfrwt>
<pdfrwt beam="2">  1       -4 0.16907221E-02 0.89324719E+02</pdfrwt>
<totfact> 0.22926389E+04</totfact>
</mgrwt>
</event>
<event>
 5    1  0.1090823E+000  0.9291784E+02  0.7818608E-02  0.1295936E+00
         -4   -1    0    0    0  501 -0.00000000000E+00  0.00000000000E+00  0.34993265347E+03  0.34993553458E+03  0.14200000000E+01 0.  1.
          4   -1    0    0  501    0  0.00000000000E+00 -0.00000000000E+00 -0.60834610534E+01  0.62469911468E+01  0.14200000000E+01 0. -1.
         23    2    1    2    0    0  0.00000000000E+00  0.00000000000E+00  0.34384919241E+03  0.35618252573E+03  0.92917837417E+02 0.  0.
        -13    1    3    3    0    0 -0.21295340828E+02  0.41287205480E+02  0.16984230376E+03  0.17608107280E+03  0.10570000000E+00 0.  1.
         13    1    3    3    0    0  0.21295340828E+02 -0.41287205480E+02  0.17400688865E+03  0.18010145293E+03  0.10570000000E+00 0. -1.
<mgrwt>
<rscale>  0 0.92917837E+02</rscale>
<asrwt>0</asrwt>
<pdfrwt beam="2">  1        4 0.94871801E-03 0.92917837E+02</pdfrwt>
<pdfrwt beam="1">  1       -4 0.53848590E-01 0.92917837E+02</pdfrwt>
<totfact> 0.15437579E+04</totfact>
</mgrwt>
</event>
<event>
 5    1  0.1090823E+000  0.9025018E+02  0.7818608E-02  0.1302247E+00
         -4   -1    0    0    0  501 -0.00000000000E+00  0.00000000000E+00  0.72997192495E+02  0.73011002679E+02  0.14200000000E+01 0.  1.
          4   -1    0    0  501    0  0.00000000000E+00 -0.00000000000E+00 -0.27860701435E+02  0.27896865137E+02  0.14200000000E+01 0. -1.
         23    2    1    2    0    0  0.00000000000E+00  0.00000000000E+00  0.45136491060E+02  0.10090786782E+03  0.90250179844E+02 0.  0.
        -13    1    3    3    0    0  0.18454034257E+02  0.39066119555E+02  0.37127032729E+02  0.56966137391E+02  0.10570000000E+00 0.  1.
         13    1    3    3    0    0 -0.18454034257E+02 -0.39066119555E+02  0.80094583307E+01  0.43941730425E+02  0.10570000000E+00 0. -1.
<mgrwt>
<rscale>  0 0.90250180E+02</rscale>
<asrwt>0</asrwt>
<pdfrwt beam="2">  1        4 0.42901059E-02 0.90250180E+02</pdfrwt>
<pdfrwt beam="1">  1       -4 0.11234181E-01 0.90250180E+02</pdfrwt>
<totfact> 0.27141705E+04</totfact>
</mgrwt>
</event>
<event>
 5    1  0.1090823E+000  0.9350191E+02  0.7818608E-02  0.1294586E+00
         -4   -1    0    0    0  501 -0.00000000000E+00  0.00000000000E+00  0.58907832910E+02  0.58924945296E+02  0.14200000000E+01 0.  1.
          4   -1    0    0  501    0  0.00000000000E+00 -0.00000000000E+00 -0.37066811759E+02  0.37094001320E+02  0.14200000000E+01 0. -1.
         23    2    1    2    0    0  0.00000000000E+00  0.00000000000E+00  0.21841021152E+02  0.96018946617E+02  0.93501913908E+02 0.  0.
        -13    1    3    3    0    0 -0.37292351795E+02 -0.16306872060E+02 -0.12698801166E+02  0.42636888985E+02  0.10570000000E+00 0.  1.
         13    1    3    3    0    0  0.37292351795E+02  0.16306872060E+02  0.34539822317E+02  0.53382057632E+02  0.10570000000E+00 0. -1.
<mgrwt>
<rscale>  0 0.93501914E+02</rscale>
<asrwt>0</asrwt>
<pdfrwt beam="2">  1        4 0.57059943E-02 0.93501914E+02</pdfrwt>
<pdfrwt beam="1">  1       -4 0.90661513E-02 0.93501914E+02</pdfrwt>
<totfact> 0.24938473E+04</totfact>
</mgrwt>
</event>
<event>
 5    1  0.1090823E+000  0.9104045E+02  0.7818608E-02  0.1300351E+00
          4   -1    0    0  501    0  0.00000000000E+00  0.00000000000E+00  0.13715520141E+03  0.13716255201E+03  0.14200000000E+01 0. -1.
         -4   -1    0    0    0  501 -0.00000000000E+00 -0.00000000000E+00 -0.15066494994E+02  0.15133263740E+02  0.14200000000E+01 0.  1.
         23    2    1    2    0    0  0.00000000000E+00  0.00000000000E+00  0.12208870642E+03  0.15229581575E+03  0.91040448487E+02 0.  0.
        -13    1    3    3    0    0 -0.41119045048E+02 -0.21860150928E+01  0.28584200554E+02  0.50126063295E+02  0.10570000000E+00 0.  1.
         13    1    3    3    0    0  0.41119045048E+02  0.21860150928E+01  0.93504505863E+02  0.10216975246E+03  0.10570000000E+00 0. -1.
<mgrwt>
<rscale>  0 0.91040448E+02</rscale>
<asrwt>0</asrwt>
<pdfrwt beam="1">  1        4 0.21106501E-01 0.91040448E+02</pdfrwt>
<pdfrwt beam="2">  1       -4 0.23236239E-02 0.91040448E+02</pdfrwt>
<totfact> 0.23653666E+04</totfact>
</mgrwt>
</event>
<event>
 5    1  0.1090823E+000  0.9116634E+02  0.7818608E-02  0.1300052E+00
         -4   -1    0    0    0  501 -0.00000000000E+00  0.00000000000E+00  0.23400918591E+02  0.23443962782E+02  0.14200000000E+01 0.  1.
          4   -1    0    0  501    0  0.00000000000E+00 -0.00000000000E+00 -0.88662149012E+02  0.88673519538E+02  0.14200000000E+01 0. -1.
         23    2    1    2    0    0  0.00000000000E+00  0.00000000000E+00 -0.65261230420E+02  0.11211748232E+03  0.91166340531E+02 0.  0.
        -13    1    3    3    0    0 -0.29428571918E+01 -0.42438489823E+02 -0.52768332176E+02  0.67780483032E+02  0.10570000000E+00 0. -1.
         13    1    3    3    0    0  0.29428571918E+01  0.42438489823E+02 -0.12492898244E+02  0.44336999288E+02  0.10570000000E+00 0.  1.
<mgrwt>
<rscale>  0 0.91166341E+02</rscale>
<asrwt>0</asrwt>
<pdfrwt beam="2">  1        4 0.13644516E-01 0.91166341E+02</pdfrwt>
<pdfrwt beam="1">  1       -4 0.36043271E-02 0.91166341E+02</pdfrwt>
<totfact> 0.25735718E+04</totfact>
</mgrwt>
</event>
<event>
 5    1  0.1090823E+000  0.9108037E+02  0.7818608E-02  0.1300256E+00
         -4   -1    0    0    0  501 -0.00000000000E+00  0.00000000000E+00  0.19144882810E+02  0.19197472172E+02  0.14200000000E+01 0.  1.
          4   -1    0    0  501    0  0.00000000000E+00 -0.00000000000E+00 -0.10812120636E+03  0.10813053068E+03  0.14200000000E+01 0. -1.
         23    2    1    2    0    0  0.00000000000E+00  0.00000000000E+00 -0.88976323555E+02  0.12732800286E+03  0.91080371967E+02 0.  0.
        -13    1    3    3    0    0 -0.16072365847E+02  0.32378609896E+02 -0.83209825346E+02  0.90722552485E+02  0.10570000000E+00 0. -1.
         13    1    3    3    0    0  0.16072365847E+02 -0.32378609896E+02 -0.57664982091E+01  0.36605450370E+02  0.10570000000E+00 0.  1.
<mgrwt>
<rscale>  0 0.91080372E+02</rscale>
<asrwt>0</asrwt>
<pdfrwt beam="2">  1        4 0.16638794E-01 0.91080372E+02</pdfrwt>
<pdfrwt beam="1">  1       -4 0.29501292E-02 0.91080372E+02</pdfrwt>
<totfact> 0.24935117E+04</totfact>
</mgrwt>
</event>
<event>
 5    1  0.1090823E+000  0.9047003E+02  0.7818608E-02  0.1301717E+00
          4   -1    0    0  501    0  0.00000000000E+00  0.00000000000E+00  0.33302886769E+02  0.33333146674E+02  0.14200000000E+01 0. -1.
         -4   -1    0    0    0  501 -0.00000000000E+00 -0.00000000000E+00 -0.61375938937E+02  0.61392363372E+02  0.14200000000E+01 0.  1.
         23    2    1    2    0    0  0.00000000000E+00  0.00000000000E+00 -0.28073052168E+02  0.94725510046E+02  0.90470028161E+02 0.  0.
        -13    1    3    3    0    0  0.29144315734E+02  0.18898513578E+02  0.16303186975E+02  0.38371213599E+02  0.10570000000E+00 0. -1.
         13    1    3    3    0    0 -0.29144315734E+02 -0.18898513578E+02 -0.44376239143E+02  0.56354296446E+02  0.10570000000E+00 0.  1.
<mgrwt>
<rscale>  0 0.90470028E+02</rscale>
<asrwt>0</asrwt>
<pdfrwt beam="1">  1        4 0.51271121E-02 0.90470028E+02</pdfrwt>
<pdfrwt beam="2">  1       -4 0.94460433E-02 0.90470028E+02</pdfrwt>
<totfact> 0.27359652E+04</totfact>
</mgrwt>
</event>
<event>
 5    1  0.1090823E+000  0.8969785E+02  0.7818608E-02  0.1303585E+00
          4   -1    0    0  501    0  0.00000000000E+00  0.00000000000E+00  0.67349716833E+02  0.67364684795E+02  0.14200000000E+01 0. -1.
         -4   -1    0    0    0  501 -0.00000000000E+00 -0.00000000000E+00 -0.29830221958E+02  0.29864000772E+02  0.14200000000E+01 0.  1.
         23    2    1    2    0    0  0.00000000000E+00  0.00000000000E+00  0.37519494875E+02  0.97228685566E+02  0.89697852824E+02 0.  0.
        -13    1    3    3    0    0 -0.36065560266E+02  0.27922082426E+01  0.47497796000E+02  0.59704043929E+02  0.10570000000E+00 0. -1.
         13    1    3    3    0    0  0.36065560266E+02 -0.27922082426E+01 -0.99783011250E+01  0.37524641637E+02  0.10570000000E+00 0.  1.
<mgrwt>
<rscale>  0 0.89697853E+02</rscale>
<asrwt>0</asrwt>
<pdfrwt beam="1">  1        4 0.10365244E-01 0.89697853E+02</pdfrwt>
<pdfrwt beam="2">  1       -4 0.45930148E-02 0.89697853E+02</pdfrwt>
<totfact> 0.27835015E+04</totfact>
</mgrwt>
</event>
<event>
 5    1  0.1090823E+000  0.9238870E+02  0.7818608E-02  0.1297168E+00
         -4   -1    0    0    0  501 -0.00000000000E+00  0.00000000000E+00  0.32992411969E+02  0.33022956372E+02  0.14200000000E+01 0. -1.
          4   -1    0    0  501    0  0.00000000000E+00 -0.00000000000E+00 -0.64610777783E+02  0.64626380107E+02  0.14200000000E+01 0.  1.
         23    2    1    2    0    0  0.00000000000E+00  0.00000000000E+00 -0.31618365814E+02  0.97649336479E+02  0.92388699840E+02 0.  0.
        -13    1    3    3    0    0 -0.32501836835E+02  0.21906893654E+02 -0.41647544201E+02  0.57191000146E+02  0.10570000000E+00 0.  1.
         13    1    3    3    0    0  0.32501836835E+02 -0.21906893654E+02  0.10029178387E+02  0.40458336333E+02  0.10570000000E+00 0. -1.
<mgrwt>
<rscale>  0 0.92388700E+02</rscale>
<asrwt>0</asrwt>
<pdfrwt beam="2">  1        4 0.99436694E-02 0.92388700E+02</pdfrwt>
<pdfrwt beam="1">  1       -4 0.50793054E-02 0.92388700E+02</pdfrwt>
<totfact> 0.25666385E+04</totfact>
</mgrwt>
</event>
<event>
 5    1  0.1090823E+000  0.9080668E+02  0.7818608E-02  0.1300910E+00
         -4   -1    0    0    0  501 -0.00000000000E+00  0.00000000000E+00  0.19178187228E+02  0.19230685514E+02  0.14200000000E+01 0.  1.
          4   -1    0    0  501    0  0.00000000000E+00 -0.00000000000E+00 -0.10728588194E+03  0.10729527885E+03  0.14200000000E+01 0. -1.
         23    2    1    2    0    0  0.00000000000E+00  0.00000000000E+00 -0.88107694710E+02  0.12652596436E+03  0.90806683625E+02 0.  0.
        -13    1    3    3    0    0 -0.30919272361E+02  0.16573794455E+02 -0.38932943197E+01  0.35296755929E+02  0.10570000000E+00 0.  1.
         13    1    3    3    0    0  0.30919272361E+02 -0.16573794455E+02 -0.84214400390E+02  0.91229208434E+02  0.10570000000E+00 0. -1.
<mgrwt>
<rscale>  0 0.90806684E+02</rscale>
<asrwt>0</asrwt>
<pdfrwt beam="2">  1        4 0.16510281E-01 0.90806684E+02</pdfrwt>
<pdfrwt beam="1">  1       -4 0.29552516E-02 0.90806684E+02</pdfrwt>
<totfact> 0.25182763E+04</totfact>
</mgrwt>
</event>
<event>
 5    1  0.1090823E+000  0.9181902E+02  0.7818608E-02  0.1298506E+00
         -4   -1    0    0    0  501 -0.00000000000E+00  0.00000000000E+00  0.17863278665E+02  0.17919629591E+02  0.14200000000E+01 0.  1.
          4   -1    0    0  501    0  0.00000000000E+00 -0.00000000000E+00 -0.11774326217E+03  0.11775182456E+03  0.14200000000E+01 0. -1.
         23    2    1    2    0    0  0.00000000000E+00  0.00000000000E+00 -0.99879983505E+02  0.13567145415E+03  0.91819019629E+02 0.  0.
        -13    1    3    3    0    0 -0.42469863695E+02 -0.16582752488E+02 -0.57896394524E+02  0.73693152149E+02  0.10570000000E+00 0. -1.
         13    1    3    3    0    0  0.42469863695E+02  0.16582752488E+02 -0.41983588981E+02  0.61978301998E+02  0.10570000000E+00 0.  1.
<mgrwt>
<rscale>  0 0.91819020E+02</rscale>
<asrwt>0</asrwt>
<pdfrwt beam="2">  1        4 0.18119341E-01 0.91819020E+02</pdfrwt>
<pdfrwt beam="1">  1       -4 0.27531901E-02 0.91819020E+02</pdfrwt>
<totfact> 0.23954536E+04</totfact>
</mgrwt>
</event>
<event>
 5    1  0.1090823E+000  0.9180699E+02  0.7818608E-02  0.1298534E+00
          4   -1    0    0  501    0  0.00000000000E+00  0.00000000000E+00  0.16273048619E+03  0.16273668159E+03  0.14200000000E+01 0. -1.
         -4   -1    0    0    0  501 -0.00000000000E+00 -0.00000000000E+00 -0.12903201260E+02  0.12981101754E+02  0.14200000000E+01 0.  1.
         23    2    1    2    0    0  0.00000000000E+00  0.00000000000E+00  0.14982728493E+03  0.17571778334E+03  0.91806993603E+02 0.  0.
        -13    1    3    3    0    0 -0.21617948091E+02  0.35154606606E+02  0.36445855821E+02  0.55059001301E+02  0.10570000000E+00 0.  1.
         13    1    3    3    0    0  0.21617948091E+02 -0.35154606606E+02  0.11338142910E+03  0.12065878204E+03  0.10570000000E+00 0. -1.
<mgrwt>
<rscale>  0 0.91806994E+02</rscale>
<asrwt>0</asrwt>
<pdfrwt beam="1">  1        4 0.25041929E-01 0.91806994E+02</pdfrwt>
<pdfrwt beam="2">  1       -4 0.19915767E-02 0.91806994E+02</pdfrwt>
<totfact> 0.22032765E+04</totfact>
</mgrwt>
</event>
<event>
 5    1  0.1090823E+000  0.9291053E+02  0.7818608E-02  0.1295953E+00
          4   -1    0    0  501    0  0.00000000000E+00  0.00000000000E+00  0.15730940717E+03  0.15731581607E+03  0.14200000000E+01 0. -1.
         -4   -1    0    0    0  501 -0.00000000000E+00 -0.00000000000E+00 -0.13675317939E+02  0.13748844342E+02  0.14200000000E+01 0.  1.
         23    2    1    2    0    0  0.00000000000E+00  0.00000000000E+00  0.14363408923E+03  0.17106466041E+03  0.92910529279E+02 0.  0.
        -13    1    3    3    0    0 -0.18738407816E+02 -0.38491124433E+02  0.38605069895E+02  0.57645964140E+02  0.10570000000E+00 0.  1.
         13    1    3    3    0    0  0.18738407816E+02  0.38491124433E+02  0.10502901934E+03  0.11341869627E+03  0.10570000000E+00 0. -1.
<mgrwt>
<rscale>  0 0.92910529E+02</rscale>
<asrwt>0</asrwt>
<pdfrwt beam="1">  1        4 0.24207596E-01 0.92910529E+02</pdfrwt>
<pdfrwt beam="2">  1       -4 0.21100439E-02 0.92910529E+02</pdfrwt>
<totfact> 0.21537505E+04</totfact>
</mgrwt>
</event>
<event>
 5    1  0.1090823E+000  0.8386397E+02  0.7818608E-02  0.1318430E+00
         -4   -1    0    0    0  501 -0.00000000000E+00  0.00000000000E+00  0.67606580610E+02  0.67621491715E+02  0.14200000000E+01 0.  1.
          4   -1    0    0  501    0  0.00000000000E+00 -0.00000000000E+00 -0.25970520118E+02  0.26009312087E+02  0.14200000000E+01 0. -1.
         23    2    1    2    0    0  0.00000000000E+00  0.00000000000E+00  0.41636060492E+02  0.93630803802E+02  0.83863972523E+02 0.  0.
        -13    1    3    3    0    0  0.36981740620E+02 -0.15389051172E+02  0.34664311739E+02  0.52972612887E+02  0.10570000000E+00 0.  1.
         13    1    3    3    0    0 -0.36981740620E+02  0.15389051172E+02  0.69717487524E+01  0.40658190914E+02  0.10570000000E+00 0. -1.
<mgrwt>
<rscale>  0 0.83863973E+02</rscale>
<asrwt>0</asrwt>
<pdfrwt beam="2">  1        4 0.39995957E-02 0.83863973E+02</pdfrwt>
<pdfrwt beam="1">  1       -4 0.10405143E-01 0.83863973E+02</pdfrwt>
<totfact> 0.33641201E+04</totfact>
</mgrwt>
</event>
<event>
 5    1  0.1090823E+000  0.8746056E+02  0.7818608E-02  0.1309120E+00
         -4   -1    0    0    0  501 -0.00000000000E+00  0.00000000000E+00  0.11220946818E+03  0.11221845280E+03  0.14200000000E+01 0.  1.
          4   -1    0    0  501    0  0.00000000000E+00 -0.00000000000E+00 -0.17003304806E+02  0.17062496135E+02  0.14200000000E+01 0. -1.
         23    2    1    2    0    0  0.00000000000E+00  0.00000000000E+00  0.95206163377E+02  0.12928094894E+03  0.87460563763E+02 0.  0.
        -13    1    3    3    0    0  0.83967257854E+01  0.42140956645E+02  0.35597965478E+02  0.55799565854E+02  0.10570000000E+00 0. -1.
         13    1    3    3    0    0 -0.83967257854E+01 -0.42140956645E+02  0.59608197899E+02  0.73481383085E+02  0.10570000000E+00 0.  1.
<mgrwt>
<rscale>  0 0.87460564E+02</rscale>
<asrwt>0</asrwt>
<pdfrwt beam="2">  1        4 0.26211373E-02 0.87460564E+02</pdfrwt>
<pdfrwt beam="1">  1       -4 0.17268240E-01 0.87460564E+02</pdfrwt>
<totfact> 0.27683891E+04</totfact>
</mgrwt>
</event>
<event>
 5    1  0.1090823E+000  0.9045858E+02  0.7818608E-02  0.1301745E+00
          4   -1    0    0  501    0  0.00000000000E+00  0.00000000000E+00  0.11863416307E+03  0.11864266116E+03  0.14200000000E+01 0.  1.
         -4   -1    0    0    0  501 -0.00000000000E+00 -0.00000000000E+00 -0.17205304731E+02  0.17263803489E+02  0.14200000000E+01 0. -1.
         23    2    1    2    0    0  0.00000000000E+00  0.00000000000E+00  0.10142885834E+03  0.13590646465E+03  0.90458575214E+02 0.  0.
        -13    1    3    3    0    0 -0.28808153794E+02  0.11685217021E+02  0.13577398123E+01  0.31117658198E+02  0.10570000000E+00 0. -1.
         13    1    3    3    0    0  0.28808153794E+02 -0.11685217021E+02  0.10007111853E+03  0.10478880645E+03  0.10570000000E+00 0.  1.
<mgrwt>
<rscale>  0 0.90458575E+02</rscale>
<asrwt>0</asrwt>
<pdfrwt beam="1">  1        4 0.18256564E-01 0.90458575E+02</pdfrwt>
<pdfrwt beam="2">  1       -4 0.26521235E-02 0.90458575E+02</pdfrwt>
<totfact> 0.24925465E+04</totfact>
</mgrwt>
</event>
<event>
 5    1  0.1090823E+000  0.9004920E+02  0.7818608E-02  0.1302733E+00
          4   -1    0    0  501    0  0.00000000000E+00  0.00000000000E+00  0.18940908017E+02  0.18994062138E+02  0.14200000000E+01 0. -1.
         -4   -1    0    0    0  501 -0.00000000000E+00 -0.00000000000E+00 -0.10682053858E+03  0.10682997642E+03  0.14200000000E+01 0.  1.
         23    2    1    2    0    0  0.00000000000E+00  0.00000000000E+00 -0.87879630561E+02  0.12582403856E+03  0.90049204394E+02 0.  0.
        -13    1    3    3    0    0 -0.25835208688E+02  0.36696153994E+02 -0.49004434419E+02  0.66449315205E+02  0.10570000000E+00 0.  1.
         13    1    3    3    0    0  0.25835208688E+02 -0.36696153994E+02 -0.38875196142E+02  0.59374723355E+02  0.10570000000E+00 0. -1.
<mgrwt>
<rscale>  0 0.90049204E+02</rscale>
<asrwt>0</asrwt>
<pdfrwt beam="1">  1        4 0.29188007E-02 0.90049204E+02</pdfrwt>
<pdfrwt beam="2">  1       -4 0.16438744E-01 0.90049204E+02</pdfrwt>
<totfact> 0.25796940E+04</totfact>
</mgrwt>
</event>
<event>
 5    1  0.1090823E+000  0.9081078E+02  0.7818608E-02  0.1300900E+00
         -4   -1    0    0    0  501 -0.00000000000E+00  0.00000000000E+00  0.41823603525E+02  0.41847702587E+02  0.14200000000E+01 0.  1.
          4   -1    0    0  501    0  0.00000000000E+00 -0.00000000000E+00 -0.49245382941E+02  0.49265851673E+02  0.14200000000E+01 0. -1.
         23    2    1    2    0    0  0.00000000000E+00  0.00000000000E+00 -0.74217794165E+01  0.91113554260E+02  0.90810775573E+02 0.  0.
        -13    1    3    3    0    0 -0.39230212344E+02  0.15788005372E+02  0.12878062632E+02  0.44205501285E+02  0.10570000000E+00 0.  1.
         13    1    3    3    0    0  0.39230212344E+02 -0.15788005372E+02 -0.20299842049E+02  0.46908052975E+02  0.10570000000E+00 0. -1.
<mgrwt>
<rscale>  0 0.90810776E+02</rscale>
<asrwt>0</asrwt>
<pdfrwt beam="2">  1        4 0.75796411E-02 0.90810776E+02</pdfrwt>
<pdfrwt beam="1">  1       -4 0.64378288E-02 0.90810776E+02</pdfrwt>
<totfact> 0.27316938E+04</totfact>
</mgrwt>
</event>
<event>
 5    1  0.1090823E+000  0.9038146E+02  0.7818608E-02  0.1301931E+00
          4   -1    0    0  501    0  0.00000000000E+00  0.00000000000E+00  0.43276825526E+02  0.43300115792E+02  0.14200000000E+01 0. -1.
         -4   -1    0    0    0  501 -0.00000000000E+00 -0.00000000000E+00 -0.47142602497E+02  0.47163983825E+02  0.14200000000E+01 0.  1.
         23    2    1    2    0    0  0.00000000000E+00  0.00000000000E+00 -0.38657769713E+01  0.90464099617E+02  0.90381464294E+02 0.  0.
        -13    1    3    3    0    0 -0.13774922549E+02  0.37556439940E+02  0.19109092264E+02  0.44332868753E+02  0.10570000000E+00 0. -1.
         13    1    3    3    0    0  0.13774922549E+02 -0.37556439940E+02 -0.22974869236E+02  0.46131230864E+02  0.10570000000E+00 0.  1.
<mgrwt>
<rscale>  0 0.90381464E+02</rscale>
<asrwt>0</asrwt>
<pdfrwt beam="1">  1        4 0.66614095E-02 0.90381464E+02</pdfrwt>
<pdfrwt beam="2">  1       -4 0.72561443E-02 0.90381464E+02</pdfrwt>
<totfact> 0.27712477E+04</totfact>
</mgrwt>
</event>
<event>
 5    1  0.1090823E+000  0.8634439E+02  0.7818608E-02  0.1311954E+00
         -4   -1    0    0    0  501 -0.00000000000E+00  0.00000000000E+00  0.10718060597E+02  0.10811716929E+02  0.14200000000E+01 0.  1.
          4   -1    0    0  501    0  0.00000000000E+00 -0.00000000000E+00 -0.17304394642E+03  0.17304977259E+03  0.14200000000E+01 0. -1.
         23    2    1    2    0    0  0.00000000000E+00  0.00000000000E+00 -0.16232588582E+03  0.18386148952E+03  0.86344392515E+02 0.  0.
        -13    1    3    3    0    0  0.23514617173E+02 -0.31633096092E+02 -0.11866919683E+03  0.12504391004E+03  0.10570000000E+00 0. -1.
         13    1    3    3    0    0 -0.23514617173E+02  0.31633096092E+02 -0.43656688993E+02  0.58817579476E+02  0.10570000000E+00 0.  1.
<mgrwt>
<rscale>  0 0.86344393E+02</rscale>
<asrwt>0</asrwt>
<pdfrwt beam="2">  1        4 0.26629796E-01 0.86344393E+02</pdfrwt>
<pdfrwt beam="1">  1       -4 0.16565850E-02 0.86344393E+02</pdfrwt>
<totfact> 0.25530363E+04</totfact>
</mgrwt>
</event>
<event>
 5    1  0.1090823E+000  0.9073059E+02  0.7818608E-02  0.1301092E+00
         -4   -1    0    0    0  501 -0.00000000000E+00  0.00000000000E+00  0.37640149609E+03  0.37640417461E+03  0.14200000000E+01 0.  1.
          4   -1    0    0  501    0  0.00000000000E+00 -0.00000000000E+00 -0.53726508427E+01  0.55571374895E+01  0.14200000000E+01 0. -1.
         23    2    1    2    0    0  0.00000000000E+00  0.00000000000E+00  0.37102884525E+03  0.38196131209E+03  0.90730589826E+02 0.  0.
        -13    1    3    3    0    0 -0.84885597740E+01  0.41564293312E+02  0.25318067616E+03  0.25671017136E+03  0.10570000000E+00 0.  1.
         13    1    3    3    0    0  0.84885597740E+01 -0.41564293312E+02  0.11784816909E+03  0.12525114074E+03  0.10570000000E+00 0. -1.
<mgrwt>
<rscale>  0 0.90730590E+02</rscale>
<asrwt>0</asrwt>
<pdfrwt beam="2">  1        4 0.84095900E-03 0.90730590E+02</pdfrwt>
<pdfrwt beam="1">  1       -4 0.57922319E-01 0.90730590E+02</pdfrwt>
<totfact> 0.15784964E+04</totfact>
</mgrwt>
</event>
<event>
 5    1  0.1090823E+000  0.9486389E+02  0.7818608E-02  0.1291483E+00
         -4   -1    0    0    0  501 -0.00000000000E+00  0.00000000000E+00  0.53618868633E+02  0.53637668420E+02  0.14200000000E+01 0.  1.
          4   -1    0    0  501    0  0.00000000000E+00 -0.00000000000E+00 -0.41920734569E+02  0.41944777826E+02  0.14200000000E+01 0. -1.
         23    2    1    2    0    0  0.00000000000E+00  0.00000000000E+00  0.11698134064E+02  0.95582446245E+02  0.94863890336E+02 0.  0.
        -13    1    3    3    0    0  0.30253235941E+02 -0.50654791799E+01 -0.30603150640E+02  0.43329913060E+02  0.10570000000E+00 0. -1.
         13    1    3    3    0    0 -0.30253235941E+02  0.50654791799E+01  0.42301284704E+02  0.52252533185E+02  0.10570000000E+00 0.  1.
<mgrwt>
<rscale>  0 0.94863890E+02</rscale>
<asrwt>0</asrwt>
<pdfrwt beam="2">  1        4 0.64526394E-02 0.94863890E+02</pdfrwt>
<pdfrwt beam="1">  1       -4 0.82523523E-02 0.94863890E+02</pdfrwt>
<totfact> 0.23997984E+04</totfact>
</mgrwt>
</event>
<event>
 5    1  0.1090823E+000  0.9053809E+02  0.7818608E-02  0.1301554E+00
          4   -1    0    0  501    0  0.00000000000E+00  0.00000000000E+00  0.10626433411E+03  0.10627382135E+03  0.14200000000E+01 0. -1.
         -4   -1    0    0    0  501 -0.00000000000E+00 -0.00000000000E+00 -0.19248297382E+02  0.19300604967E+02  0.14200000000E+01 0.  1.
         23    2    1    2    0    0  0.00000000000E+00  0.00000000000E+00  0.87016036728E+02  0.12557442631E+03  0.90538090859E+02 0.  0.
        -13    1    3    3    0    0  0.36610150175E+02 -0.12468772773E+02  0.10877089781E+02  0.40175809200E+02  0.10570000000E+00 0.  1.
         13    1    3    3    0    0 -0.36610150175E+02  0.12468772773E+02  0.76138946947E+02  0.85398617114E+02  0.10570000000E+00 0. -1.
<mgrwt>
<rscale>  0 0.90538091E+02</rscale>
<asrwt>0</asrwt>
<pdfrwt beam="1">  1        4 0.16353113E-01 0.90538091E+02</pdfrwt>
<pdfrwt beam="2">  1       -4 0.29660299E-02 0.90538091E+02</pdfrwt>
<totfact> 0.25437957E+04</totfact>
</mgrwt>
</event>
<event>
 5    1  0.1090823E+000  0.9360407E+02  0.7818608E-02  0.1294351E+00
         -4   -1    0    0    0  501 -0.00000000000E+00  0.00000000000E+00  0.11550442822E+03  0.11551315656E+03  0.14200000000E+01 0.  1.
          4   -1    0    0  501    0  0.00000000000E+00 -0.00000000000E+00 -0.18927999614E+02  0.18981189883E+02  0.14200000000E+01 0. -1.
         23    2    1    2    0    0  0.00000000000E+00  0.00000000000E+00  0.96576428607E+02  0.13449434644E+03  0.93604073966E+02 0.  0.
        -13    1    3    3    0    0  0.18465573801E+02  0.20164519273E+02  0.10286619932E+03  0.10643801665E+03  0.10570000000E+00 0.  1.
         13    1    3    3    0    0 -0.18465573801E+02 -0.20164519273E+02 -0.62897707146E+01  0.28056329793E+02  0.10570000000E+00 0. -1.
<mgrwt>
<rscale>  0 0.93604074E+02</rscale>
<asrwt>0</asrwt>
<pdfrwt beam="2">  1        4 0.29167629E-02 0.93604074E+02</pdfrwt>
<pdfrwt beam="1">  1       -4 0.17774675E-01 0.93604074E+02</pdfrwt>
<totfact> 0.22796341E+04</totfact>
</mgrwt>
</event>
<event>
 5    1  0.1090823E+000  0.8346068E+02  0.7818608E-02  0.1319508E+00
         -4   -1    0    0    0  501 -0.00000000000E+00  0.00000000000E+00  0.25214497774E+02  0.25254451053E+02  0.14200000000E+01 0.  1.
          4   -1    0    0  501    0  0.00000000000E+00 -0.00000000000E+00 -0.68962336131E+02  0.68976954156E+02  0.14200000000E+01 0. -1.
         23    2    1    2    0    0  0.00000000000E+00  0.00000000000E+00 -0.43747838357E+02  0.94231405209E+02  0.83460675570E+02 0.  0.
        -13    1    3    3    0    0 -0.23214048827E+02 -0.85268320999E+01 -0.59824346403E+02  0.64734554325E+02  0.10570000000E+00 0. -1.
         13    1    3    3    0    0  0.23214048827E+02  0.85268320999E+01  0.16076508046E+02  0.29496850884E+02  0.10570000000E+00 0.  1.
<mgrwt>
<rscale>  0 0.83460676E+02</rscale>
<asrwt>0</asrwt>
<pdfrwt beam="2">  1        4 0.10613788E-01 0.83460676E+02</pdfrwt>
<pdfrwt beam="1">  1       -4 0.38833513E-02 0.83460676E+02</pdfrwt>
<totfact> 0.34028694E+04</totfact>
</mgrwt>
</event>
<event>
 5    1  0.1090823E+000  0.9412338E+02  0.7818608E-02  0.1293163E+00
         -4   -1    0    0    0  501 -0.00000000000E+00  0.00000000000E+00  0.10769185675E+02  0.10862401213E+02  0.14200000000E+01 0.  1.
          4   -1    0    0  501    0  0.00000000000E+00 -0.00000000000E+00 -0.20467919055E+03  0.20468411624E+03  0.14200000000E+01 0. -1.
         23    2    1    2    0    0  0.00000000000E+00  0.00000000000E+00 -0.19391000487E+03  0.21554651746E+03  0.94123382848E+02 0.  0.
        -13    1    3    3    0    0  0.43620208388E+02 -0.13822052033E+02 -0.12214754045E+03  0.13043697525E+03  0.10570000000E+00 0. -1.
         13    1    3    3    0    0 -0.43620208388E+02  0.13822052033E+02 -0.71762464418E+02  0.85109542203E+02  0.10570000000E+00 0.  1.
<mgrwt>
<rscale>  0 0.94123383E+02</rscale>
<asrwt>0</asrwt>
<pdfrwt beam="2">  1        4 0.31496653E-01 0.94123383E+02</pdfrwt>
<pdfrwt beam="1">  1       -4 0.16643473E-02 0.94123383E+02</pdfrwt>
<totfact> 0.19055893E+04</totfact>
</mgrwt>
</event>
<event>
 5    1  0.1090823E+000  0.9145410E+02  0.7818608E-02  0.1299368E+00
         -4   -1    0    0    0  501 -0.00000000000E+00  0.00000000000E+00  0.10601521286E+03  0.10602472239E+03  0.14200000000E+01 0.  1.
          4   -1    0    0  501    0  0.00000000000E+00 -0.00000000000E+00 -0.19687270788E+02  0.19738415111E+02  0.14200000000E+01 0. -1.
         23    2    1    2    0    0  0.00000000000E+00  0.00000000000E+00  0.86327942076E+02  0.12576313750E+03  0.91454104184E+02 0.  0.
        -13    1    3    3    0    0  0.33031810451E+02 -0.18112722073E+01  0.86575418509E+02  0.92680610006E+02  0.10570000000E+00 0.  1.
         13    1    3    3    0    0 -0.33031810451E+02  0.18112722073E+01 -0.24747643257E+00  0.33082527499E+02  0.10570000000E+00 0. -1.
<mgrwt>
<rscale>  0 0.91454104E+02</rscale>
<asrwt>0</asrwt>
<pdfrwt beam="2">  1        4 0.30334766E-02 0.91454104E+02</pdfrwt>
<pdfrwt beam="1">  1       -4 0.16314698E-01 0.91454104E+02</pdfrwt>
<totfact> 0.24745934E+04</totfact>
</mgrwt>
</event>
<event>
 5    1  0.1090823E+000  0.8914299E+02  0.7818608E-02  0.1304940E+00
         -4   -1    0    0    0  501 -0.00000000000E+00  0.00000000000E+00  0.37598249592E+02  0.37625055114E+02  0.14200000000E+01 0.  1.
          4   -1    0    0  501    0  0.00000000000E+00 -0.00000000000E+00 -0.52782866740E+02  0.52801964180E+02  0.14200000000E+01 0. -1.
         23    2    1    2    0    0  0.00000000000E+00  0.00000000000E+00 -0.15184617148E+02  0.90427019295E+02  0.89142993110E+02 0.  0.
        -13    1    3    3    0    0 -0.30313891423E+02  0.30056069572E+02 -0.20595204775E+02  0.47396972092E+02  0.10570000000E+00 0. -1.
         13    1    3    3    0    0  0.30313891423E+02 -0.30056069572E+02  0.54105876266E+01  0.43030047203E+02  0.10570000000E+00 0.  1.
<mgrwt>
<rscale>  0 0.89142993E+02</rscale>
<asrwt>0</asrwt>
<pdfrwt beam="2">  1        4 0.81239720E-02 0.89142993E+02</pdfrwt>
<pdfrwt beam="1">  1       -4 0.57878771E-02 0.89142993E+02</pdfrwt>
<totfact> 0.28768437E+04</totfact>
</mgrwt>
</event>
<event>
 5    1  0.1090823E+000  0.8889305E+02  0.7818608E-02  0.1305555E+00
          4   -1    0    0  501    0  0.00000000000E+00  0.00000000000E+00  0.10470214682E+02  0.10566068119E+02  0.14200000000E+01 0. -1.
         -4   -1    0    0    0  501 -0.00000000000E+00 -0.00000000000E+00 -0.18771920135E+03  0.18772457206E+03  0.14200000000E+01 0.  1.
         23    2    1    2    0    0  0.00000000000E+00  0.00000000000E+00 -0.17724898667E+03  0.19829064018E+03  0.88893052081E+02 0.  0.
        -13    1    3    3    0    0 -0.29763496502E+02 -0.50596897996E+01 -0.15861837603E+02  0.34103889068E+02  0.10570000000E+00 0. -1.
         13    1    3    3    0    0  0.29763496502E+02  0.50596897996E+01 -0.16138714907E+03  0.16418675112E+03  0.10570000000E+00 0.  1.
<mgrwt>
<rscale>  0 0.88893052E+02</rscale>
<asrwt>0</asrwt>
<pdfrwt beam="1">  1        4 0.16185889E-02 0.88893052E+02</pdfrwt>
<pdfrwt beam="2">  1       -4 0.28887661E-01 0.88893052E+02</pdfrwt>
<totfact> 0.22960464E+04</totfact>
</mgrwt>
</event>
<event>
 5    1  0.1090823E+000  0.9120200E+02  0.7818608E-02  0.1299967E+00
          4   -1    0    0  501    0  0.00000000000E+00  0.00000000000E+00  0.10230470789E+03  0.10231456229E+03  0.14200000000E+01 0. -1.
         -4   -1    0    0    0  501 -0.00000000000E+00 -0.00000000000E+00 -0.20290408903E+02  0.20340036712E+02  0.14200000000E+01 0.  1.
         23    2    1    2    0    0  0.00000000000E+00  0.00000000000E+00  0.82014298987E+02  0.12265459900E+03  0.91202003365E+02 0.  0.
        -13    1    3    3    0    0  0.34229298606E+01  0.40215633908E+02  0.69549611809E+02  0.80412519763E+02  0.10570000000E+00 0.  1.
         13    1    3    3    0    0 -0.34229298606E+01 -0.40215633908E+02  0.12464687179E+02  0.42242079238E+02  0.10570000000E+00 0. -1.
<mgrwt>
<rscale>  0 0.91202003E+02</rscale>
<asrwt>0</asrwt>
<pdfrwt beam="1">  1        4 0.15743761E-01 0.91202003E+02</pdfrwt>
<pdfrwt beam="2">  1       -4 0.31261769E-02 0.91202003E+02</pdfrwt>
<totfact> 0.25104321E+04</totfact>
</mgrwt>
</event>
<event>
 5    1  0.1090823E+000  0.8583822E+02  0.7818608E-02  0.1313255E+00
          4   -1    0    0  501    0  0.00000000000E+00  0.00000000000E+00  0.15505381701E+03  0.15506031914E+03  0.14200000000E+01 0.  1.
         -4   -1    0    0    0  501 -0.00000000000E+00 -0.00000000000E+00 -0.11830861463E+02  0.11915774542E+02  0.14200000000E+01 0. -1.
         23    2    1    2    0    0  0.00000000000E+00  0.00000000000E+00  0.14322295555E+03  0.16697609368E+03  0.85838224954E+02 0.  0.
        -13    1    3    3    0    0  0.55691623806E+01 -0.36140444132E+02  0.11532066340E+03  0.12097939432E+03  0.10570000000E+00 0.  1.
         13    1    3    3    0    0 -0.55691623806E+01  0.36140444132E+02  0.27902292152E+02  0.45996699354E+02  0.10570000000E+00 0. -1.
<mgrwt>
<rscale>  0 0.85838225E+02</rscale>
<asrwt>0</asrwt>
<pdfrwt beam="1">  1        4 0.23861466E-01 0.85838225E+02</pdfrwt>
<pdfrwt beam="2">  1       -4 0.18271644E-02 0.85838225E+02</pdfrwt>
<totfact> 0.26843008E+04</totfact>
</mgrwt>
</event>
<event>
 5    1  0.1090823E+000  0.8532626E+02  0.7818608E-02  0.1314582E+00
          4   -1    0    0  501    0  0.00000000000E+00  0.00000000000E+00  0.10407022460E+03  0.10407991184E+03  0.14200000000E+01 0. -1.
         -4   -1    0    0    0  501 -0.00000000000E+00 -0.00000000000E+00 -0.17450220249E+02  0.17507900695E+02  0.14200000000E+01 0.  1.
         23    2    1    2    0    0  0.00000000000E+00  0.00000000000E+00  0.86620004352E+02  0.12158781253E+03  0.85326262095E+02 0.  0.
        -13    1    3    3    0    0  0.27552577492E+02  0.22858417662E+01 -0.29909938156E+01  0.27808754296E+02  0.10570000000E+00 0.  1.
         13    1    3    3    0    0 -0.27552577492E+02 -0.22858417662E+01  0.89610998168E+02  0.93779058239E+02  0.10570000000E+00 0. -1.
<mgrwt>
<rscale>  0 0.85326262E+02</rscale>
<asrwt>0</asrwt>
<pdfrwt beam="1">  1        4 0.16015986E-01 0.85326262E+02</pdfrwt>
<pdfrwt beam="2">  1       -4 0.26898314E-02 0.85326262E+02</pdfrwt>
<totfact> 0.30089407E+04</totfact>
</mgrwt>
</event>
<event>
 5    1  0.1090823E+000  0.8878973E+02  0.7818608E-02  0.1305809E+00
         -4   -1    0    0    0  501 -0.00000000000E+00  0.00000000000E+00  0.15491881709E+02  0.15556824833E+02  0.14200000000E+01 0.  1.
          4   -1    0    0  501    0  0.00000000000E+00 -0.00000000000E+00 -0.12688669142E+03  0.12689463685E+03  0.14200000000E+01 0. -1.
         23    2    1    2    0    0  0.00000000000E+00  0.00000000000E+00 -0.11139480971E+03  0.14245146168E+03  0.88789725211E+02 0.  0.
        -13    1    3    3    0    0  0.16224885312E+02 -0.38913145561E+02 -0.78009834440E+02  0.88673700965E+02  0.10570000000E+00 0.  1.
         13    1    3    3    0    0 -0.16224885312E+02  0.38913145561E+02 -0.33384975273E+02  0.53777760713E+02  0.10570000000E+00 0. -1.
<mgrwt>
<rscale>  0 0.88789725E+02</rscale>
<asrwt>0</asrwt>
<pdfrwt beam="2">  1        4 0.19526636E-01 0.88789725E+02</pdfrwt>
<pdfrwt beam="1">  1       -4 0.23889733E-02 0.88789725E+02</pdfrwt>
<totfact> 0.25833065E+04</totfact>
</mgrwt>
</event>
<event>
 5    1  0.1090823E+000  0.9160121E+02  0.7818608E-02  0.1299020E+00
         -4   -1    0    0    0  501 -0.00000000000E+00  0.00000000000E+00  0.11633660050E+03  0.11634526641E+03  0.14200000000E+01 0.  1.
          4   -1    0    0  501    0  0.00000000000E+00 -0.00000000000E+00 -0.17993948009E+02  0.18049890996E+02  0.14200000000E+01 0. -1.
         23    2    1    2    0    0  0.00000000000E+00  0.00000000000E+00  0.98342652490E+02  0.13439515740E+03  0.91601206515E+02 0.  0.
        -13    1    3    3    0    0  0.10304524696E+02  0.17944499125E+02 -0.10776728162E+02  0.23331037706E+02  0.10570000000E+00 0. -1.
         13    1    3    3    0    0 -0.10304524696E+02 -0.17944499125E+02  0.10911938065E+03  0.11106411970E+03  0.10570000000E+00 0.  1.
<mgrwt>
<rscale>  0 0.91601207E+02</rscale>
<asrwt>0</asrwt>
<pdfrwt beam="2">  1        4 0.27732695E-02 0.91601207E+02</pdfrwt>
<pdfrwt beam="1">  1       -4 0.17902909E-01 0.91601207E+02</pdfrwt>
<totfact> 0.24175834E+04</totfact>
</mgrwt>
</event>
<event>
 5    1  0.1090823E+000  0.6123655E+02  0.7818608E-02  0.1392715E+00
          4   -1    0    0  501    0  0.00000000000E+00  0.00000000000E+00  0.12319066644E+02  0.12400637200E+02  0.14200000000E+01 0.  1.
         -4   -1    0    0    0  501 -0.00000000000E+00 -0.00000000000E+00 -0.75760457160E+02  0.75773763726E+02  0.14200000000E+01 0. -1.
         23    2    1    2    0    0  0.00000000000E+00  0.00000000000E+00 -0.63441390517E+02  0.88174400926E+02  0.61236549118E+02 0.  0.
        -13    1    3    3    0    0 -0.26038556470E+02  0.48803559833E+01 -0.96172828736E+01  0.28183818051E+02  0.10570000000E+00 0.  1.
         13    1    3    3    0    0  0.26038556470E+02 -0.48803559833E+01 -0.53824107643E+02  0.59990582875E+02  0.10570000000E+00 0. -1.
<mgrwt>
<rscale>  0 0.61236549E+02</rscale>
<asrwt>0</asrwt>
<pdfrwt beam="1">  1        4 0.19025393E-02 0.61236549E+02</pdfrwt>
<pdfrwt beam="2">  1       -4 0.11662753E-01 0.61236549E+02</pdfrwt>
<totfact> 0.77666199E+04</totfact>
</mgrwt>
</event>
<event>
 5    1  0.1090823E+000  0.6404228E+02  0.7818608E-02  0.1381611E+00
         -4   -1    0    0    0  501 -0.00000000000E+00  0.00000000000E+00  0.16283119085E+03  0.16283738243E+03  0.14200000000E+01 0.  1.
          4   -1    0    0  501    0  0.00000000000E+00 -0.00000000000E+00 -0.62105855971E+01  0.63708534325E+01  0.14200000000E+01 0. -1.
         23    2    1    2    0    0  0.00000000000E+00  0.00000000000E+00  0.15662060526E+03  0.16920823586E+03  0.64042275810E+02 0.  0.
        -13    1    3    3    0    0  0.20056647868E+02 -0.14555330987E+02  0.24731946810E+02  0.35011528807E+02  0.10570000000E+00 0. -1.
         13    1    3    3    0    0 -0.20056647868E+02  0.14555330987E+02  0.13188865845E+03  0.13419670705E+03  0.10570000000E+00 0.  1.
<mgrwt>
<rscale>  0 0.64042276E+02</rscale>
<asrwt>0</asrwt>
<pdfrwt beam="2">  1        4 0.96827926E-03 0.64042276E+02</pdfrwt>
<pdfrwt beam="1">  1       -4 0.25063757E-01 0.64042276E+02</pdfrwt>
<totfact> 0.57292861E+04</totfact>
</mgrwt>
</event>
<event>
 5    1  0.1090823E+000  0.9359975E+02  0.7818608E-02  0.1294361E+00
         -4   -1    0    0    0  501 -0.00000000000E+00  0.00000000000E+00  0.39191218041E+02  0.39216934754E+02  0.14200000000E+01 0.  1.
          4   -1    0    0  501    0  0.00000000000E+00 -0.00000000000E+00 -0.55832618638E+02  0.55850673263E+02  0.14200000000E+01 0. -1.
         23    2    1    2    0    0  0.00000000000E+00  0.00000000000E+00 -0.16641400597E+02  0.95067608017E+02  0.93599753634E+02 0.  0.
        -13    1    3    3    0    0  0.29964736373E+02 -0.22692862990E+01 -0.44760658977E+02  0.53912548176E+02  0.10570000000E+00 0. -1.
         13    1    3    3    0    0 -0.29964736373E+02  0.22692862990E+01  0.28119258380E+02  0.41155059842E+02  0.10570000000E+00 0.  1.
<mgrwt>
<rscale>  0 0.93599754E+02</rscale>
<asrwt>0</asrwt>
<pdfrwt beam="2">  1        4 0.85930007E-02 0.93599754E+02</pdfrwt>
<pdfrwt beam="1">  1       -4 0.60327852E-02 0.93599754E+02</pdfrwt>
<totfact> 0.24923318E+04</totfact>
</mgrwt>
</event>
<event>
 5    1  0.1090823E+000  0.8825873E+02  0.7818608E-02  0.1307124E+00
          4   -1    0    0  501    0  0.00000000000E+00  0.00000000000E+00  0.10783156327E+02  0.10876252129E+02  0.14200000000E+01 0. -1.
         -4   -1    0    0    0  501 -0.00000000000E+00 -0.00000000000E+00 -0.17972438976E+03  0.17972999938E+03  0.14200000000E+01 0.  1.
         23    2    1    2    0    0  0.00000000000E+00  0.00000000000E+00 -0.16894123344E+03  0.19060625151E+03  0.88258726244E+02 0.  0.
        -13    1    3    3    0    0  0.23429839826E+02  0.15254265190E+02 -0.10734502981E+02  0.29948133957E+02  0.10570000000E+00 0. -1.
         13    1    3    3    0    0 -0.23429839826E+02 -0.15254265190E+02 -0.15820673045E+03  0.16065811755E+03  0.10570000000E+00 0.  1.
<mgrwt>
<rscale>  0 0.88258726E+02</rscale>
<asrwt>0</asrwt>
<pdfrwt beam="1">  1        4 0.16665400E-02 0.88258726E+02</pdfrwt>
<pdfrwt beam="2">  1       -4 0.27657497E-01 0.88258726E+02</pdfrwt>
<totfact> 0.23760766E+04</totfact>
</mgrwt>
</event>
<event>
 5    1  0.1090823E+000  0.9461080E+02  0.7818608E-02  0.1292055E+00
          4   -1    0    0  501    0  0.00000000000E+00  0.00000000000E+00  0.17326953000E+03  0.17327534859E+03  0.14200000000E+01 0. -1.
         -4   -1    0    0    0  501 -0.00000000000E+00 -0.00000000000E+00 -0.12870058705E+02  0.12948158598E+02  0.14200000000E+01 0.  1.
         23    2    1    2    0    0  0.00000000000E+00  0.00000000000E+00  0.16039947130E+03  0.18622350718E+03  0.94610804009E+02 0.  0.
        -13    1    3    3    0    0  0.46749868870E+02 -0.18641980725E+01  0.93944752176E+02  0.10495071752E+03  0.10570000000E+00 0.  1.
         13    1    3    3    0    0 -0.46749868870E+02  0.18641980725E+01  0.66454719123E+02  0.81272789666E+02  0.10570000000E+00 0. -1.
<mgrwt>
<rscale>  0 0.94610804E+02</rscale>
<asrwt>0</asrwt>
<pdfrwt beam="1">  1        4 0.26663306E-01 0.94610804E+02</pdfrwt>
<pdfrwt beam="2">  1       -4 0.19864643E-02 0.94610804E+02</pdfrwt>
<totfact> 0.19894242E+04</totfact>
</mgrwt>
</event>
<event>
 5    1  0.1090823E+000  0.8746782E+02  0.7818608E-02  0.1309102E+00
          4   -1    0    0  501    0  0.00000000000E+00  0.00000000000E+00  0.23605770061E+02  0.23648441390E+02  0.14200000000E+01 0. -1.
         -4   -1    0    0    0  501 -0.00000000000E+00 -0.00000000000E+00 -0.80902806957E+02  0.80915267864E+02  0.14200000000E+01 0.  1.
         23    2    1    2    0    0  0.00000000000E+00  0.00000000000E+00 -0.57297036896E+02  0.10456370925E+03  0.87467816114E+02 0.  0.
        -13    1    3    3    0    0  0.20035423571E+02  0.12157309165E+01  0.17801387017E+02  0.26829028152E+02  0.10570000000E+00 0. -1.
         13    1    3    3    0    0 -0.20035423571E+02 -0.12157309165E+01 -0.75098423913E+02  0.77734681102E+02  0.10570000000E+00 0.  1.
<mgrwt>
<rscale>  0 0.87467816E+02</rscale>
<asrwt>0</asrwt>
<pdfrwt beam="1">  1        4 0.36358979E-02 0.87467816E+02</pdfrwt>
<pdfrwt beam="2">  1       -4 0.12450827E-01 0.87467816E+02</pdfrwt>
<totfact> 0.29279357E+04</totfact>
</mgrwt>
</event>
<event>
 5    1  0.1090823E+000  0.1007824E+03  0.7818608E-02  0.1278659E+00
          4   -1    0    0  501    0  0.00000000000E+00  0.00000000000E+00  0.14982016869E+02  0.15049160424E+02  0.14200000000E+01 0.  1.
         -4   -1    0    0    0  501 -0.00000000000E+00 -0.00000000000E+00 -0.16903886676E+03  0.16904483096E+03  0.14200000000E+01 0. -1.
         23    2    1    2    0    0  0.00000000000E+00  0.00000000000E+00 -0.15405684989E+03  0.18409399138E+03  0.10078236287E+03 0.  0.
        -13    1    3    3    0    0  0.41227186185E+02 -0.14304038871E+01 -0.24164907547E+02  0.47808794852E+02  0.10570000000E+00 0.  1.
         13    1    3    3    0    0 -0.41227186185E+02  0.14304038871E+01 -0.12989194234E+03  0.13628519653E+03  0.10570000000E+00 0. -1.
<mgrwt>
<rscale>  0 0.10078236E+03</rscale>
<asrwt>0</asrwt>
<pdfrwt beam="1">  1        4 0.23105495E-02 0.10078236E+03</pdfrwt>
<pdfrwt beam="2">  1       -4 0.26011602E-01 0.10078236E+03</pdfrwt>
<totfact> 0.16835166E+04</totfact>
</mgrwt>
</event>
<event>
 5    1  0.1090823E+000  0.9138214E+02  0.7818608E-02  0.1299539E+00
          4   -1    0    0  501    0  0.00000000000E+00  0.00000000000E+00  0.20781774795E+03  0.20782259926E+03  0.14200000000E+01 0. -1.
         -4   -1    0    0    0  501 -0.00000000000E+00 -0.00000000000E+00 -0.99905207261E+01  0.10090931789E+02  0.14200000000E+01 0.  1.
         23    2    1    2    0    0  0.00000000000E+00  0.00000000000E+00  0.19782722723E+03  0.21791353105E+03  0.91382138206E+02 0.  0.
        -13    1    3    3    0    0  0.81340667716E+01 -0.35666028649E+02  0.16419503067E+03  0.16822083078E+03  0.10570000000E+00 0. -1.
         13    1    3    3    0    0 -0.81340667716E+01  0.35666028649E+02  0.33632196559E+02  0.49692700266E+02  0.10570000000E+00 0.  1.
<mgrwt>
<rscale>  0 0.91382138E+02</rscale>
<asrwt>0</asrwt>
<pdfrwt beam="1">  1        4 0.31980055E-01 0.91382138E+02</pdfrwt>
<pdfrwt beam="2">  1       -4 0.15451005E-02 0.91382138E+02</pdfrwt>
<totfact> 0.20536441E+04</totfact>
</mgrwt>
</event>
<event>
 5    1  0.1090823E+000  0.9238572E+02  0.7818608E-02  0.1297175E+00
          4   -1    0    0  501    0  0.00000000000E+00  0.00000000000E+00  0.16555486577E+02  0.16616273223E+02  0.14200000000E+01 0. -1.
         -4   -1    0    0    0  501 -0.00000000000E+00 -0.00000000000E+00 -0.12858568920E+03  0.12859352965E+03  0.14200000000E+01 0.  1.
         23    2    1    2    0    0  0.00000000000E+00  0.00000000000E+00 -0.11203020262E+03  0.14520980287E+03  0.92385716156E+02 0.  0.
        -13    1    3    3    0    0 -0.32290670482E+01  0.33633981754E+02 -0.65079139477E+01  0.34409820097E+02  0.10570000000E+00 0. -1.
         13    1    3    3    0    0  0.32290670482E+01 -0.33633981754E+02 -0.10552228867E+03  0.11079998277E+03  0.10570000000E+00 0.  1.
<mgrwt>
<rscale>  0 0.92385716E+02</rscale>
<asrwt>0</asrwt>
<pdfrwt beam="1">  1        4 0.25522770E-02 0.92385716E+02</pdfrwt>
<pdfrwt beam="2">  1       -4 0.19787692E-01 0.92385716E+02</pdfrwt>
<totfact> 0.23080374E+04</totfact>
</mgrwt>
</event>
<event>
 5    1  0.1090823E+000  0.9200780E+02  0.7818608E-02  0.1298061E+00
         -4   -1    0    0    0  501 -0.00000000000E+00  0.00000000000E+00  0.47596589449E+02  0.47617766928E+02  0.14200000000E+01 0.  1.
          4   -1    0    0  501    0  0.00000000000E+00 -0.00000000000E+00 -0.44422091173E+02  0.44444781293E+02  0.14200000000E+01 0. -1.
         23    2    1    2    0    0  0.00000000000E+00  0.00000000000E+00  0.31744982768E+01  0.92062548221E+02  0.92007800461E+02 0.  0.
        -13    1    3    3    0    0 -0.31429687727E+02 -0.13431808180E+02 -0.29222450177E+02  0.44968894899E+02  0.10570000000E+00 0.  1.
         13    1    3    3    0    0  0.31429687727E+02  0.13431808180E+02  0.32396948454E+02  0.47093653322E+02  0.10570000000E+00 0. -1.
<mgrwt>
<rscale>  0 0.92007800E+02</rscale>
<asrwt>0</asrwt>
<pdfrwt beam="2">  1        4 0.68375423E-02 0.92007800E+02</pdfrwt>
<pdfrwt beam="1">  1       -4 0.73259266E-02 0.92007800E+02</pdfrwt>
<totfact> 0.26301741E+04</totfact>
</mgrwt>
</event>
<event>
 5    1  0.1090823E+000  0.9137061E+02  0.7818608E-02  0.1299566E+00
         -4   -1    0    0    0  501 -0.00000000000E+00  0.00000000000E+00  0.55783055687E+02  0.55801126349E+02  0.14200000000E+01 0.  1.
          4   -1    0    0  501    0  0.00000000000E+00 -0.00000000000E+00 -0.37377815571E+02  0.37404779064E+02  0.14200000000E+01 0. -1.
         23    2    1    2    0    0  0.00000000000E+00  0.00000000000E+00  0.18405240116E+02  0.93205905413E+02  0.91370607638E+02 0.  0.
        -13    1    3    3    0    0  0.85218512246E+01 -0.44692162657E+02  0.13423911875E+02  0.47436525313E+02  0.10570000000E+00 0.  1.
         13    1    3    3    0    0 -0.85218512246E+01  0.44692162657E+02  0.49813282408E+01  0.45769380100E+02  0.10570000000E+00 0. -1.
<mgrwt>
<rscale>  0 0.91370608E+02</rscale>
<asrwt>0</asrwt>
<pdfrwt beam="2">  1        4 0.57538973E-02 0.91370608E+02</pdfrwt>
<pdfrwt beam="1">  1       -4 0.85854727E-02 0.91370608E+02</pdfrwt>
<totfact> 0.26731536E+04</totfact>
</mgrwt>
</event>
<event>
 5    1  0.1090823E+000  0.9210354E+02  0.7818608E-02  0.1297836E+00
          4   -1    0    0  501    0  0.00000000000E+00  0.00000000000E+00  0.34839171337E+03  0.34839460722E+03  0.14200000000E+01 0. -1.
         -4   -1    0    0    0  501 -0.00000000000E+00 -0.00000000000E+00 -0.60015302969E+01  0.61672332456E+01  0.14200000000E+01 0.  1.
         23    2    1    2    0    0  0.00000000000E+00  0.00000000000E+00  0.34239018307E+03  0.35456184047E+03  0.92103535515E+02 0.  0.
        -13    1    3    3    0    0  0.38823245450E+02  0.17832498119E+02  0.23737148261E+03  0.24118555991E+03  0.10570000000E+00 0. -1.
         13    1    3    3    0    0 -0.38823245450E+02 -0.17832498119E+02  0.10501870046E+03  0.11337628056E+03  0.10570000000E+00 0.  1.
<mgrwt>
<rscale>  0 0.92103536E+02</rscale>
<asrwt>0</asrwt>
<pdfrwt beam="1">  1        4 0.53611688E-01 0.92103536E+02</pdfrwt>
<pdfrwt beam="2">  1       -4 0.93628145E-03 0.92103536E+02</pdfrwt>
<totfact> 0.15844558E+04</totfact>
</mgrwt>
</event>
<event>
 5    1  0.1090823E+000  0.9131042E+02  0.7818608E-02  0.1299709E+00
         -4   -1    0    0    0  501 -0.00000000000E+00  0.00000000000E+00  0.43045691757E+02  0.43069107013E+02  0.14200000000E+01 0.  1.
          4   -1    0    0  501    0  0.00000000000E+00 -0.00000000000E+00 -0.48375915256E+02  0.48396751718E+02  0.14200000000E+01 0. -1.
         23    2    1    2    0    0  0.00000000000E+00  0.00000000000E+00 -0.53302234984E+01  0.91465858730E+02  0.91310415785E+02 0.  0.
        -13    1    3    3    0    0  0.47896760527E+01 -0.23511325011E+02 -0.41572750782E+02  0.48000293546E+02  0.10570000000E+00 0. -1.
         13    1    3    3    0    0 -0.47896760527E+01  0.23511325011E+02  0.36242527283E+02  0.43465565185E+02  0.10570000000E+00 0.  1.
<mgrwt>
<rscale>  0 0.91310416E+02</rscale>
<asrwt>0</asrwt>
<pdfrwt beam="2">  1        4 0.74458525E-02 0.91310416E+02</pdfrwt>
<pdfrwt beam="1">  1       -4 0.66258181E-02 0.91310416E+02</pdfrwt>
<totfact> 0.26890344E+04</totfact>
</mgrwt>
</event>
<event>
 5    1  0.1090823E+000  0.9650910E+02  0.7818608E-02  0.1287813E+00
         -4   -1    0    0    0  501 -0.00000000000E+00  0.00000000000E+00  0.41010945032E+02  0.41035521349E+02  0.14200000000E+01 0.  1.
          4   -1    0    0  501    0  0.00000000000E+00 -0.00000000000E+00 -0.56727091740E+02  0.56744861770E+02  0.14200000000E+01 0. -1.
         23    2    1    2    0    0  0.00000000000E+00  0.00000000000E+00 -0.15716146708E+02  0.97780383119E+02  0.96509098305E+02 0.  0.
        -13    1    3    3    0    0 -0.12465112612E+02  0.45665798505E+02 -0.17348757633E+02  0.50415620094E+02  0.10570000000E+00 0.  1.
         13    1    3    3    0    0  0.12465112612E+02 -0.45665798505E+02  0.16326109243E+01  0.47364763026E+02  0.10570000000E+00 0. -1.
<mgrwt>
<rscale>  0 0.96509098E+02</rscale>
<asrwt>0</asrwt>
<pdfrwt beam="2">  1        4 0.87305023E-02 0.96509098E+02</pdfrwt>
<pdfrwt beam="1">  1       -4 0.63126336E-02 0.96509098E+02</pdfrwt>
<totfact> 0.22779143E+04</totfact>
</mgrwt>
</event>
<event>
 5    1  0.1090823E+000  0.8880164E+02  0.7818608E-02  0.1305780E+00
         -4   -1    0    0    0  501 -0.00000000000E+00  0.00000000000E+00  0.65452909900E+01  0.66975543405E+01  0.14200000000E+01 0. -1.
          4   -1    0    0  501    0  0.00000000000E+00 -0.00000000000E+00 -0.29758157613E+03  0.29758496409E+03  0.14200000000E+01 0.  1.
         23    2    1    2    0    0  0.00000000000E+00  0.00000000000E+00 -0.29103628514E+03  0.30428251843E+03  0.88801642744E+02 0.  0.
        -13    1    3    3    0    0 -0.37441855176E+02 -0.22102108495E+02 -0.17636197452E+03  0.18164237652E+03  0.10570000000E+00 0.  1.
         13    1    3    3    0    0  0.37441855176E+02  0.22102108495E+02 -0.11467431062E+03  0.12264014191E+03  0.10570000000E+00 0. -1.
<mgrwt>
<rscale>  0 0.88801643E+02</rscale>
<asrwt>0</asrwt>
<pdfrwt beam="2">  1        4 0.45793744E-01 0.88801643E+02</pdfrwt>
<pdfrwt beam="1">  1       -4 0.10189413E-02 0.88801643E+02</pdfrwt>
<totfact> 0.18971322E+04</totfact>
</mgrwt>
</event>
<event>
 5    1  0.1090823E+000  0.1214032E+03  0.7818608E-02  0.1240800E+00
          4   -1    0    0  501    0  0.00000000000E+00  0.00000000000E+00  0.64202334773E+02  0.64218036332E+02  0.14200000000E+01 0. -1.
         -4   -1    0    0    0  501 -0.00000000000E+00 -0.00000000000E+00 -0.57360258859E+02  0.57377832796E+02  0.14200000000E+01 0.  1.
         23    2    1    2    0    0  0.00000000000E+00  0.00000000000E+00  0.68420759148E+01  0.12159586913E+03  0.12140321819E+03 0.  0.
        -13    1    3    3    0    0 -0.32643727333E+02 -0.46367447174E+02 -0.18272535531E+02  0.59577259242E+02  0.10570000000E+00 0.  1.
         13    1    3    3    0    0  0.32643727333E+02  0.46367447174E+02  0.25114611446E+02  0.62018609886E+02  0.10570000000E+00 0. -1.
<mgrwt>
<rscale>  0 0.12140322E+03</rscale>
<asrwt>0</asrwt>
<pdfrwt beam="1">  1        4 0.98798419E-02 0.12140322E+03</pdfrwt>
<pdfrwt beam="2">  1       -4 0.88272149E-02 0.12140322E+03</pdfrwt>
<totfact> 0.11431177E+04</totfact>
</mgrwt>
</event>
<event>
 5    1  0.1090823E+000  0.9003735E+02  0.7818608E-02  0.1302761E+00
         -4   -1    0    0    0  501 -0.00000000000E+00  0.00000000000E+00  0.10909916003E+02  0.11001939247E+02  0.14200000000E+01 0. -1.
          4   -1    0    0  501    0  0.00000000000E+00 -0.00000000000E+00 -0.18489014772E+03  0.18489560061E+03  0.14200000000E+01 0.  1.
         23    2    1    2    0    0  0.00000000000E+00  0.00000000000E+00 -0.17398023172E+03  0.19589753986E+03  0.90037353876E+02 0.  0.
        -13    1    3    3    0    0 -0.25129022957E+01 -0.44427435428E+02 -0.72144257872E+02  0.84763888614E+02  0.10570000000E+00 0.  1.
         13    1    3    3    0    0  0.25129022957E+01  0.44427435428E+02 -0.10183597385E+03  0.11113365124E+03  0.10570000000E+00 0. -1.
<mgrwt>
<rscale>  0 0.90037354E+02</rscale>
<asrwt>0</asrwt>
<pdfrwt beam="2">  1        4 0.28452134E-01 0.90037354E+02</pdfrwt>
<pdfrwt beam="1">  1       -4 0.16859469E-02 0.90037354E+02</pdfrwt>
<totfact> 0.22295434E+04</totfact>
</mgrwt>
</event>
<event>
 5    1  0.1090823E+000  0.9267159E+02  0.7818608E-02  0.1296508E+00
         -4   -1    0    0    0  501 -0.00000000000E+00  0.00000000000E+00  0.12160004902E+03  0.12160833985E+03  0.14200000000E+01 0.  1.
          4   -1    0    0  501    0  0.00000000000E+00 -0.00000000000E+00 -0.17618830690E+02  0.17675960932E+02  0.14200000000E+01 0. -1.
         23    2    1    2    0    0  0.00000000000E+00  0.00000000000E+00  0.10398121833E+03  0.13928430078E+03  0.92671585070E+02 0.  0.
        -13    1    3    3    0    0  0.27770698842E+02 -0.37055566143E+02  0.49535717709E+02  0.67809477198E+02  0.10570000000E+00 0. -1.
         13    1    3    3    0    0 -0.27770698842E+02  0.37055566143E+02  0.54445500618E+02  0.71474823584E+02  0.10570000000E+00 0.  1.
<mgrwt>
<rscale>  0 0.92671585E+02</rscale>
<asrwt>0</asrwt>
<pdfrwt beam="2">  1        4 0.27156218E-02 0.92671585E+02</pdfrwt>
<pdfrwt beam="1">  1       -4 0.18712732E-01 0.92671585E+02</pdfrwt>
<totfact> 0.23181428E+04</totfact>
</mgrwt>
</event>
<event>
 5    1  0.1090823E+000  0.1023138E+03  0.7818608E-02  0.1275504E+00
         -4   -1    0    0    0  501 -0.00000000000E+00  0.00000000000E+00  0.11468263926E+02  0.11555841703E+02  0.14200000000E+01 0.  1.
          4   -1    0    0  501    0  0.00000000000E+00 -0.00000000000E+00 -0.22723964736E+03  0.22724408404E+03  0.14200000000E+01 0. -1.
         23    2    1    2    0    0  0.00000000000E+00  0.00000000000E+00 -0.21577138344E+03  0.23879992575E+03  0.10231380467E+03 0.  0.
        -13    1    3    3    0    0 -0.30830419000E+02 -0.20893567167E+02 -0.26030594443E+02  0.45438517848E+02  0.10570000000E+00 0.  1.
         13    1    3    3    0    0  0.30830419000E+02  0.20893567167E+02 -0.18974078899E+03  0.19336140790E+03  0.10570000000E+00 0. -1.
<mgrwt>
<rscale>  0 0.10231380E+03</rscale>
<asrwt>0</asrwt>
<pdfrwt beam="2">  1        4 0.34967021E-01 0.10231380E+03</pdfrwt>
<pdfrwt beam="1">  1       -4 0.17714265E-02 0.10231380E+03</pdfrwt>
<totfact> 0.14567620E+04</totfact>
</mgrwt>
</event>
<event>
 5    1  0.1090823E+000  0.1016728E+03  0.7818608E-02  0.1276817E+00
          4   -1    0    0  501    0  0.00000000000E+00  0.00000000000E+00  0.15616468969E+03  0.15617114557E+03  0.14200000000E+01 0.  1.
         -4   -1    0    0    0  501 -0.00000000000E+00 -0.00000000000E+00 -0.16511550894E+02  0.16572498693E+02  0.14200000000E+01 0. -1.
         23    2    1    2    0    0  0.00000000000E+00  0.00000000000E+00  0.13965313880E+03  0.17274364426E+03  0.10167284522E+03 0.  0.
        -13    1    3    3    0    0  0.45621143069E+02 -0.85766635383E+01  0.34616246496E+02  0.57906334251E+02  0.10570000000E+00 0. -1.
         13    1    3    3    0    0 -0.45621143069E+02  0.85766635383E+01  0.10503689230E+03  0.11483731001E+03  0.10570000000E+00 0.  1.
<mgrwt>
<rscale>  0 0.10167285E+03</rscale>
<asrwt>0</asrwt>
<pdfrwt beam="1">  1        4 0.24030521E-01 0.10167285E+03</pdfrwt>
<pdfrwt beam="2">  1       -4 0.25454235E-02 0.10167285E+03</pdfrwt>
<totfact> 0.16812035E+04</totfact>
</mgrwt>
</event>
<event>
 5    1  0.1090823E+000  0.1078562E+03  0.7818608E-02  0.1264592E+00
          4   -1    0    0  501    0  0.00000000000E+00  0.00000000000E+00  0.27554016763E+02  0.27590582448E+02  0.14200000000E+01 0. -1.
         -4   -1    0    0    0  501 -0.00000000000E+00 -0.00000000000E+00 -0.10543556267E+03  0.10544512448E+03  0.14200000000E+01 0.  1.
         23    2    1    2    0    0  0.00000000000E+00  0.00000000000E+00 -0.77881545909E+02  0.13303570692E+03  0.10785621968E+03 0.  0.
        -13    1    3    3    0    0  0.39441446712E+02 -0.14068770349E+02  0.29725713198E+01  0.41981012025E+02  0.10570000000E+00 0. -1.
         13    1    3    3    0    0 -0.39441446712E+02  0.14068770349E+02 -0.80854117228E+02  0.91054694899E+02  0.10570000000E+00 0.  1.
<mgrwt>
<rscale>  0 0.10785622E+03</rscale>
<asrwt>0</asrwt>
<pdfrwt beam="1">  1        4 0.42426278E-02 0.10785622E+03</pdfrwt>
<pdfrwt beam="2">  1       -4 0.16224404E-01 0.10785622E+03</pdfrwt>
<totfact> 0.15520880E+04</totfact>
</mgrwt>
</event>
<event>
 5    1  0.1090823E+000  0.9230670E+02  0.7818608E-02  0.1297360E+00
          4   -1    0    0  501    0  0.00000000000E+00  0.00000000000E+00  0.51619042295E+02  0.51638570153E+02  0.14200000000E+01 0.  1.
         -4   -1    0    0    0  501 -0.00000000000E+00 -0.00000000000E+00 -0.41226833603E+02  0.41251281301E+02  0.14200000000E+01 0. -1.
         23    2    1    2    0    0  0.00000000000E+00  0.00000000000E+00  0.10392208692E+02  0.92889851454E+02  0.92306698032E+02 0.  0.
        -13    1    3    3    0    0  0.34430875349E+02  0.22263537132E+02 -0.16126674657E+02  0.44059403888E+02  0.10570000000E+00 0. -1.
         13    1    3    3    0    0 -0.34430875349E+02 -0.22263537132E+02  0.26518883349E+02  0.48830447566E+02  0.10570000000E+00 0.  1.
<mgrwt>
<rscale>  0 0.92306698E+02</rscale>
<asrwt>0</asrwt>
<pdfrwt beam="1">  1        4 0.79447739E-02 0.92306698E+02</pdfrwt>
<pdfrwt beam="2">  1       -4 0.63459725E-02 0.92306698E+02</pdfrwt>
<totfact> 0.26019587E+04</totfact>
</mgrwt>
</event>
<event>
 5    1  0.1090823E+000  0.8652783E+02  0.7818608E-02  0.1311485E+00
          4   -1    0    0  501    0  0.00000000000E+00  0.00000000000E+00  0.12950275058E+03  0.12951053551E+03  0.14200000000E+01 0.  1.
         -4   -1    0    0    0  501 -0.00000000000E+00 -0.00000000000E+00 -0.14410368056E+02  0.14480162551E+02  0.14200000000E+01 0. -1.
         23    2    1    2    0    0  0.00000000000E+00  0.00000000000E+00  0.11509238252E+03  0.14399069806E+03  0.86527825655E+02 0.  0.
        -13    1    3    3    0    0  0.81302630305E+01  0.36360643350E+02  0.94139583600E+02  0.10124460447E+03  0.10570000000E+00 0.  1.
         13    1    3    3    0    0 -0.81302630305E+01 -0.36360643350E+02  0.20952798922E+02  0.42746093587E+02  0.10570000000E+00 0. -1.
<mgrwt>
<rscale>  0 0.86527826E+02</rscale>
<asrwt>0</asrwt>
<pdfrwt beam="1">  1        4 0.19929469E-01 0.86527826E+02</pdfrwt>
<pdfrwt beam="2">  1       -4 0.22229472E-02 0.86527826E+02</pdfrwt>
<totfact> 0.27586731E+04</totfact>
</mgrwt>
</event>
<event>
 5    1  0.1090823E+000  0.9200455E+02  0.7818608E-02  0.1298069E+00
         -4   -1    0    0    0  501 -0.00000000000E+00  0.00000000000E+00  0.23220018714E+02  0.23263397626E+02  0.14200000000E+01 0.  1.
          4   -1    0    0  501    0  0.00000000000E+00 -0.00000000000E+00 -0.91003306698E+02  0.91014384742E+02  0.14200000000E+01 0. -1.
         23    2    1    2    0    0  0.00000000000E+00  0.00000000000E+00 -0.67783287984E+02  0.11427778237E+03  0.92004551045E+02 0.  0.
        -13    1    3    3    0    0  0.43142781033E+02  0.99688529610E+00 -0.14099721211E+02  0.45399412400E+02  0.10570000000E+00 0.  1.
         13    1    3    3    0    0 -0.43142781033E+02 -0.99688529610E+00 -0.53683566773E+02  0.68878369968E+02  0.10570000000E+00 0. -1.
<mgrwt>
<rscale>  0 0.92004551E+02</rscale>
<asrwt>0</asrwt>
<pdfrwt beam="2">  1        4 0.14004698E-01 0.92004551E+02</pdfrwt>
<pdfrwt beam="1">  1       -4 0.35764996E-02 0.92004551E+02</pdfrwt>
<totfact> 0.24981823E+04</totfact>
</mgrwt>
</event>
<event>
 5    1  0.1090823E+000  0.9332561E+02  0.7818608E-02  0.1294992E+00
         -4   -1    0    0    0  501 -0.00000000000E+00  0.00000000000E+00  0.22303302331E+02  0.22348460682E+02  0.14200000000E+01 0.  1.
          4   -1    0    0  501    0  0.00000000000E+00 -0.00000000000E+00 -0.97478517465E+02  0.97488859708E+02  0.14200000000E+01 0. -1.
         23    2    1    2    0    0  0.00000000000E+00  0.00000000000E+00 -0.75175215134E+02  0.11983732039E+03  0.93325614854E+02 0.  0.
        -13    1    3    3    0    0 -0.66834808262E+01 -0.45955031349E+02 -0.43454113689E+02  0.63598781366E+02  0.10570000000E+00 0.  1.
         13    1    3    3    0    0  0.66834808262E+01  0.45955031349E+02 -0.31721101445E+02  0.56238539025E+02  0.10570000000E+00 0. -1.
<mgrwt>
<rscale>  0 0.93325615E+02</rscale>
<asrwt>0</asrwt>
<pdfrwt beam="2">  1        4 0.15000964E-01 0.93325615E+02</pdfrwt>
<pdfrwt beam="1">  1       -4 0.34355466E-02 0.93325615E+02</pdfrwt>
<totfact> 0.23734727E+04</totfact>
</mgrwt>
</event>
<event>
 5    1  0.1090823E+000  0.9074555E+02  0.7818608E-02  0.1301056E+00
          4   -1    0    0  501    0  0.00000000000E+00  0.00000000000E+00  0.61570539492E+02  0.61586912029E+02  0.14200000000E+01 0.  1.
         -4   -1    0    0    0  501 -0.00000000000E+00 -0.00000000000E+00 -0.33400356793E+02  0.33430528472E+02  0.14200000000E+01 0. -1.
         23    2    1    2    0    0  0.00000000000E+00  0.00000000000E+00  0.28170182699E+02  0.95017440501E+02  0.90745549787E+02 0.  0.
        -13    1    3    3    0    0 -0.38356534029E+02  0.23410760321E+02  0.75134828125E+01  0.45560410423E+02  0.10570000000E+00 0. -1.
         13    1    3    3    0    0  0.38356534029E+02 -0.23410760321E+02  0.20656699886E+02  0.49457030078E+02  0.10570000000E+00 0.  1.
<mgrwt>
<rscale>  0 0.90745550E+02</rscale>
<asrwt>0</asrwt>
<pdfrwt beam="1">  1        4 0.94759711E-02 0.90745550E+02</pdfrwt>
<pdfrwt beam="2">  1       -4 0.51420967E-02 0.90745550E+02</pdfrwt>
<totfact> 0.27116779E+04</totfact>
</mgrwt>
</event>
<event>
 5    1  0.1090823E+000  0.9047368E+02  0.7818608E-02  0.1301709E+00
         -4   -1    0    0    0  501 -0.00000000000E+00  0.00000000000E+00  0.30737149466E+02  0.30769932683E+02  0.14200000000E+01 0. -1.
          4   -1    0    0  501    0  0.00000000000E+00 -0.00000000000E+00 -0.66500637966E+02  0.66515796995E+02  0.14200000000E+01 0.  1.
         23    2    1    2    0    0  0.00000000000E+00  0.00000000000E+00 -0.35763488500E+02  0.97285729678E+02  0.90473676223E+02 0.  0.
        -13    1    3    3    0    0 -0.88592445793E+01  0.14991257411E+02 -0.62776186585E+02  0.65146640649E+02  0.10570000000E+00 0.  1.
         13    1    3    3    0    0  0.88592445793E+01 -0.14991257411E+02  0.27012698085E+02  0.32139089029E+02  0.10570000000E+00 0. -1.
<mgrwt>
<rscale>  0 0.90473676E+02</rscale>
<asrwt>0</asrwt>
<pdfrwt beam="2">  1        4 0.10234555E-01 0.90473676E+02</pdfrwt>
<pdfrwt beam="1">  1       -4 0.47324801E-02 0.90473676E+02</pdfrwt>
<totfact> 0.27191218E+04</totfact>
</mgrwt>
</event>
<event>
 5    1  0.1090823E+000  0.9314603E+02  0.7818608E-02  0.1295407E+00
          4   -1    0    0  501    0  0.00000000000E+00  0.00000000000E+00  0.53223638731E+02  0.53242578072E+02  0.14200000000E+01 0. -1.
         -4   -1    0    0    0  501 -0.00000000000E+00 -0.00000000000E+00 -0.40714857498E+02  0.40739612432E+02  0.14200000000E+01 0.  1.
         23    2    1    2    0    0  0.00000000000E+00  0.00000000000E+00  0.12508781232E+02  0.93982190504E+02  0.93146027956E+02 0.  0.
        -13    1    3    3    0    0 -0.22591635144E+02 -0.78071087411E+01  0.46584467435E+02  0.52358921915E+02  0.10570000000E+00 0. -1.
         13    1    3    3    0    0  0.22591635144E+02  0.78071087411E+01 -0.34075686203E+02  0.41623268589E+02  0.10570000000E+00 0.  1.
<mgrwt>
<rscale>  0 0.93146028E+02</rscale>
<asrwt>0</asrwt>
<pdfrwt beam="1">  1        4 0.81916131E-02 0.93146028E+02</pdfrwt>
<pdfrwt beam="2">  1       -4 0.62671854E-02 0.93146028E+02</pdfrwt>
<totfact> 0.25320270E+04</totfact>
</mgrwt>
</event>
<event>
 5    1  0.1090823E+000  0.9042253E+02  0.7818608E-02  0.1301832E+00
         -4   -1    0    0    0  501 -0.00000000000E+00  0.00000000000E+00  0.68359836727E+02  0.68374583562E+02  0.14200000000E+01 0.  1.
          4   -1    0    0  501    0  0.00000000000E+00 -0.00000000000E+00 -0.29866610267E+02  0.29900347972E+02  0.14200000000E+01 0. -1.
         23    2    1    2    0    0  0.00000000000E+00  0.00000000000E+00  0.38493226460E+02  0.98274931534E+02  0.90422528635E+02 0.  0.
        -13    1    3    3    0    0  0.49556822780E+01  0.31227677111E+02  0.54368920155E+02  0.62894493049E+02  0.10570000000E+00 0.  1.
         13    1    3    3    0    0 -0.49556822780E+01 -0.31227677111E+02 -0.15875693695E+02  0.35380438485E+02  0.10570000000E+00 0. -1.
<mgrwt>
<rscale>  0 0.90422529E+02</rscale>
<asrwt>0</asrwt>
<pdfrwt beam="2">  1        4 0.45985927E-02 0.90422529E+02</pdfrwt>
<pdfrwt beam="1">  1       -4 0.10520627E-01 0.90422529E+02</pdfrwt>
<totfact> 0.27169403E+04</totfact>
</mgrwt>
</event>
<event>
 5    1  0.1090823E+000  0.8905950E+02  0.7818608E-02  0.1305145E+00
         -4   -1    0    0    0  501 -0.00000000000E+00  0.00000000000E+00  0.18381152608E+02  0.18435920677E+02  0.14200000000E+01 0.  1.
          4   -1    0    0  501    0  0.00000000000E+00 -0.00000000000E+00 -0.10765680142E+03  0.10766616596E+03  0.14200000000E+01 0. -1.
         23    2    1    2    0    0  0.00000000000E+00  0.00000000000E+00 -0.89275648811E+02  0.12610208663E+03  0.89059501361E+02 0.  0.
        -13    1    3    3    0    0  0.39011485758E+02  0.21397388934E+02 -0.47148157802E+02  0.64828267220E+02  0.10570000000E+00 0. -1.
         13    1    3    3    0    0 -0.39011485758E+02 -0.21397388934E+02 -0.42127491009E+02  0.61273819413E+02  0.10570000000E+00 0.  1.
<mgrwt>
<rscale>  0 0.89059501E+02</rscale>
<asrwt>0</asrwt>
<pdfrwt beam="2">  1        4 0.16567518E-01 0.89059501E+02</pdfrwt>
<pdfrwt beam="1">  1       -4 0.28328030E-02 0.89059501E+02</pdfrwt>
<totfact> 0.26558036E+04</totfact>
</mgrwt>
</event>
<event>
 5    1  0.1090823E+000  0.8970939E+02  0.7818608E-02  0.1303557E+00
         -4   -1    0    0    0  501 -0.00000000000E+00  0.00000000000E+00  0.60497698438E+02  0.60514361240E+02  0.14200000000E+01 0.  1.
          4   -1    0    0  501    0  0.00000000000E+00 -0.00000000000E+00 -0.33220124139E+02  0.33250459363E+02  0.14200000000E+01 0. -1.
         23    2    1    2    0    0  0.00000000000E+00  0.00000000000E+00  0.27277574299E+02  0.93764820603E+02  0.89709394843E+02 0.  0.
        -13    1    3    3    0    0 -0.37747949639E+01 -0.44665983189E+02  0.11942595127E+02  0.46388962934E+02  0.10570000000E+00 0.  1.
         13    1    3    3    0    0  0.37747949639E+01  0.44665983189E+02  0.15334979172E+02  0.47375857669E+02  0.10570000000E+00 0. -1.
<mgrwt>
<rscale>  0 0.89709395E+02</rscale>
<asrwt>0</asrwt>
<pdfrwt beam="2">  1        4 0.51144036E-02 0.89709395E+02</pdfrwt>
<pdfrwt beam="1">  1       -4 0.93109533E-02 0.89709395E+02</pdfrwt>
<totfact> 0.28055272E+04</totfact>
</mgrwt>
</event>
<event>
 5    1  0.1090823E+000  0.8983074E+02  0.7818608E-02  0.1303262E+00
         -4   -1    0    0    0  501 -0.00000000000E+00  0.00000000000E+00  0.10935282888E+03  0.10936204819E+03  0.14200000000E+01 0.  1.
          4   -1    0    0  501    0  0.00000000000E+00 -0.00000000000E+00 -0.18411114418E+02  0.18465793622E+02  0.14200000000E+01 0. -1.
         23    2    1    2    0    0  0.00000000000E+00  0.00000000000E+00  0.90941714459E+02  0.12782784181E+03  0.89830739241E+02 0.  0.
        -13    1    3    3    0    0 -0.32381978365E+02  0.30850869605E+02  0.39601912621E+02  0.59738524705E+02  0.10570000000E+00 0. -1.
         13    1    3    3    0    0  0.32381978365E+02 -0.30850869605E+02  0.51339801837E+02  0.68089317102E+02  0.10570000000E+00 0.  1.
<mgrwt>
<rscale>  0 0.89830739E+02</rscale>
<asrwt>0</asrwt>
<pdfrwt beam="2">  1        4 0.28373944E-02 0.89830739E+02</pdfrwt>
<pdfrwt beam="1">  1       -4 0.16828427E-01 0.89830739E+02</pdfrwt>
<totfact> 0.25850733E+04</totfact>
</mgrwt>
</event>
<event>
 5    1  0.1090823E+000  0.8924050E+02  0.7818608E-02  0.1304701E+00
         -4   -1    0    0    0  501 -0.00000000000E+00  0.00000000000E+00  0.12860732111E+03  0.12861516024E+03  0.14200000000E+01 0.  1.
          4   -1    0    0  501    0  0.00000000000E+00 -0.00000000000E+00 -0.15440082090E+02  0.15505242176E+02  0.14200000000E+01 0. -1.
         23    2    1    2    0    0  0.00000000000E+00  0.00000000000E+00  0.11316723902E+03  0.14412040241E+03  0.89240497559E+02 0.  0.
        -13    1    3    3    0    0 -0.90103545997E+01 -0.23965571577E+02  0.11559998673E+03  0.11840144938E+03  0.10570000000E+00 0.  1.
         13    1    3    3    0    0  0.90103545997E+01  0.23965571577E+02 -0.24327477139E+01  0.25718953030E+02  0.10570000000E+00 0. -1.
<mgrwt>
<rscale>  0 0.89240498E+02</rscale>
<asrwt>0</asrwt>
<pdfrwt beam="2">  1        4 0.23810125E-02 0.89240498E+02</pdfrwt>
<pdfrwt beam="1">  1       -4 0.19791358E-01 0.89240498E+02</pdfrwt>
<totfact> 0.25393468E+04</totfact>
</mgrwt>
</event>
<event>
 5    1  0.1090823E+000  0.8964705E+02  0.7818608E-02  0.1303709E+00
         -4   -1    0    0    0  501 -0.00000000000E+00  0.00000000000E+00  0.38869146861E+02  0.38895076522E+02  0.14200000000E+01 0.  1.
          4   -1    0    0  501    0  0.00000000000E+00 -0.00000000000E+00 -0.51637131011E+02  0.51656652031E+02  0.14200000000E+01 0. -1.
         23    2    1    2    0    0  0.00000000000E+00  0.00000000000E+00 -0.12767984150E+02  0.90551728553E+02  0.89647053073E+02 0.  0.
        -13    1    3    3    0    0 -0.80988986049E+00  0.43310324905E+02  0.52516833033E+01  0.43635209579E+02  0.10570000000E+00 0.  1.
         13    1    3    3    0    0  0.80988986049E+00 -0.43310324905E+02 -0.18019667454E+02  0.46916518974E+02  0.10570000000E+00 0. -1.
<mgrwt>
<rscale>  0 0.89647053E+02</rscale>
<asrwt>0</asrwt>
<pdfrwt beam="2">  1        4 0.79476702E-02 0.89647053E+02</pdfrwt>
<pdfrwt beam="1">  1       -4 0.59833650E-02 0.89647053E+02</pdfrwt>
<totfact> 0.28325058E+04</totfact>
</mgrwt>
</event>
<event>
 5    1  0.1090823E+000  0.8994581E+02  0.7818608E-02  0.1302983E+00
         -4   -1    0    0    0  501 -0.00000000000E+00  0.00000000000E+00  0.47507152470E+02  0.47528369800E+02  0.14200000000E+01 0. -1.
          4   -1    0    0  501    0  0.00000000000E+00 -0.00000000000E+00 -0.42531275752E+02  0.42554974059E+02  0.14200000000E+01 0.  1.
         23    2    1    2    0    0  0.00000000000E+00  0.00000000000E+00  0.49758767180E+01  0.90083343859E+02  0.89945814197E+02 0.  0.
        -13    1    3    3    0    0  0.19956861251E+02  0.29622745290E+02 -0.24880898931E+02  0.43529916765E+02  0.10570000000E+00 0.  1.
         13    1    3    3    0    0 -0.19956861251E+02 -0.29622745290E+02  0.29856775649E+02  0.46553427093E+02  0.10570000000E+00 0. -1.
<mgrwt>
<rscale>  0 0.89945814E+02</rscale>
<asrwt>0</asrwt>
<pdfrwt beam="2">  1        4 0.65467282E-02 0.89945814E+02</pdfrwt>
<pdfrwt beam="1">  1       -4 0.73122478E-02 0.89945814E+02</pdfrwt>
<totfact> 0.28102786E+04</totfact>
</mgrwt>
</event>
<event>
 5    1  0.1090823E+000  0.9171762E+02  0.7818608E-02  0.1298745E+00
         -4   -1    0    0    0  501 -0.00000000000E+00  0.00000000000E+00  0.13231540953E+02  0.13307519529E+02  0.14200000000E+01 0.  1.
          4   -1    0    0  501    0  0.00000000000E+00 -0.00000000000E+00 -0.15840651161E+03  0.15841287612E+03  0.14200000000E+01 0. -1.
         23    2    1    2    0    0  0.00000000000E+00  0.00000000000E+00 -0.14517497066E+03  0.17172039565E+03  0.91717621951E+02 0.  0.
        -13    1    3    3    0    0  0.10740543897E+02  0.34346231393E+02 -0.19367613006E+02  0.40867328028E+02  0.10570000000E+00 0.  1.
         13    1    3    3    0    0 -0.10740543897E+02 -0.34346231393E+02 -0.12580735765E+03  0.13085306762E+03  0.10570000000E+00 0. -1.
<mgrwt>
<rscale>  0 0.91717622E+02</rscale>
<asrwt>0</asrwt>
<pdfrwt beam="2">  1        4 0.24376565E-01 0.91717622E+02</pdfrwt>
<pdfrwt beam="1">  1       -4 0.20419559E-02 0.91717622E+02</pdfrwt>
<totfact> 0.22270717E+04</totfact>
</mgrwt>
</event>
<event>
 5    1  0.1090823E+000  0.9020563E+02  0.7818608E-02  0.1302354E+00
          4   -1    0    0  501    0  0.00000000000E+00  0.00000000000E+00  0.22123680122E+02  0.22169204365E+02  0.14200000000E+01 0. -1.
         -4   -1    0    0    0  501 -0.00000000000E+00 -0.00000000000E+00 -0.91804099386E+02  0.91815080809E+02  0.14200000000E+01 0.  1.
         23    2    1    2    0    0  0.00000000000E+00  0.00000000000E+00 -0.69680419263E+02  0.11398428517E+03  0.90205634181E+02 0.  0.
        -13    1    3    3    0    0 -0.16670612928E+02  0.41373923678E+02 -0.26406932486E+02  0.51836745189E+02  0.10570000000E+00 0.  1.
         13    1    3    3    0    0  0.16670612928E+02 -0.41373923678E+02 -0.43273486777E+02  0.62147539985E+02  0.10570000000E+00 0. -1.
<mgrwt>
<rscale>  0 0.90205634E+02</rscale>
<asrwt>0</asrwt>
<pdfrwt beam="1">  1        4 0.34079897E-02 0.90205634E+02</pdfrwt>
<pdfrwt beam="2">  1       -4 0.14128054E-01 0.90205634E+02</pdfrwt>
<totfact> 0.26369406E+04</totfact>
</mgrwt>
</event>
<event>
 5    1  0.1090823E+000  0.9152189E+02  0.7818608E-02  0.1299208E+00
         -4   -1    0    0    0  501 -0.00000000000E+00  0.00000000000E+00  0.48929759691E+02  0.48950360401E+02  0.14200000000E+01 0.  1.
          4   -1    0    0  501    0  0.00000000000E+00 -0.00000000000E+00 -0.42755949117E+02  0.42779522962E+02  0.14200000000E+01 0. -1.
         23    2    1    2    0    0  0.00000000000E+00  0.00000000000E+00  0.61738105742E+01  0.91729883364E+02  0.91521885715E+02 0.  0.
        -13    1    3    3    0    0 -0.14129301823E+02  0.30965074165E+02 -0.27569856812E+02  0.43801611444E+02  0.10570000000E+00 0. -1.
         13    1    3    3    0    0  0.14129301823E+02 -0.30965074165E+02  0.33743667386E+02  0.47928271919E+02  0.10570000000E+00 0.  1.
<mgrwt>
<rscale>  0 0.91521886E+02</rscale>
<asrwt>0</asrwt>
<pdfrwt beam="2">  1        4 0.65812364E-02 0.91521886E+02</pdfrwt>
<pdfrwt beam="1">  1       -4 0.75310533E-02 0.91521886E+02</pdfrwt>
<totfact> 0.26704836E+04</totfact>
</mgrwt>
</event>
<event>
 5    1  0.1090823E+000  0.8897925E+02  0.7818608E-02  0.1305343E+00
          4   -1    0    0  501    0  0.00000000000E+00  0.00000000000E+00  0.23033059909E+02  0.23076790261E+02  0.14200000000E+01 0. -1.
         -4   -1    0    0    0  501 -0.00000000000E+00 -0.00000000000E+00 -0.85803050521E+02  0.85814799882E+02  0.14200000000E+01 0.  1.
         23    2    1    2    0    0  0.00000000000E+00  0.00000000000E+00 -0.62769990613E+02  0.10889159014E+03  0.88979248605E+02 0.  0.
        -13    1    3    3    0    0 -0.11303413010E+02  0.38604898367E+02 -0.81262869344E+01  0.41038433638E+02  0.10570000000E+00 0. -1.
         13    1    3    3    0    0  0.11303413010E+02 -0.38604898367E+02 -0.54643703678E+02  0.67853156505E+02  0.10570000000E+00 0.  1.
<mgrwt>
<rscale>  0 0.88979249E+02</rscale>
<asrwt>0</asrwt>
<pdfrwt beam="1">  1        4 0.35478154E-02 0.88979249E+02</pdfrwt>
<pdfrwt beam="2">  1       -4 0.13204737E-01 0.88979249E+02</pdfrwt>
<totfact> 0.27681180E+04</totfact>
</mgrwt>
</event>
<event>
 5    1  0.1090823E+000  0.9083668E+02  0.7818608E-02  0.1300838E+00
          4   -1    0    0  501    0  0.00000000000E+00  0.00000000000E+00  0.20797368113E+02  0.20845789033E+02  0.14200000000E+01 0. -1.
         -4   -1    0    0    0  501 -0.00000000000E+00 -0.00000000000E+00 -0.99018017320E+02  0.99028198782E+02  0.14200000000E+01 0.  1.
         23    2    1    2    0    0  0.00000000000E+00  0.00000000000E+00 -0.78220649207E+02  0.11987398782E+03  0.90836683077E+02 0.  0.
        -13    1    3    3    0    0  0.28380316107E+02  0.32202997115E+02 -0.58699203429E+02  0.72719206687E+02  0.10570000000E+00 0.  1.
         13    1    3    3    0    0 -0.28380316107E+02 -0.32202997115E+02 -0.19521445778E+02  0.47154781129E+02  0.10570000000E+00 0. -1.
<mgrwt>
<rscale>  0 0.90836683E+02</rscale>
<asrwt>0</asrwt>
<pdfrwt beam="1">  1        4 0.32041030E-02 0.90836683E+02</pdfrwt>
<pdfrwt beam="2">  1       -4 0.15238049E-01 0.90836683E+02</pdfrwt>
<totfact> 0.25536275E+04</totfact>
</mgrwt>
</event>
<event>
 5    1  0.1090823E+000  0.9243293E+02  0.7818608E-02  0.1297065E+00
         -4   -1    0    0    0  501 -0.00000000000E+00  0.00000000000E+00  0.11588315528E+03  0.11589185509E+03  0.14200000000E+01 0.  1.
          4   -1    0    0  501    0  0.00000000000E+00 -0.00000000000E+00 -0.18395270879E+02  0.18449997039E+02  0.14200000000E+01 0. -1.
         23    2    1    2    0    0  0.00000000000E+00  0.00000000000E+00  0.97487884397E+02  0.13434185213E+03  0.92432925031E+02 0.  0.
        -13    1    3    3    0    0  0.17107317914E+02  0.42400762708E+02  0.38943981501E+02  0.60059386211E+02  0.10570000000E+00 0. -1.
         13    1    3    3    0    0 -0.17107317914E+02 -0.42400762708E+02  0.58543902896E+02  0.74282465920E+02  0.10570000000E+00 0.  1.
<mgrwt>
<rscale>  0 0.92432925E+02</rscale>
<asrwt>0</asrwt>
<pdfrwt beam="2">  1        4 0.28349206E-02 0.92432925E+02</pdfrwt>
<pdfrwt beam="1">  1       -4 0.17833056E-01 0.92432925E+02</pdfrwt>
<totfact> 0.23594787E+04</totfact>
</mgrwt>
</event>
<event>
 5    1  0.1090823E+000  0.9160119E+02  0.7818608E-02  0.1299020E+00
         -4   -1    0    0    0  501 -0.00000000000E+00  0.00000000000E+00  0.41601784185E+02  0.41626011668E+02  0.14200000000E+01 0.  1.
          4   -1    0    0  501    0  0.00000000000E+00 -0.00000000000E+00 -0.50374273747E+02  0.50394283957E+02  0.14200000000E+01 0. -1.
         23    2    1    2    0    0  0.00000000000E+00  0.00000000000E+00 -0.87724895616E+01  0.92020295625E+02  0.91601191225E+02 0.  0.
        -13    1    3    3    0    0 -0.37287138415E+02  0.71023471564E+01  0.21361264749E+02  0.43555583229E+02  0.10570000000E+00 0.  1.
         13    1    3    3    0    0  0.37287138415E+02 -0.71023471564E+01 -0.30133754310E+02  0.48464712396E+02  0.10570000000E+00 0. -1.
<mgrwt>
<rscale>  0 0.91601191E+02</rscale>
<asrwt>0</asrwt>
<pdfrwt beam="2">  1        4 0.77532912E-02 0.91601191E+02</pdfrwt>
<pdfrwt beam="1">  1       -4 0.64036774E-02 0.91601191E+02</pdfrwt>
<totfact> 0.26623667E+04</totfact>
</mgrwt>
</event>
<event>
 5    1  0.1090823E+000  0.8946844E+02  0.7818608E-02  0.1304144E+00
         -4   -1    0    0    0  501 -0.00000000000E+00  0.00000000000E+00  0.21040780217E+03  0.21041259376E+03  0.14200000000E+01 0. -1.
          4   -1    0    0  501    0  0.00000000000E+00 -0.00000000000E+00 -0.94528874226E+01  0.95589476735E+01  0.14200000000E+01 0.  1.
         23    2    1    2    0    0  0.00000000000E+00  0.00000000000E+00  0.20095491475E+03  0.21997154144E+03  0.89468437344E+02 0.  0.
        -13    1    3    3    0    0 -0.10224596945E+02 -0.43546820642E+02  0.99197124002E+02  0.10881612267E+03  0.10570000000E+00 0.  1.
         13    1    3    3    0    0  0.10224596945E+02  0.43546820642E+02  0.10175779075E+03  0.11115541876E+03  0.10570000000E+00 0. -1.
<mgrwt>
<rscale>  0 0.89468437E+02</rscale>
<asrwt>0</asrwt>
<pdfrwt beam="2">  1        4 0.14628172E-02 0.89468437E+02</pdfrwt>
<pdfrwt beam="1">  1       -4 0.32378963E-01 0.89468437E+02</pdfrwt>
<totfact> 0.21643878E+04</totfact>
</mgrwt>
</event>
<event>
 5    1  0.1090823E+000  0.9006337E+02  0.7818608E-02  0.1302698E+00
         -4   -1    0    0    0  501 -0.00000000000E+00  0.00000000000E+00  0.37425450555E+03  0.37425719943E+03  0.14200000000E+01 0.  1.
          4   -1    0    0  501    0  0.00000000000E+00 -0.00000000000E+00 -0.53225831055E+01  0.55087467644E+01  0.14200000000E+01 0. -1.
         23    2    1    2    0    0  0.00000000000E+00  0.00000000000E+00  0.36893192244E+03  0.37976594619E+03  0.90063369299E+02 0.  0.
        -13    1    3    3    0    0 -0.97363352181E+01 -0.43756710940E+02  0.16638076096E+03  0.17231371033E+03  0.10570000000E+00 0. -1.
         13    1    3    3    0    0  0.97363352181E+01  0.43756710940E+02  0.20255116148E+03  0.20745223586E+03  0.10570000000E+00 0.  1.
<mgrwt>
<rscale>  0 0.90063369E+02</rscale>
<asrwt>0</asrwt>
<pdfrwt beam="2">  1        4 0.83338648E-03 0.90063369E+02</pdfrwt>
<pdfrwt beam="1">  1       -4 0.57592141E-01 0.90063369E+02</pdfrwt>
<totfact> 0.16151200E+04</totfact>
</mgrwt>
</event>
<event>
 4    1  0.1090823E+000  0.4238225E+02  0.7818608E-02  0.1491378E+00
         -4   -1    0    0    0  501 -0.00000000000E+00  0.00000000000E+00  0.56443814226E+01  0.58202613037E+01  0.14200000000E+01 0. -1.
          4   -1    0    0  501    0  0.00000000000E+00 -0.00000000000E+00 -0.78156472547E+02  0.78169371246E+02  0.14200000000E+01 0.  1.
        -13    1    1    2    0    0 -0.60881497209E+00  0.19455147174E+02 -0.52857487534E+02  0.56327600411E+02  0.10570000000E+00 0.  1.
         13    1    1    2    0    0  0.60881497209E+00 -0.19455147174E+02 -0.19654603590E+02  0.27662032138E+02  0.10570000000E+00 0. -1.
<mgrwt>
<rscale>  0 0.42382249E+02</rscale>
<asrwt>0</asrwt>
<pdfrwt beam="2">  1        4 0.12038593E-01 0.42382249E+02</pdfrwt>
<pdfrwt beam="1">  1       -4 0.88288786E-03 0.42382249E+02</pdfrwt>
<totfact> 0.19538069E+05</totfact>
</mgrwt>
</event>
<event>
 5    1  0.1090823E+000  0.8843576E+02  0.7818608E-02  0.1306685E+00
          4   -1    0    0  501    0  0.00000000000E+00  0.00000000000E+00  0.17774443240E+03  0.17775010450E+03  0.14200000000E+01 0. -1.
         -4   -1    0    0    0  501 -0.00000000000E+00 -0.00000000000E+00 -0.10948481569E+02  0.11040183362E+02  0.14200000000E+01 0.  1.
         23    2    1    2    0    0  0.00000000000E+00  0.00000000000E+00  0.16679595083E+03  0.18879028786E+03  0.88435759605E+02 0.  0.
        -13    1    3    3    0    0 -0.21198173007E+02 -0.26589228974E+02  0.14373544591E+03  0.14770321330E+03  0.10570000000E+00 0. -1.
         13    1    3    3    0    0  0.21198173007E+02  0.26589228974E+02  0.23060504924E+02  0.41087074562E+02  0.10570000000E+00 0.  1.
<mgrwt>
<rscale>  0 0.88435760E+02</rscale>
<asrwt>0</asrwt>
<pdfrwt beam="1">  1        4 0.27352786E-01 0.88435760E+02</pdfrwt>
<pdfrwt beam="2">  1       -4 0.16918722E-02 0.88435760E+02</pdfrwt>
<totfact> 0.23719949E+04</totfact>
</mgrwt>
</event>
<event>
 5    1  0.1090823E+000  0.8946235E+02  0.7818608E-02  0.1304159E+00
          4   -1    0    0  501    0  0.00000000000E+00  0.00000000000E+00  0.70884761939E+01  0.72293080410E+01  0.14200000000E+01 0. -1.
         -4   -1    0    0    0  501 -0.00000000000E+00 -0.00000000000E+00 -0.27935285244E+03  0.27935646147E+03  0.14200000000E+01 0.  1.
         23    2    1    2    0    0  0.00000000000E+00  0.00000000000E+00 -0.27226437624E+03  0.28658576951E+03  0.89462353617E+02 0.  0.
        -13    1    3    3    0    0  0.32409307248E+02 -0.17619995409E+02 -0.55088776493E+02  0.66299411027E+02  0.10570000000E+00 0. -1.
         13    1    3    3    0    0 -0.32409307248E+02  0.17619995409E+02 -0.21717559975E+03  0.22028635848E+03  0.10570000000E+00 0.  1.
<mgrwt>
<rscale>  0 0.89462354E+02</rscale>
<asrwt>0</asrwt>
<pdfrwt beam="1">  1        4 0.11016459E-02 0.89462354E+02</pdfrwt>
<pdfrwt beam="2">  1       -4 0.42988464E-01 0.89462354E+02</pdfrwt>
<totfact> 0.19179257E+04</totfact>
</mgrwt>
</event>
<event>
 5    1  0.1090823E+000  0.9155084E+02  0.7818608E-02  0.1299139E+00
          4   -1    0    0  501    0  0.00000000000E+00  0.00000000000E+00  0.28712020503E+02  0.28747113271E+02  0.14200000000E+01 0. -1.
         -4   -1    0    0    0  501 -0.00000000000E+00 -0.00000000000E+00 -0.72892922346E+02  0.72906752280E+02  0.14200000000E+01 0.  1.
         23    2    1    2    0    0  0.00000000000E+00  0.00000000000E+00 -0.44180901842E+02  0.10165386555E+03  0.91550839941E+02 0.  0.
        -13    1    3    3    0    0 -0.39020965004E+02 -0.11603055120E+02  0.11504946628E+01  0.40725930418E+02  0.10570000000E+00 0. -1.
         13    1    3    3    0    0  0.39020965004E+02  0.11603055120E+02 -0.45331396505E+02  0.60927935133E+02  0.10570000000E+00 0.  1.
<mgrwt>
<rscale>  0 0.91550840E+02</rscale>
<asrwt>0</asrwt>
<pdfrwt beam="1">  1        4 0.44209972E-02 0.91550840E+02</pdfrwt>
<pdfrwt beam="2">  1       -4 0.11218059E-01 0.91550840E+02</pdfrwt>
<totfact> 0.26064876E+04</totfact>
</mgrwt>
</event>
<event>
 5    1  0.1090823E+000  0.9308928E+02  0.7818608E-02  0.1295538E+00
         -4   -1    0    0    0  501 -0.00000000000E+00  0.00000000000E+00  0.14239659733E+03  0.14240367738E+03  0.14200000000E+01 0.  1.
          4   -1    0    0  501    0  0.00000000000E+00 -0.00000000000E+00 -0.15173263379E+02  0.15239564350E+02  0.14200000000E+01 0. -1.
         23    2    1    2    0    0  0.00000000000E+00  0.00000000000E+00  0.12722333395E+03  0.15764324173E+03  0.93089284891E+02 0.  0.
        -13    1    3    3    0    0 -0.27772939568E+02  0.19825738194E+02  0.11721709466E+03  0.12208298211E+03  0.10570000000E+00 0.  1.
         13    1    3    3    0    0  0.27772939568E+02 -0.19825738194E+02  0.10006239291E+02  0.35560259622E+02  0.10570000000E+00 0. -1.
<mgrwt>
<rscale>  0 0.93089285E+02</rscale>
<asrwt>0</asrwt>
<pdfrwt beam="2">  1        4 0.23399930E-02 0.93089285E+02</pdfrwt>
<pdfrwt beam="1">  1       -4 0.21912812E-01 0.93089285E+02</pdfrwt>
<totfact> 0.22026797E+04</totfact>
</mgrwt>
</event>
<event>
 5    1  0.1090823E+000  0.8736650E+02  0.7818608E-02  0.1309357E+00
          4   -1    0    0  501    0  0.00000000000E+00  0.00000000000E+00  0.37447040151E+02  0.37473953835E+02  0.14200000000E+01 0. -1.
         -4   -1    0    0    0  501 -0.00000000000E+00 -0.00000000000E+00 -0.50902881266E+02  0.50922683759E+02  0.14200000000E+01 0.  1.
         23    2    1    2    0    0  0.00000000000E+00  0.00000000000E+00 -0.13455841116E+02  0.88396637594E+02  0.87366503179E+02 0.  0.
        -13    1    3    3    0    0 -0.29736655196E+02  0.10029143762E+02  0.24017256970E+02  0.39518251374E+02  0.10570000000E+00 0. -1.
         13    1    3    3    0    0  0.29736655196E+02 -0.10029143762E+02 -0.37473098085E+02  0.48878386220E+02  0.10570000000E+00 0.  1.
<mgrwt>
<rscale>  0 0.87366503E+02</rscale>
<asrwt>0</asrwt>
<pdfrwt beam="1">  1        4 0.57646766E-02 0.87366503E+02</pdfrwt>
<pdfrwt beam="2">  1       -4 0.78348061E-02 0.87366503E+02</pdfrwt>
<totfact> 0.30523390E+04</totfact>
</mgrwt>
</event>
<event>
 5    1  0.1090823E+000  0.8573137E+02  0.7818608E-02  0.1313531E+00
          4   -1    0    0  501    0  0.00000000000E+00  0.00000000000E+00  0.18528331011E+03  0.18528875143E+03  0.14200000000E+01 0. -1.
         -4   -1    0    0    0  501 -0.00000000000E+00 -0.00000000000E+00 -0.98606189804E+01  0.99623394178E+01  0.14200000000E+01 0.  1.
         23    2    1    2    0    0  0.00000000000E+00  0.00000000000E+00  0.17542269113E+03  0.19525109084E+03  0.85731370646E+02 0.  0.
        -13    1    3    3    0    0 -0.17173980599E+02 -0.29829592716E+02  0.14589652384E+03  0.14990182472E+03  0.10570000000E+00 0. -1.
         13    1    3    3    0    0  0.17173980599E+02  0.29829592716E+02  0.29526167285E+02  0.45349266127E+02  0.10570000000E+00 0.  1.
<mgrwt>
<rscale>  0 0.85731371E+02</rscale>
<asrwt>0</asrwt>
<pdfrwt beam="1">  1        4 0.28513365E-01 0.85731371E+02</pdfrwt>
<pdfrwt beam="2">  1       -4 0.15252617E-02 0.85731371E+02</pdfrwt>
<totfact> 0.25432463E+04</totfact>
</mgrwt>
</event>
<event>
 5    1  0.1090823E+000  0.8951819E+02  0.7818608E-02  0.1304023E+00
         -4   -1    0    0    0  501 -0.00000000000E+00  0.00000000000E+00  0.47953175478E+02  0.47974195547E+02  0.14200000000E+01 0.  1.
          4   -1    0    0  501    0  0.00000000000E+00 -0.00000000000E+00 -0.41735515211E+02  0.41759665108E+02  0.14200000000E+01 0. -1.
         23    2    1    2    0    0  0.00000000000E+00  0.00000000000E+00  0.62176602671E+01  0.89733860655E+02  0.89518190603E+02 0.  0.
        -13    1    3    3    0    0  0.88109594381E+01 -0.37513327456E+02  0.25933903976E+02  0.46448479964E+02  0.10570000000E+00 0.  1.
         13    1    3    3    0    0 -0.88109594381E+01  0.37513327456E+02 -0.19716243709E+02  0.43285380691E+02  0.10570000000E+00 0. -1.
<mgrwt>
<rscale>  0 0.89518191E+02</rscale>
<asrwt>0</asrwt>
<pdfrwt beam="2">  1        4 0.64243231E-02 0.89518191E+02</pdfrwt>
<pdfrwt beam="1">  1       -4 0.73808862E-02 0.89518191E+02</pdfrwt>
<totfact> 0.28491212E+04</totfact>
</mgrwt>
</event>
<event>
 5    1  0.1090823E+000  0.1071409E+03  0.7818608E-02  0.1265958E+00
          4   -1    0    0  501    0  0.00000000000E+00  0.00000000000E+00  0.12724413489E+03  0.12725205799E+03  0.14200000000E+01 0. -1.
         -4   -1    0    0    0  501 -0.00000000000E+00 -0.00000000000E+00 -0.22522440518E+02  0.22567160364E+02  0.14200000000E+01 0.  1.
         23    2    1    2    0    0  0.00000000000E+00  0.00000000000E+00  0.10472169437E+03  0.14981921836E+03  0.10714086483E+03 0.  0.
        -13    1    3    3    0    0  0.23632816164E+02  0.77234518745E+01 -0.13992031428E+02  0.28529805900E+02  0.10570000000E+00 0.  1.
         13    1    3    3    0    0 -0.23632816164E+02 -0.77234518745E+01  0.11871372580E+03  0.12128941246E+03  0.10570000000E+00 0. -1.
<mgrwt>
<rscale>  0 0.10714086E+03</rscale>
<asrwt>0</asrwt>
<pdfrwt beam="1">  1        4 0.19580070E-01 0.10714086E+03</pdfrwt>
<pdfrwt beam="2">  1       -4 0.34690403E-02 0.10714086E+03</pdfrwt>
<totfact> 0.15261959E+04</totfact>
</mgrwt>
</event>
<event>
 5    1  0.1090823E+000  0.9705924E+02  0.7818608E-02  0.1286604E+00
         -4   -1    0    0    0  501 -0.00000000000E+00  0.00000000000E+00  0.11737917963E+02  0.11823498556E+02  0.14200000000E+01 0. -1.
          4   -1    0    0  501    0  0.00000000000E+00 -0.00000000000E+00 -0.19982549594E+03  0.19983054128E+03  0.14200000000E+01 0.  1.
         23    2    1    2    0    0  0.00000000000E+00  0.00000000000E+00 -0.18808757798E+03  0.21165403984E+03  0.97059237525E+02 0.  0.
        -13    1    3    3    0    0 -0.12993984136E+02  0.41564909719E+02 -0.47343488313E+02  0.64326529533E+02  0.10570000000E+00 0. -1.
         13    1    3    3    0    0  0.12993984136E+02 -0.41564909719E+02 -0.14074408967E+03  0.14732751031E+03  0.10570000000E+00 0.  1.
<mgrwt>
<rscale>  0 0.97059238E+02</rscale>
<asrwt>0</asrwt>
<pdfrwt beam="2">  1        4 0.30749353E-01 0.97059238E+02</pdfrwt>
<pdfrwt beam="1">  1       -4 0.18128049E-02 0.97059238E+02</pdfrwt>
<totfact> 0.17672839E+04</totfact>
</mgrwt>
</event>
<event>
 5    1  0.1090823E+000  0.9194189E+02  0.7818608E-02  0.1298216E+00
          4   -1    0    0  501    0  0.00000000000E+00  0.00000000000E+00  0.11840689893E+03  0.11841541333E+03  0.14200000000E+01 0. -1.
         -4   -1    0    0    0  501 -0.00000000000E+00 -0.00000000000E+00 -0.17810597359E+02  0.17867114436E+02  0.14200000000E+01 0.  1.
         23    2    1    2    0    0  0.00000000000E+00  0.00000000000E+00  0.10059630157E+03  0.13628252777E+03  0.91941891893E+02 0.  0.
        -13    1    3    3    0    0 -0.26481701358E+02  0.35333251834E+02  0.69257135859E+02  0.82135748806E+02  0.10570000000E+00 0.  1.
         13    1    3    3    0    0  0.26481701358E+02 -0.35333251834E+02  0.31339165714E+02  0.54146778964E+02  0.10570000000E+00 0. -1.
<mgrwt>
<rscale>  0 0.91941892E+02</rscale>
<asrwt>0</asrwt>
<pdfrwt beam="1">  1        4 0.18221448E-01 0.91941892E+02</pdfrwt>
<pdfrwt beam="2">  1       -4 0.27450943E-02 0.91941892E+02</pdfrwt>
<totfact> 0.23836457E+04</totfact>
</mgrwt>
</event>
<event>
 5    1  0.1090823E+000  0.9206755E+02  0.7818608E-02  0.1297921E+00
         -4   -1    0    0    0  501 -0.00000000000E+00  0.00000000000E+00  0.12448090894E+03  0.12448900791E+03  0.14200000000E+01 0.  1.
          4   -1    0    0  501    0  0.00000000000E+00 -0.00000000000E+00 -0.16985280712E+02  0.17044534633E+02  0.14200000000E+01 0. -1.
         23    2    1    2    0    0  0.00000000000E+00  0.00000000000E+00  0.10749562823E+03  0.14153354254E+03  0.92067548989E+02 0.  0.
        -13    1    3    3    0    0 -0.96610271225E+01  0.34041118507E+02  0.99011856255E+02  0.10514509996E+03  0.10570000000E+00 0.  1.
         13    1    3    3    0    0  0.96610271225E+01 -0.34041118507E+02  0.84837719746E+01  0.36388442584E+02  0.10570000000E+00 0. -1.
<mgrwt>
<rscale>  0 0.92067549E+02</rscale>
<asrwt>0</asrwt>
<pdfrwt beam="2">  1        4 0.26183012E-02 0.92067549E+02</pdfrwt>
<pdfrwt beam="1">  1       -4 0.19156090E-01 0.92067549E+02</pdfrwt>
<totfact> 0.23480809E+04</totfact>
</mgrwt>
</event>
<event>
 5    1  0.1090823E+000  0.1058510E+03  0.7818608E-02  0.1268452E+00
          4   -1    0    0  501    0  0.00000000000E+00  0.00000000000E+00  0.46287818274E+03  0.46288036084E+03  0.14200000000E+01 0. -1.
         -4   -1    0    0    0  501 -0.00000000000E+00 -0.00000000000E+00 -0.59659805737E+01  0.61326441447E+01  0.14200000000E+01 0.  1.
         23    2    1    2    0    0  0.00000000000E+00  0.00000000000E+00  0.45691220216E+03  0.46901300499E+03  0.10585101965E+03 0.  0.
        -13    1    3    3    0    0 -0.14266477549E+02  0.49899347320E+02  0.18248989068E+03  0.18972624652E+03  0.10570000000E+00 0. -1.
         13    1    3    3    0    0  0.14266477549E+02 -0.49899347320E+02  0.27442231148E+03  0.27928675846E+03  0.10570000000E+00 0.  1.
<mgrwt>
<rscale>  0 0.10585102E+03</rscale>
<asrwt>0</asrwt>
<pdfrwt beam="1">  1        4 0.71225032E-01 0.10585102E+03</pdfrwt>
<pdfrwt beam="2">  1       -4 0.93083078E-03 0.10585102E+03</pdfrwt>
<totfact> 0.91775513E+03</totfact>
</mgrwt>
</event>
<event>
 5    1  0.1090823E+000  0.9396782E+02  0.7818608E-02  0.1293518E+00
         -4   -1    0    0    0  501 -0.00000000000E+00  0.00000000000E+00  0.45263241574E+02  0.45285510241E+02  0.14200000000E+01 0.  1.
          4   -1    0    0  501    0  0.00000000000E+00 -0.00000000000E+00 -0.48725380465E+02  0.48746067548E+02  0.14200000000E+01 0. -1.
         23    2    1    2    0    0  0.00000000000E+00  0.00000000000E+00 -0.34621388909E+01  0.94031577789E+02  0.93967820107E+02 0.  0.
        -13    1    3    3    0    0 -0.31546796538E+01  0.39842937925E+02  0.22985181704E+02  0.46105763812E+02  0.10570000000E+00 0.  1.
         13    1    3    3    0    0  0.31546796538E+01 -0.39842937925E+02 -0.26447320595E+02  0.47925813977E+02  0.10570000000E+00 0. -1.
<mgrwt>
<rscale>  0 0.93967820E+02</rscale>
<asrwt>0</asrwt>
<pdfrwt beam="2">  1        4 0.74995166E-02 0.93967820E+02</pdfrwt>
<pdfrwt beam="1">  1       -4 0.69668799E-02 0.93967820E+02</pdfrwt>
<totfact> 0.24717516E+04</totfact>
</mgrwt>
</event>
<event>
 5    1  0.1090823E+000  0.9373206E+02  0.7818608E-02  0.1294058E+00
          4   -1    0    0  501    0  0.00000000000E+00  0.00000000000E+00  0.17312927301E+02  0.17371063632E+02  0.14200000000E+01 0. -1.
         -4   -1    0    0    0  501 -0.00000000000E+00 -0.00000000000E+00 -0.12659140039E+03  0.12659936435E+03  0.14200000000E+01 0.  1.
         23    2    1    2    0    0  0.00000000000E+00  0.00000000000E+00 -0.10927847309E+03  0.14397042798E+03  0.93732062025E+02 0.  0.
        -13    1    3    3    0    0 -0.45293405377E+02 -0.24767596192E+01 -0.36544211992E+02  0.58250472199E+02  0.10570000000E+00 0. -1.
         13    1    3    3    0    0  0.45293405377E+02  0.24767596192E+01 -0.72734261097E+02  0.85719955779E+02  0.10570000000E+00 0.  1.
<mgrwt>
<rscale>  0 0.93732062E+02</rscale>
<asrwt>0</asrwt>
<pdfrwt beam="1">  1        4 0.26686120E-02 0.93732062E+02</pdfrwt>
<pdfrwt beam="2">  1       -4 0.19480684E-01 0.93732062E+02</pdfrwt>
<totfact> 0.22253529E+04</totfact>
</mgrwt>
</event>
<event>
 5    1  0.1090823E+000  0.9031038E+02  0.7818608E-02  0.1302102E+00
         -4   -1    0    0    0  501 -0.00000000000E+00  0.00000000000E+00  0.30049149686E+02  0.30082682674E+02  0.14200000000E+01 0.  1.
          4   -1    0    0  501    0  0.00000000000E+00 -0.00000000000E+00 -0.67776383195E+02  0.67791256951E+02  0.14200000000E+01 0. -1.
         23    2    1    2    0    0  0.00000000000E+00  0.00000000000E+00 -0.37727233509E+02  0.97873939625E+02  0.90310375425E+02 0.  0.
        -13    1    3    3    0    0 -0.36638722664E+02  0.19466388099E+02 -0.38178826855E+02  0.56382357671E+02  0.10570000000E+00 0. -1.
         13    1    3    3    0    0  0.36638722664E+02 -0.19466388099E+02  0.45159334586E+00  0.41491581954E+02  0.10570000000E+00 0.  1.
<mgrwt>
<rscale>  0 0.90310375E+02</rscale>
<asrwt>0</asrwt>
<pdfrwt beam="2">  1        4 0.10430859E-01 0.90310375E+02</pdfrwt>
<pdfrwt beam="1">  1       -4 0.46266697E-02 0.90310375E+02</pdfrwt>
<totfact> 0.27286428E+04</totfact>
</mgrwt>
</event>
<event>
 5    1  0.1090823E+000  0.8807844E+02  0.7818608E-02  0.1307573E+00
         -4   -1    0    0    0  501 -0.00000000000E+00  0.00000000000E+00  0.13438873402E+02  0.13513686333E+02  0.14200000000E+01 0.  1.
          4   -1    0    0  501    0  0.00000000000E+00 -0.00000000000E+00 -0.14383771913E+03  0.14384472825E+03  0.14200000000E+01 0. -1.
         23    2    1    2    0    0  0.00000000000E+00  0.00000000000E+00 -0.13039884573E+03  0.15735841458E+03  0.88078440450E+02 0.  0.
        -13    1    3    3    0    0  0.33390372718E+02 -0.26078519866E+02 -0.43728168588E+02  0.60886534548E+02  0.10570000000E+00 0.  1.
         13    1    3    3    0    0 -0.33390372718E+02  0.26078519866E+02 -0.86670677142E+02  0.96471880035E+02  0.10570000000E+00 0. -1.
<mgrwt>
<rscale>  0 0.88078440E+02</rscale>
<asrwt>0</asrwt>
<pdfrwt beam="2">  1        4 0.22135173E-01 0.88078440E+02</pdfrwt>
<pdfrwt beam="1">  1       -4 0.20738131E-02 0.88078440E+02</pdfrwt>
<totfact> 0.25570029E+04</totfact>
</mgrwt>
</event>
<event>
 5    1  0.1090823E+000  0.9017387E+02  0.7818608E-02  0.1302431E+00
          4   -1    0    0  501    0  0.00000000000E+00  0.00000000000E+00  0.94702974734E+02  0.94713620053E+02  0.14200000000E+01 0. -1.
         -4   -1    0    0    0  501 -0.00000000000E+00 -0.00000000000E+00 -0.21429990735E+02  0.21476985424E+02  0.14200000000E+01 0.  1.
         23    2    1    2    0    0  0.00000000000E+00  0.00000000000E+00  0.73272983999E+02  0.11619060548E+03  0.90173868815E+02 0.  0.
        -13    1    3    3    0    0  0.49237554987E+01 -0.43816208804E+02  0.24499987070E+02  0.50441689713E+02  0.10570000000E+00 0. -1.
         13    1    3    3    0    0 -0.49237554987E+01  0.43816208804E+02  0.48772996929E+02  0.65748915764E+02  0.10570000000E+00 0.  1.
<mgrwt>
<rscale>  0 0.90173869E+02</rscale>
<asrwt>0</asrwt>
<pdfrwt beam="1">  1        4 0.14574122E-01 0.90173869E+02</pdfrwt>
<pdfrwt beam="2">  1       -4 0.33013555E-02 0.90173869E+02</pdfrwt>
<totfact> 0.26262437E+04</totfact>
</mgrwt>
</event>
<event>
 5    1  0.1090823E+000  0.8830625E+02  0.7818608E-02  0.1307006E+00
         -4   -1    0    0    0  501 -0.00000000000E+00  0.00000000000E+00  0.39995686115E+03  0.39995938191E+03  0.14200000000E+01 0.  1.
          4   -1    0    0  501    0  0.00000000000E+00 -0.00000000000E+00 -0.47682606278E+01  0.49752094845E+01  0.14200000000E+01 0. -1.
         23    2    1    2    0    0  0.00000000000E+00  0.00000000000E+00  0.39518860052E+03  0.40493459139E+03  0.88306247391E+02 0.  0.
        -13    1    3    3    0    0 -0.38322809688E+02  0.20506458356E+02  0.23321288059E+03  0.23722860582E+03  0.10570000000E+00 0.  1.
         13    1    3    3    0    0  0.38322809688E+02 -0.20506458356E+02  0.16197571993E+03  0.16770598557E+03  0.10570000000E+00 0. -1.
<mgrwt>
<rscale>  0 0.88306247E+02</rscale>
<asrwt>0</asrwt>
<pdfrwt beam="2">  1        4 0.74969139E-03 0.88306247E+02</pdfrwt>
<pdfrwt beam="1">  1       -4 0.61547955E-01 0.88306247E+02</pdfrwt>
<totfact> 0.16357933E+04</totfact>
</mgrwt>
</event>
<event>
 5    1  0.1090823E+000  0.9024434E+02  0.7818608E-02  0.1302261E+00
         -4   -1    0    0    0  501 -0.00000000000E+00  0.00000000000E+00  0.17320541364E+03  0.17321123437E+03  0.14200000000E+01 0.  1.
          4   -1    0    0  501    0  0.00000000000E+00 -0.00000000000E+00 -0.11705963669E+02  0.11791776177E+02  0.14200000000E+01 0. -1.
         23    2    1    2    0    0  0.00000000000E+00  0.00000000000E+00  0.16149944997E+03  0.18500301055E+03  0.90244343716E+02 0.  0.
        -13    1    3    3    0    0  0.21616075344E+02  0.39269264286E+02  0.70162909481E+02  0.83259683342E+02  0.10570000000E+00 0. -1.
         13    1    3    3    0    0 -0.21616075344E+02 -0.39269264286E+02  0.91336540488E+02  0.10174332721E+03  0.10570000000E+00 0.  1.
<mgrwt>
<rscale>  0 0.90244344E+02</rscale>
<asrwt>0</asrwt>
<pdfrwt beam="2">  1        4 0.18079662E-02 0.90244344E+02</pdfrwt>
<pdfrwt beam="1">  1       -4 0.26654035E-01 0.90244344E+02</pdfrwt>
<totfact> 0.22643420E+04</totfact>
</mgrwt>
</event>
<event>
 5    1  0.1090823E+000  0.9282410E+02  0.7818608E-02  0.1296153E+00
         -4   -1    0    0    0  501 -0.00000000000E+00  0.00000000000E+00  0.30048426507E+02  0.30081960301E+02  0.14200000000E+01 0.  1.
          4   -1    0    0  501    0  0.00000000000E+00 -0.00000000000E+00 -0.71606343056E+02  0.71620421430E+02  0.14200000000E+01 0. -1.
         23    2    1    2    0    0  0.00000000000E+00  0.00000000000E+00 -0.41557916549E+02  0.10170238173E+03  0.92824102592E+02 0.  0.
        -13    1    3    3    0    0 -0.28511522720E+02 -0.36016050383E+02 -0.28047026721E+02  0.53821089671E+02  0.10570000000E+00 0. -1.
         13    1    3    3    0    0  0.28511522720E+02  0.36016050383E+02 -0.13510889828E+02  0.47881292061E+02  0.10570000000E+00 0.  1.
<mgrwt>
<rscale>  0 0.92824103E+02</rscale>
<asrwt>0</asrwt>
<pdfrwt beam="2">  1        4 0.11020023E-01 0.92824103E+02</pdfrwt>
<pdfrwt beam="1">  1       -4 0.46264973E-02 0.92824103E+02</pdfrwt>
<totfact> 0.25101316E+04</totfact>
</mgrwt>
</event>
<event>
 5    1  0.1090823E+000  0.9014982E+02  0.7818608E-02  0.1302489E+00
         -4   -1    0    0    0  501 -0.00000000000E+00  0.00000000000E+00  0.20308716218E+03  0.20309212649E+03  0.14200000000E+01 0.  1.
          4   -1    0    0  501    0  0.00000000000E+00 -0.00000000000E+00 -0.99488118551E+01  0.10049639662E+02  0.14200000000E+01 0. -1.
         23    2    1    2    0    0  0.00000000000E+00  0.00000000000E+00  0.19313835032E+03  0.21314176615E+03  0.90149820366E+02 0.  0.
        -13    1    3    3    0    0  0.24016900256E+02  0.25354197379E+02  0.29193108947E+02  0.45518079981E+02  0.10570000000E+00 0. -1.
         13    1    3    3    0    0 -0.24016900256E+02 -0.25354197379E+02  0.16394524138E+03  0.16762368617E+03  0.10570000000E+00 0.  1.
<mgrwt>
<rscale>  0 0.90149820E+02</rscale>
<asrwt>0</asrwt>
<pdfrwt beam="2">  1        4 0.15387243E-02 0.90149820E+02</pdfrwt>
<pdfrwt beam="1">  1       -4 0.31252317E-01 0.90149820E+02</pdfrwt>
<totfact> 0.21489300E+04</totfact>
</mgrwt>
</event>
<event>
 5    1  0.1090823E+000  0.9145269E+02  0.7818608E-02  0.1299371E+00
         -4   -1    0    0    0  501 -0.00000000000E+00  0.00000000000E+00  0.74260472426E+02  0.74274047721E+02  0.14200000000E+01 0.  1.
          4   -1    0    0  501    0  0.00000000000E+00 -0.00000000000E+00 -0.28122216879E+02  0.28158044716E+02  0.14200000000E+01 0. -1.
         23    2    1    2    0    0  0.00000000000E+00  0.00000000000E+00  0.46138255546E+02  0.10243209244E+03  0.91452692339E+02 0.  0.
        -13    1    3    3    0    0  0.32114516616E+02  0.47540207122E+01 -0.12998480229E+02  0.34970195183E+02  0.10570000000E+00 0. -1.
         13    1    3    3    0    0 -0.32114516616E+02 -0.47540207122E+01  0.59136735775E+02  0.67461897254E+02  0.10570000000E+00 0.  1.
<mgrwt>
<rscale>  0 0.91452692E+02</rscale>
<asrwt>0</asrwt>
<pdfrwt beam="2">  1        4 0.43302952E-02 0.91452692E+02</pdfrwt>
<pdfrwt beam="1">  1       -4 0.11428488E-01 0.91452692E+02</pdfrwt>
<totfact> 0.26093680E+04</totfact>
</mgrwt>
</event>
<event>
 5    1  0.1090823E+000  0.7350007E+02  0.7818608E-02  0.1348580E+00
         -4   -1    0    0    0  501 -0.00000000000E+00  0.00000000000E+00  0.34115674909E+02  0.34145214518E+02  0.14200000000E+01 0. -1.
          4   -1    0    0  501    0  0.00000000000E+00 -0.00000000000E+00 -0.39528394949E+02  0.39553892441E+02  0.14200000000E+01 0.  1.
         23    2    1    2    0    0  0.00000000000E+00  0.00000000000E+00 -0.54127200400E+01  0.73699106959E+02  0.73500073662E+02 0.  0.
        -13    1    3    3    0    0  0.18575833291E+02 -0.85153592071E+01 -0.33333812614E+02  0.39098940660E+02  0.10570000000E+00 0.  1.
         13    1    3    3    0    0 -0.18575833291E+02  0.85153592071E+01  0.27921092574E+02  0.34600166299E+02  0.10570000000E+00 0. -1.
<mgrwt>
<rscale>  0 0.73500074E+02</rscale>
<asrwt>0</asrwt>
<pdfrwt beam="2">  1        4 0.60855251E-02 0.73500074E+02</pdfrwt>
<pdfrwt beam="1">  1       -4 0.52527990E-02 0.73500074E+02</pdfrwt>
<totfact> 0.50227989E+04</totfact>
</mgrwt>
</event>
<event>
 5    1  0.1090823E+000  0.9249913E+02  0.7818608E-02  0.1296910E+00
         -4   -1    0    0    0  501 -0.00000000000E+00  0.00000000000E+00  0.94102976490E+02  0.94113689675E+02  0.14200000000E+01 0.  1.
          4   -1    0    0  501    0  0.00000000000E+00 -0.00000000000E+00 -0.22696458872E+02  0.22740836513E+02  0.14200000000E+01 0. -1.
         23    2    1    2    0    0  0.00000000000E+00  0.00000000000E+00  0.71406517618E+02  0.11685452619E+03  0.92499132603E+02 0.  0.
        -13    1    3    3    0    0 -0.15447423481E+02  0.29768353166E+02  0.75935742819E+02  0.83012203635E+02  0.10570000000E+00 0.  1.
         13    1    3    3    0    0  0.15447423481E+02 -0.29768353166E+02 -0.45292252005E+01  0.33842322554E+02  0.10570000000E+00 0. -1.
<mgrwt>
<rscale>  0 0.92499133E+02</rscale>
<asrwt>0</asrwt>
<pdfrwt beam="2">  1        4 0.34960007E-02 0.92499133E+02</pdfrwt>
<pdfrwt beam="1">  1       -4 0.14481619E-01 0.92499133E+02</pdfrwt>
<totfact> 0.24478066E+04</totfact>
</mgrwt>
</event>
<event>
 5    1  0.1090823E+000  0.8892865E+02  0.7818608E-02  0.1305467E+00
          4   -1    0    0  501    0  0.00000000000E+00  0.00000000000E+00  0.84937997119E+01  0.86116800652E+01  0.14200000000E+01 0. -1.
         -4   -1    0    0    0  501 -0.00000000000E+00 -0.00000000000E+00 -0.23104284286E+03  0.23104720651E+03  0.14200000000E+01 0.  1.
         23    2    1    2    0    0  0.00000000000E+00  0.00000000000E+00 -0.22254904315E+03  0.23965888657E+03  0.88928652914E+02 0.  0.
        -13    1    3    3    0    0 -0.41470081049E+02 -0.10431388980E+02 -0.14411361434E+03  0.15032407162E+03  0.10570000000E+00 0.  1.
         13    1    3    3    0    0  0.41470081049E+02  0.10431388980E+02 -0.78435428809E+02  0.89334814956E+02  0.10570000000E+00 0. -1.
<mgrwt>
<rscale>  0 0.88928653E+02</rscale>
<asrwt>0</asrwt>
<pdfrwt beam="1">  1        4 0.13161420E-02 0.88928653E+02</pdfrwt>
<pdfrwt beam="2">  1       -4 0.35554451E-01 0.88928653E+02</pdfrwt>
<totfact> 0.21197807E+04</totfact>
</mgrwt>
</event>
<event>
 5    1  0.1090823E+000  0.9024530E+02  0.7818608E-02  0.1302259E+00
         -4   -1    0    0    0  501 -0.00000000000E+00  0.00000000000E+00  0.34003243040E+02  0.34032880237E+02  0.14200000000E+01 0. -1.
          4   -1    0    0  501    0  0.00000000000E+00 -0.00000000000E+00 -0.59814062982E+02  0.59830916176E+02  0.14200000000E+01 0.  1.
         23    2    1    2    0    0  0.00000000000E+00  0.00000000000E+00 -0.25810819942E+02  0.93863796413E+02  0.90245298221E+02 0.  0.
        -13    1    3    3    0    0 -0.22026225131E+02 -0.38569428188E+02 -0.21179694735E+02  0.49207174536E+02  0.10570000000E+00 0.  1.
         13    1    3    3    0    0  0.22026225131E+02  0.38569428188E+02 -0.46311252068E+01  0.44656621877E+02  0.10570000000E+00 0. -1.
<mgrwt>
<rscale>  0 0.90245298E+02</rscale>
<asrwt>0</asrwt>
<pdfrwt beam="2">  1        4 0.92057397E-02 0.90245298E+02</pdfrwt>
<pdfrwt beam="1">  1       -4 0.52348443E-02 0.90245298E+02</pdfrwt>
<totfact> 0.27600857E+04</totfact>
</mgrwt>
</event>
<event>
 5    1  0.1090823E+000  0.9049208E+02  0.7818608E-02  0.1301664E+00
         -4   -1    0    0    0  501 -0.00000000000E+00  0.00000000000E+00  0.21996605735E+03  0.21997064073E+03  0.14200000000E+01 0.  1.
          4   -1    0    0  501    0  0.00000000000E+00 -0.00000000000E+00 -0.92480380120E+01  0.93564206335E+01  0.14200000000E+01 0. -1.
         23    2    1    2    0    0  0.00000000000E+00  0.00000000000E+00  0.21071801933E+03  0.22932706137E+03  0.90492084752E+02 0.  0.
        -13    1    3    3    0    0  0.70095344462E+01  0.36069741908E+02  0.17226599823E+03  0.17614126483E+03  0.10570000000E+00 0.  1.
         13    1    3    3    0    0 -0.70095344462E+01 -0.36069741908E+02  0.38452021100E+02  0.53185796540E+02  0.10570000000E+00 0. -1.
<mgrwt>
<rscale>  0 0.90492085E+02</rscale>
<asrwt>0</asrwt>
<pdfrwt beam="2">  1        4 0.14314649E-02 0.90492085E+02</pdfrwt>
<pdfrwt beam="1">  1       -4 0.33849619E-01 0.90492085E+02</pdfrwt>
<totfact> 0.20631017E+04</totfact>
</mgrwt>
</event>
<event>
 5    1  0.1090823E+000  0.9170199E+02  0.7818608E-02  0.1298782E+00
         -4   -1    0    0    0  501 -0.00000000000E+00  0.00000000000E+00  0.72827912764E+01  0.74199359011E+01  0.14200000000E+01 0.  1.
          4   -1    0    0  501    0  0.00000000000E+00 -0.00000000000E+00 -0.28583709234E+03  0.28584061950E+03  0.14200000000E+01 0. -1.
         23    2    1    2    0    0  0.00000000000E+00  0.00000000000E+00 -0.27855430106E+03  0.29326055540E+03  0.91701988606E+02 0.  0.
        -13    1    3    3    0    0 -0.28040571025E+02  0.36035747711E+02 -0.12591674876E+03  0.13393986534E+03  0.10570000000E+00 0.  1.
         13    1    3    3    0    0  0.28040571025E+02 -0.36035747711E+02 -0.15263755230E+03  0.15932069006E+03  0.10570000000E+00 0. -1.
<mgrwt>
<rscale>  0 0.91701989E+02</rscale>
<asrwt>0</asrwt>
<pdfrwt beam="2">  1        4 0.43985750E-01 0.91701989E+02</pdfrwt>
<pdfrwt beam="1">  1       -4 0.11312506E-02 0.91701989E+02</pdfrwt>
<totfact> 0.17753951E+04</totfact>
</mgrwt>
</event>
<event>
 5    1  0.1090823E+000  0.9355484E+02  0.7818608E-02  0.1294465E+00
          4   -1    0    0  501    0  0.00000000000E+00  0.00000000000E+00  0.96961977827E+01  0.97996250664E+01  0.14200000000E+01 0. -1.
         -4   -1    0    0    0  501 -0.00000000000E+00 -0.00000000000E+00 -0.22436569290E+03  0.22437018641E+03  0.14200000000E+01 0.  1.
         23    2    1    2    0    0  0.00000000000E+00  0.00000000000E+00 -0.21466949511E+03  0.23416981147E+03  0.93554842064E+02 0.  0.
        -13    1    3    3    0    0  0.30043731553E+02 -0.21796475381E+02 -0.36079743182E+02  0.51763608696E+02  0.10570000000E+00 0. -1.
         13    1    3    3    0    0 -0.30043731553E+02  0.21796475381E+02 -0.17858975193E+03  0.18240620278E+03  0.10570000000E+00 0.  1.
<mgrwt>
<rscale>  0 0.93554842E+02</rscale>
<asrwt>0</asrwt>
<pdfrwt beam="1">  1        4 0.15000245E-02 0.93554842E+02</pdfrwt>
<pdfrwt beam="2">  1       -4 0.34526097E-01 0.93554842E+02</pdfrwt>
<totfact> 0.18703192E+04</totfact>
</mgrwt>
</event>
<event>
 5    1  0.1090823E+000  0.8918616E+02  0.7818608E-02  0.1304835E+00
          4   -1    0    0  501    0  0.00000000000E+00  0.00000000000E+00  0.80809824835E+02  0.80822300078E+02  0.14200000000E+01 0. -1.
         -4   -1    0    0    0  501 -0.00000000000E+00 -0.00000000000E+00 -0.24572815022E+02  0.24613809907E+02  0.14200000000E+01 0.  1.
         23    2    1    2    0    0  0.00000000000E+00  0.00000000000E+00  0.56237009813E+02  0.10543610998E+03  0.89186164936E+02 0.  0.
        -13    1    3    3    0    0  0.18847889113E+02  0.16167648762E+02 -0.15669230637E+02  0.29362761310E+02  0.10570000000E+00 0.  1.
         13    1    3    3    0    0 -0.18847889113E+02 -0.16167648762E+02  0.71906240449E+02  0.76073348675E+02  0.10570000000E+00 0. -1.
<mgrwt>
<rscale>  0 0.89186165E+02</rscale>
<asrwt>0</asrwt>
<pdfrwt beam="1">  1        4 0.12436394E-01 0.89186165E+02</pdfrwt>
<pdfrwt beam="2">  1       -4 0.37845462E-02 0.89186165E+02</pdfrwt>
<totfact> 0.27729508E+04</totfact>
</mgrwt>
</event>
<event>
 5    1  0.1090823E+000  0.9220392E+02  0.7818608E-02  0.1297601E+00
          4   -1    0    0  501    0  0.00000000000E+00  0.00000000000E+00  0.36053821018E+02  0.36081773931E+02  0.14200000000E+01 0. -1.
         -4   -1    0    0    0  501 -0.00000000000E+00 -0.00000000000E+00 -0.58891139796E+02  0.58908257031E+02  0.14200000000E+01 0.  1.
         23    2    1    2    0    0  0.00000000000E+00  0.00000000000E+00 -0.22837318778E+02  0.94990030961E+02  0.92203919944E+02 0.  0.
        -13    1    3    3    0    0 -0.35481375036E+02 -0.19900959024E+02  0.10925492174E+02  0.42123077953E+02  0.10570000000E+00 0. -1.
         13    1    3    3    0    0  0.35481375036E+02  0.19900959024E+02 -0.33762810952E+02  0.52866953008E+02  0.10570000000E+00 0.  1.
<mgrwt>
<rscale>  0 0.92203920E+02</rscale>
<asrwt>0</asrwt>
<pdfrwt beam="1">  1        4 0.55502086E-02 0.92203920E+02</pdfrwt>
<pdfrwt beam="2">  1       -4 0.90636423E-02 0.92203920E+02</pdfrwt>
<totfact> 0.25969258E+04</totfact>
</mgrwt>
</event>
<event>
 5    1  0.1090823E+000  0.8924657E+02  0.7818608E-02  0.1304687E+00
          4   -1    0    0  501    0  0.00000000000E+00  0.00000000000E+00  0.39679413736E+02  0.39704814247E+02  0.14200000000E+01 0. -1.
         -4   -1    0    0    0  501 -0.00000000000E+00 -0.00000000000E+00 -0.50131629778E+02  0.50151736801E+02  0.14200000000E+01 0.  1.
         23    2    1    2    0    0  0.00000000000E+00  0.00000000000E+00 -0.10452216042E+02  0.89856551049E+02  0.89246573862E+02 0.  0.
        -13    1    3    3    0    0  0.18138873433E+02 -0.40123322007E+02  0.20570637667E+01  0.44081088713E+02  0.10570000000E+00 0.  1.
         13    1    3    3    0    0 -0.18138873433E+02  0.40123322007E+02 -0.12509279809E+02  0.45775462336E+02  0.10570000000E+00 0. -1.
<mgrwt>
<rscale>  0 0.89246574E+02</rscale>
<asrwt>0</asrwt>
<pdfrwt beam="1">  1        4 0.61080258E-02 0.89246574E+02</pdfrwt>
<pdfrwt beam="2">  1       -4 0.77160590E-02 0.89246574E+02</pdfrwt>
<totfact> 0.28717866E+04</totfact>
</mgrwt>
</event>
<event>
 5    1  0.1090823E+000  0.9452100E+02  0.7818608E-02  0.1292259E+00
          4   -1    0    0  501    0  0.00000000000E+00  0.00000000000E+00  0.74917882743E+02  0.74931338936E+02  0.14200000000E+01 0. -1.
         -4   -1    0    0    0  501 -0.00000000000E+00 -0.00000000000E+00 -0.29780323180E+02  0.29814158528E+02  0.14200000000E+01 0.  1.
         23    2    1    2    0    0  0.00000000000E+00  0.00000000000E+00  0.45137559563E+02  0.10474549746E+03  0.94521002722E+02 0.  0.
        -13    1    3    3    0    0 -0.45620678501E+02 -0.90845159891E+01  0.13312455994E+02  0.48383958030E+02  0.10570000000E+00 0.  1.
         13    1    3    3    0    0  0.45620678501E+02  0.90845159891E+01  0.31825103569E+02  0.56361539433E+02  0.10570000000E+00 0. -1.
<mgrwt>
<rscale>  0 0.94521003E+02</rscale>
<asrwt>0</asrwt>
<pdfrwt beam="1">  1        4 0.11529466E-01 0.94521003E+02</pdfrwt>
<pdfrwt beam="2">  1       -4 0.45852260E-02 0.94521003E+02</pdfrwt>
<totfact> 0.23725511E+04</totfact>
</mgrwt>
</event>
<event>
 5    1  0.1090823E+000  0.9061451E+02  0.7818608E-02  0.1301370E+00
          4   -1    0    0  501    0  0.00000000000E+00  0.00000000000E+00  0.23106644907E+03  0.23107081227E+03  0.14200000000E+01 0. -1.
         -4   -1    0    0    0  501 -0.00000000000E+00 -0.00000000000E+00 -0.88225760893E+01  0.89361204587E+01  0.14200000000E+01 0.  1.
         23    2    1    2    0    0  0.00000000000E+00  0.00000000000E+00  0.22224387298E+03  0.24000693273E+03  0.90614505920E+02 0.  0.
        -13    1    3    3    0    0  0.28916477890E+02 -0.17566616967E+02  0.31310350591E+02  0.46098784712E+02  0.10570000000E+00 0.  1.
         13    1    3    3    0    0 -0.28916477890E+02  0.17566616967E+02  0.19093352239E+03  0.19390814802E+03  0.10570000000E+00 0. -1.
<mgrwt>
<rscale>  0 0.90614506E+02</rscale>
<asrwt>0</asrwt>
<pdfrwt beam="1">  1        4 0.35557748E-01 0.90614506E+02</pdfrwt>
<pdfrwt beam="2">  1       -4 0.13663895E-02 0.90614506E+02</pdfrwt>
<totfact> 0.20152830E+04</totfact>
</mgrwt>
</event>
<event>
 5    1  0.1090823E+000  0.9205548E+02  0.7818608E-02  0.1297949E+00
          4   -1    0    0  501    0  0.00000000000E+00  0.00000000000E+00  0.89256204164E+01  0.90378703143E+01  0.14200000000E+01 0. -1.
         -4   -1    0    0    0  501 -0.00000000000E+00 -0.00000000000E+00 -0.23575875493E+03  0.23576303130E+03  0.14200000000E+01 0.  1.
         23    2    1    2    0    0  0.00000000000E+00  0.00000000000E+00 -0.22683313451E+03  0.24480090161E+03  0.92055475211E+02 0.  0.
        -13    1    3    3    0    0 -0.49651702333E+01  0.34101001442E+02 -0.32275518258E+02  0.47214949604E+02  0.10570000000E+00 0. -1.
         13    1    3    3    0    0  0.49651702333E+01 -0.34101001442E+02 -0.19455761626E+03  0.19758595201E+03  0.10570000000E+00 0.  1.
<mgrwt>
<rscale>  0 0.92055475E+02</rscale>
<asrwt>0</asrwt>
<pdfrwt beam="1">  1        4 0.13821361E-02 0.92055475E+02</pdfrwt>
<pdfrwt beam="2">  1       -4 0.36279537E-01 0.92055475E+02</pdfrwt>
<totfact> 0.19151957E+04</totfact>
</mgrwt>
</event>
<event>
 5    1  0.1090823E+000  0.9132293E+02  0.7818608E-02  0.1299679E+00
         -4   -1    0    0    0  501 -0.00000000000E+00  0.00000000000E+00  0.10298573170E+02  0.10396009299E+02  0.14200000000E+01 0.  1.
          4   -1    0    0  501    0  0.00000000000E+00 -0.00000000000E+00 -0.20139911429E+03  0.20140412021E+03  0.14200000000E+01 0. -1.
         23    2    1    2    0    0  0.00000000000E+00  0.00000000000E+00 -0.19110054112E+03  0.21180012951E+03  0.91322932732E+02 0.  0.
        -13    1    3    3    0    0 -0.43014029773E+02 -0.59839741935E+01 -0.12826259421E+03  0.13541535715E+03  0.10570000000E+00 0. -1.
         13    1    3    3    0    0  0.43014029773E+02  0.59839741935E+01 -0.62837946906E+02  0.76384772359E+02  0.10570000000E+00 0.  1.
<mgrwt>
<rscale>  0 0.91322933E+02</rscale>
<asrwt>0</asrwt>
<pdfrwt beam="2">  1        4 0.30992356E-01 0.91322933E+02</pdfrwt>
<pdfrwt beam="1">  1       -4 0.15922762E-02 0.91322933E+02</pdfrwt>
<totfact> 0.20813722E+04</totfact>
</mgrwt>
</event>
<event>
 5    1  0.1090823E+000  0.9157235E+02  0.7818608E-02  0.1299088E+00
         -4   -1    0    0    0  501 -0.00000000000E+00  0.00000000000E+00  0.40330154116E+02  0.40355145038E+02  0.14200000000E+01 0.  1.
          4   -1    0    0  501    0  0.00000000000E+00 -0.00000000000E+00 -0.51929513166E+02  0.51948924316E+02  0.14200000000E+01 0. -1.
         23    2    1    2    0    0  0.00000000000E+00  0.00000000000E+00 -0.11599359050E+02  0.92304069354E+02  0.91572354393E+02 0.  0.
        -13    1    3    3    0    0 -0.10822437891E+02 -0.17392161567E+02  0.35475662185E+02  0.40965183093E+02  0.10570000000E+00 0.  1.
         13    1    3    3    0    0  0.10822437891E+02  0.17392161567E+02 -0.47075021234E+02  0.51338886262E+02  0.10570000000E+00 0. -1.
<mgrwt>
<rscale>  0 0.91572354E+02</rscale>
<asrwt>0</asrwt>
<pdfrwt beam="2">  1        4 0.79925715E-02 0.91572354E+02</pdfrwt>
<pdfrwt beam="1">  1       -4 0.62080546E-02 0.91572354E+02</pdfrwt>
<totfact> 0.26628676E+04</totfact>
</mgrwt>
</event>
<event>
 5    1  0.1090823E+000  0.1056044E+03  0.7818608E-02  0.1268933E+00
          4   -1    0    0  501    0  0.00000000000E+00  0.00000000000E+00  0.37907644893E+02  0.37934231788E+02  0.14200000000E+01 0. -1.
         -4   -1    0    0    0  501 -0.00000000000E+00 -0.00000000000E+00 -0.73489817103E+02  0.73503534730E+02  0.14200000000E+01 0.  1.
         23    2    1    2    0    0  0.00000000000E+00  0.00000000000E+00 -0.35582172209E+02  0.11143776652E+03  0.10560437883E+03 0.  0.
        -13    1    3    3    0    0  0.11008895916E+02 -0.19098525178E+02 -0.68421743148E+02  0.71885294470E+02  0.10570000000E+00 0.  1.
         13    1    3    3    0    0 -0.11008895916E+02  0.19098525178E+02  0.32839570938E+02  0.39552472048E+02  0.10570000000E+00 0. -1.
<mgrwt>
<rscale>  0 0.10560438E+03</rscale>
<asrwt>0</asrwt>
<pdfrwt beam="1">  1        4 0.58350457E-02 0.10560438E+03</pdfrwt>
<pdfrwt beam="2">  1       -4 0.11309226E-01 0.10560438E+03</pdfrwt>
<totfact> 0.17240952E+04</totfact>
</mgrwt>
</event>
<event>
 5    1  0.1090823E+000  0.9073582E+02  0.7818608E-02  0.1301080E+00
         -4   -1    0    0    0  501 -0.00000000000E+00  0.00000000000E+00  0.20253481724E+03  0.20253979509E+03  0.14200000000E+01 0.  1.
          4   -1    0    0  501    0  0.00000000000E+00 -0.00000000000E+00 -0.10107704648E+02  0.10206962979E+02  0.14200000000E+01 0. -1.
         23    2    1    2    0    0  0.00000000000E+00  0.00000000000E+00  0.19242711260E+03  0.21274675807E+03  0.90735822075E+02 0.  0.
        -13    1    3    3    0    0  0.13174743511E+02  0.31429144982E+02  0.25995435648E+02  0.42861857961E+02  0.10570000000E+00 0. -1.
         13    1    3    3    0    0 -0.13174743511E+02 -0.31429144982E+02  0.16643167695E+03  0.16988490011E+03  0.10570000000E+00 0.  1.
<mgrwt>
<rscale>  0 0.90735822E+02</rscale>
<asrwt>0</asrwt>
<pdfrwt beam="2">  1        4 0.15630497E-02 0.90735822E+02</pdfrwt>
<pdfrwt beam="1">  1       -4 0.31167220E-01 0.90735822E+02</pdfrwt>
<totfact> 0.21137308E+04</totfact>
</mgrwt>
</event>
<event>
 5    1  0.1090823E+000  0.8742813E+02  0.7818608E-02  0.1309202E+00
         -4   -1    0    0    0  501 -0.00000000000E+00  0.00000000000E+00  0.65258339957E+01  0.66785409589E+01  0.14200000000E+01 0.  1.
          4   -1    0    0  501    0  0.00000000000E+00 -0.00000000000E+00 -0.28928282396E+03  0.28928630911E+03  0.14200000000E+01 0. -1.
         23    2    1    2    0    0  0.00000000000E+00  0.00000000000E+00 -0.28275698997E+03  0.29596485007E+03  0.87428125351E+02 0.  0.
        -13    1    3    3    0    0  0.22666786995E+02 -0.33310179931E+02 -0.19878363464E+03  0.20282577719E+03  0.10570000000E+00 0. -1.
         13    1    3    3    0    0 -0.22666786995E+02  0.33310179931E+02 -0.83973355322E+02  0.93139072876E+02  0.10570000000E+00 0.  1.
<mgrwt>
<rscale>  0 0.87428125E+02</rscale>
<asrwt>0</asrwt>
<pdfrwt beam="2">  1        4 0.44517055E-01 0.87428125E+02</pdfrwt>
<pdfrwt beam="1">  1       -4 0.10159895E-02 0.87428125E+02</pdfrwt>
<totfact> 0.20053189E+04</totfact>
</mgrwt>
</event>
<event>
 5    1  0.1090823E+000  0.8842011E+02  0.7818608E-02  0.1306723E+00
          4   -1    0    0  501    0  0.00000000000E+00  0.00000000000E+00  0.25413553469E+02  0.25453194297E+02  0.14200000000E+01 0. -1.
         -4   -1    0    0    0  501 -0.00000000000E+00 -0.00000000000E+00 -0.76802778585E+02  0.76815904592E+02  0.14200000000E+01 0.  1.
         23    2    1    2    0    0  0.00000000000E+00  0.00000000000E+00 -0.51389225116E+02  0.10226909889E+03  0.88420111567E+02 0.  0.
        -13    1    3    3    0    0  0.77289739725E+01 -0.30326437064E+02  0.10422688121E+02  0.32985957980E+02  0.10570000000E+00 0.  1.
         13    1    3    3    0    0 -0.77289739725E+01  0.30326437064E+02 -0.61811913237E+02  0.69283140909E+02  0.10570000000E+00 0. -1.
<mgrwt>
<rscale>  0 0.88420112E+02</rscale>
<asrwt>0</asrwt>
<pdfrwt beam="1">  1        4 0.39138365E-02 0.88420112E+02</pdfrwt>
<pdfrwt beam="2">  1       -4 0.11819871E-01 0.88420112E+02</pdfrwt>
<totfact> 0.28591726E+04</totfact>
</mgrwt>
</event>
<event>
 5    1  0.1090823E+000  0.9102020E+02  0.7818608E-02  0.1300400E+00
          4   -1    0    0  501    0  0.00000000000E+00  0.00000000000E+00  0.12796104256E+02  0.12874652777E+02  0.14200000000E+01 0. -1.
         -4   -1    0    0    0  501 -0.00000000000E+00 -0.00000000000E+00 -0.16128242163E+03  0.16128867265E+03  0.14200000000E+01 0.  1.
         23    2    1    2    0    0  0.00000000000E+00  0.00000000000E+00 -0.14848631737E+03  0.17416332543E+03  0.91020203679E+02 0.  0.
        -13    1    3    3    0    0 -0.78177558897E+01 -0.25591327939E+02 -0.38049089581E+01  0.27028168224E+02  0.10570000000E+00 0. -1.
         13    1    3    3    0    0  0.78177558897E+01  0.25591327939E+02 -0.14468140841E+03  0.14713515720E+03  0.10570000000E+00 0.  1.
<mgrwt>
<rscale>  0 0.91020204E+02</rscale>
<asrwt>0</asrwt>
<pdfrwt beam="1">  1        4 0.19751546E-02 0.91020204E+02</pdfrwt>
<pdfrwt beam="2">  1       -4 0.24819202E-01 0.91020204E+02</pdfrwt>
<totfact> 0.22619904E+04</totfact>
</mgrwt>
</event>
<event>
 5    1  0.1090823E+000  0.7091109E+02  0.7818608E-02  0.1357022E+00
         -4   -1    0    0    0  501 -0.00000000000E+00  0.00000000000E+00  0.12722155314E+03  0.12722947765E+03  0.14200000000E+01 0. -1.
          4   -1    0    0  501    0  0.00000000000E+00 -0.00000000000E+00 -0.98218613614E+01  0.99239790710E+01  0.14200000000E+01 0.  1.
         23    2    1    2    0    0  0.00000000000E+00  0.00000000000E+00  0.11739969178E+03  0.13715345672E+03  0.70911092652E+02 0.  0.
        -13    1    3    3    0    0  0.33065683267E+02 -0.34916310204E+01  0.34888943974E+02  0.48195232971E+02  0.10570000000E+00 0.  1.
         13    1    3    3    0    0 -0.33065683267E+02  0.34916310204E+01  0.82510747804E+02  0.88958223750E+02  0.10570000000E+00 0. -1.
<mgrwt>
<rscale>  0 0.70911093E+02</rscale>
<asrwt>0</asrwt>
<pdfrwt beam="2">  1        4 0.15195205E-02 0.70911093E+02</pdfrwt>
<pdfrwt beam="1">  1       -4 0.19581010E-01 0.70911093E+02</pdfrwt>
<totfact> 0.47304312E+04</totfact>
</mgrwt>
</event>
<event>
 5    1  0.1090823E+000  0.9100726E+02  0.7818608E-02  0.1300431E+00
          4   -1    0    0  501    0  0.00000000000E+00  0.00000000000E+00  0.31443063708E+03  0.31443384349E+03  0.14200000000E+01 0.  1.
         -4   -1    0    0    0  501 -0.00000000000E+00 -0.00000000000E+00 -0.65053451739E+01  0.66585220456E+01  0.14200000000E+01 0. -1.
         23    2    1    2    0    0  0.00000000000E+00  0.00000000000E+00  0.30792529190E+03  0.32109236554E+03  0.91007262416E+02 0.  0.
        -13    1    3    3    0    0 -0.42441246710E+02  0.83994231840E+01  0.20370403740E+03  0.20824782293E+03  0.10570000000E+00 0.  1.
         13    1    3    3    0    0  0.42441246710E+02 -0.83994231840E+01  0.10422125451E+03  0.11284454260E+03  0.10570000000E+00 0. -1.
<mgrwt>
<rscale>  0 0.91007262E+02</rscale>
<asrwt>0</asrwt>
<pdfrwt beam="1">  1        4 0.48385977E-01 0.91007262E+02</pdfrwt>
<pdfrwt beam="2">  1       -4 0.10128517E-02 0.91007262E+02</pdfrwt>
<totfact> 0.17280878E+04</totfact>
</mgrwt>
</event>
<event>
 5    1  0.1090823E+000  0.9185412E+02  0.7818608E-02  0.1298423E+00
          4   -1    0    0  501    0  0.00000000000E+00  0.00000000000E+00  0.11280492607E+03  0.11281386327E+03  0.14200000000E+01 0. -1.
         -4   -1    0    0    0  501 -0.00000000000E+00 -0.00000000000E+00 -0.18661953208E+02  0.18715899592E+02  0.14200000000E+01 0.  1.
         23    2    1    2    0    0  0.00000000000E+00  0.00000000000E+00  0.94142972864E+02  0.13152976286E+03  0.91854119011E+02 0.  0.
        -13    1    3    3    0    0 -0.18614328002E+02 -0.21966139834E+02 -0.41648102398E+01  0.29092289752E+02  0.10570000000E+00 0.  1.
         13    1    3    3    0    0  0.18614328002E+02  0.21966139834E+02  0.98307783104E+02  0.10243747311E+03  0.10570000000E+00 0. -1.
<mgrwt>
<rscale>  0 0.91854119E+02</rscale>
<asrwt>0</asrwt>
<pdfrwt beam="1">  1        4 0.17359441E-01 0.91854119E+02</pdfrwt>
<pdfrwt beam="2">  1       -4 0.28759069E-02 0.91854119E+02</pdfrwt>
<totfact> 0.24146937E+04</totfact>
</mgrwt>
</event>
<event>
 5    1  0.1090823E+000  0.9022410E+02  0.7818608E-02  0.1302310E+00
         -4   -1    0    0    0  501 -0.00000000000E+00  0.00000000000E+00  0.32231727371E+03  0.32232040167E+03  0.14200000000E+01 0.  1.
          4   -1    0    0  501    0  0.00000000000E+00 -0.00000000000E+00 -0.62309175984E+01  0.63906755604E+01  0.14200000000E+01 0. -1.
         23    2    1    2    0    0  0.00000000000E+00  0.00000000000E+00  0.31608635611E+03  0.32871107723E+03  0.90224097519E+02 0.  0.
        -13    1    3    3    0    0 -0.41053146150E+02  0.96587851435E+01  0.21638481454E+03  0.22045646299E+03  0.10570000000E+00 0.  1.
         13    1    3    3    0    0  0.41053146150E+02 -0.96587851435E+01  0.99701541576E+02  0.10825461424E+03  0.10570000000E+00 0. -1.
<mgrwt>
<rscale>  0 0.90224098E+02</rscale>
<asrwt>0</asrwt>
<pdfrwt beam="2">  1        4 0.97113202E-03 0.90224098E+02</pdfrwt>
<pdfrwt beam="1">  1       -4 0.49599822E-01 0.90224098E+02</pdfrwt>
<totfact> 0.17457905E+04</totfact>
</mgrwt>
</event>
<event>
 5    1  0.1090823E+000  0.9037305E+02  0.7818608E-02  0.1301951E+00
         -4   -1    0    0    0  501 -0.00000000000E+00  0.00000000000E+00  0.11021835099E+02  0.11112931609E+02  0.14200000000E+01 0.  1.
          4   -1    0    0  501    0  0.00000000000E+00 -0.00000000000E+00 -0.18439618534E+03  0.18440165283E+03  0.14200000000E+01 0. -1.
         23    2    1    2    0    0  0.00000000000E+00  0.00000000000E+00 -0.17337435024E+03  0.19551458444E+03  0.90373045805E+02 0.  0.
        -13    1    3    3    0    0  0.39842544148E+02 -0.21274745438E+02 -0.89563431214E+02  0.10030783868E+03  0.10570000000E+00 0.  1.
         13    1    3    3    0    0 -0.39842544148E+02  0.21274745438E+02 -0.83810919024E+02  0.95206745758E+02  0.10570000000E+00 0. -1.
<mgrwt>
<rscale>  0 0.90373046E+02</rscale>
<asrwt>0</asrwt>
<pdfrwt beam="2">  1        4 0.28376070E-01 0.90373046E+02</pdfrwt>
<pdfrwt beam="1">  1       -4 0.17030951E-02 0.90373046E+02</pdfrwt>
<totfact> 0.22091746E+04</totfact>
</mgrwt>
</event>
<event>
 5    1  0.1090823E+000  0.9056491E+02  0.7818608E-02  0.1301489E+00
          4   -1    0    0  501    0  0.00000000000E+00  0.00000000000E+00  0.62996292060E+02  0.63012294144E+02  0.14200000000E+01 0. -1.
         -4   -1    0    0    0  501 -0.00000000000E+00 -0.00000000000E+00 -0.32513910410E+02  0.32544903904E+02  0.14200000000E+01 0.  1.
         23    2    1    2    0    0  0.00000000000E+00  0.00000000000E+00  0.30482381650E+02  0.95557198048E+02  0.90564907706E+02 0.  0.
        -13    1    3    3    0    0  0.29987336933E+02  0.96568781358E+01  0.49561011956E+02  0.58726491043E+02  0.10570000000E+00 0. -1.
         13    1    3    3    0    0 -0.29987336933E+02 -0.96568781358E+01 -0.19078630306E+02  0.36830707005E+02  0.10570000000E+00 0.  1.
<mgrwt>
<rscale>  0 0.90564908E+02</rscale>
<asrwt>0</asrwt>
<pdfrwt beam="1">  1        4 0.96953523E-02 0.90564908E+02</pdfrwt>
<pdfrwt beam="2">  1       -4 0.50057551E-02 0.90564908E+02</pdfrwt>
<totfact> 0.27228364E+04</totfact>
</mgrwt>
</event>
<event>
 5    1  0.1090823E+000  0.9240298E+02  0.7818608E-02  0.1297135E+00
         -4   -1    0    0    0  501 -0.00000000000E+00  0.00000000000E+00  0.20978801639E+02  0.21026804755E+02  0.14200000000E+01 0. -1.
          4   -1    0    0  501    0  0.00000000000E+00 -0.00000000000E+00 -0.10158001848E+03  0.10158994318E+03  0.14200000000E+01 0.  1.
         23    2    1    2    0    0  0.00000000000E+00  0.00000000000E+00 -0.80601216845E+02  0.12261674793E+03  0.92402980022E+02 0.  0.
        -13    1    3    3    0    0 -0.43348304956E+02 -0.14158806628E+02 -0.50143456686E+02  0.67778497834E+02  0.10570000000E+00 0.  1.
         13    1    3    3    0    0  0.43348304956E+02  0.14158806628E+02 -0.30457760159E+02  0.54838250100E+02  0.10570000000E+00 0. -1.
<mgrwt>
<rscale>  0 0.92402980E+02</rscale>
<asrwt>0</asrwt>
<pdfrwt beam="2">  1        4 0.15632151E-01 0.92402980E+02</pdfrwt>
<pdfrwt beam="1">  1       -4 0.32319640E-02 0.92402980E+02</pdfrwt>
<totfact> 0.24232419E+04</totfact>
</mgrwt>
</event>
<event>
 5    1  0.1090823E+000  0.9080812E+02  0.7818608E-02  0.1300906E+00
         -4   -1    0    0    0  501 -0.00000000000E+00  0.00000000000E+00  0.27306230361E+03  0.27306599578E+03  0.14200000000E+01 0.  1.
          4   -1    0    0  501    0  0.00000000000E+00 -0.00000000000E+00 -0.74791163557E+01  0.76127249695E+01  0.14200000000E+01 0. -1.
         23    2    1    2    0    0  0.00000000000E+00  0.00000000000E+00  0.26558318725E+03  0.28067872075E+03  0.90808121503E+02 0.  0.
        -13    1    3    3    0    0 -0.43630536574E+02 -0.88911098011E+00  0.17153318698E+03  0.17699734362E+03  0.10570000000E+00 0. -1.
         13    1    3    3    0    0  0.43630536574E+02  0.88911098011E+00  0.94050000267E+02  0.10368137713E+03  0.10570000000E+00 0.  1.
<mgrwt>
<rscale>  0 0.90808122E+02</rscale>
<asrwt>0</asrwt>
<pdfrwt beam="2">  1        4 0.11611947E-02 0.90808122E+02</pdfrwt>
<pdfrwt beam="1">  1       -4 0.42020154E-01 0.90808122E+02</pdfrwt>
<totfact> 0.18626021E+04</totfact>
</mgrwt>
</event>
<event>
 5    1  0.1090823E+000  0.8451939E+02  0.7818608E-02  0.1316694E+00
          4   -1    0    0  501    0  0.00000000000E+00  0.00000000000E+00  0.56410948836E+02  0.56428818423E+02  0.14200000000E+01 0.  1.
         -4   -1    0    0    0  501 -0.00000000000E+00 -0.00000000000E+00 -0.31619608050E+02  0.31651477268E+02  0.14200000000E+01 0. -1.
         23    2    1    2    0    0  0.00000000000E+00  0.00000000000E+00  0.24791340786E+02  0.88080295691E+02  0.84519393698E+02 0.  0.
        -13    1    3    3    0    0 -0.30529395558E+02 -0.44541645836E+01  0.42491207006E+02  0.52510926678E+02  0.10570000000E+00 0.  1.
         13    1    3    3    0    0  0.30529395558E+02  0.44541645836E+01 -0.17699866220E+02  0.35569369013E+02  0.10570000000E+00 0. -1.
<mgrwt>
<rscale>  0 0.84519394E+02</rscale>
<asrwt>0</asrwt>
<pdfrwt beam="1">  1        4 0.86824335E-02 0.84519394E+02</pdfrwt>
<pdfrwt beam="2">  1       -4 0.48683812E-02 0.84519394E+02</pdfrwt>
<totfact> 0.33394154E+04</totfact>
</mgrwt>
</event>
<event>
 5    1  0.1090823E+000  0.9158200E+02  0.7818608E-02  0.1299065E+00
          4   -1    0    0  501    0  0.00000000000E+00  0.00000000000E+00  0.97833032705E+01  0.98858192823E+01  0.14200000000E+01 0. -1.
         -4   -1    0    0    0  501 -0.00000000000E+00 -0.00000000000E+00 -0.21310398813E+03  0.21310871910E+03  0.14200000000E+01 0.  1.
         23    2    1    2    0    0  0.00000000000E+00  0.00000000000E+00 -0.20332068486E+03  0.22299453838E+03  0.91582002910E+02 0.  0.
        -13    1    3    3    0    0  0.38924838015E+02  0.13382467097E+02 -0.15051494009E+03  0.15604163483E+03  0.10570000000E+00 0.  1.
         13    1    3    3    0    0 -0.38924838015E+02 -0.13382467097E+02 -0.52805744773E+02  0.66952903549E+02  0.10570000000E+00 0. -1.
<mgrwt>
<rscale>  0 0.91582003E+02</rscale>
<asrwt>0</asrwt>
<pdfrwt beam="1">  1        4 0.15133735E-02 0.91582003E+02</pdfrwt>
<pdfrwt beam="2">  1       -4 0.32793475E-01 0.91582003E+02</pdfrwt>
<totfact> 0.20221076E+04</totfact>
</mgrwt>
</event>
<event>
 5    1  0.1090823E+000  0.9013581E+02  0.7818608E-02  0.1302523E+00
         -4   -1    0    0    0  501 -0.00000000000E+00  0.00000000000E+00  0.61483525988E+02  0.61499921690E+02  0.14200000000E+01 0.  1.
          4   -1    0    0  501    0  0.00000000000E+00 -0.00000000000E+00 -0.32999054467E+02  0.33029592727E+02  0.14200000000E+01 0. -1.
         23    2    1    2    0    0  0.00000000000E+00  0.00000000000E+00  0.28484471521E+02  0.94529514417E+02  0.90135808523E+02 0.  0.
        -13    1    3    3    0    0 -0.23441823643E+01  0.38686188516E+02  0.38363116578E+02  0.54533074908E+02  0.10570000000E+00 0. -1.
         13    1    3    3    0    0  0.23441823643E+01 -0.38686188516E+02 -0.98786450571E+01  0.39996439510E+02  0.10570000000E+00 0.  1.
<mgrwt>
<rscale>  0 0.90135809E+02</rscale>
<asrwt>0</asrwt>
<pdfrwt beam="2">  1        4 0.50803880E-02 0.90135809E+02</pdfrwt>
<pdfrwt beam="1">  1       -4 0.94626142E-02 0.90135809E+02</pdfrwt>
<totfact> 0.27647634E+04</totfact>
</mgrwt>
</event>
<event>
 5    1  0.1090823E+000  0.9075424E+02  0.7818608E-02  0.1301035E+00
          4   -1    0    0  501    0  0.00000000000E+00  0.00000000000E+00  0.39406855885E+02  0.39432431966E+02  0.14200000000E+01 0. -1.
         -4   -1    0    0    0  501 -0.00000000000E+00 -0.00000000000E+00 -0.52199715452E+02  0.52219026162E+02  0.14200000000E+01 0.  1.
         23    2    1    2    0    0  0.00000000000E+00  0.00000000000E+00 -0.12792859567E+02  0.91651458127E+02  0.90754242441E+02 0.  0.
        -13    1    3    3    0    0 -0.29611971268E+02  0.34349698680E+02 -0.48644234072E+01  0.45611889122E+02  0.10570000000E+00 0. -1.
         13    1    3    3    0    0  0.29611971268E+02 -0.34349698680E+02 -0.79284361602E+01  0.46039569005E+02  0.10570000000E+00 0.  1.
<mgrwt>
<rscale>  0 0.90754242E+02</rscale>
<asrwt>0</asrwt>
<pdfrwt beam="1">  1        4 0.60660461E-02 0.90754242E+02</pdfrwt>
<pdfrwt beam="2">  1       -4 0.80341783E-02 0.90754242E+02</pdfrwt>
<totfact> 0.27328111E+04</totfact>
</mgrwt>
</event>
<event>
 5    1  0.1090823E+000  0.7653667E+02  0.7818608E-02  0.1339177E+00
         -4   -1    0    0    0  501 -0.00000000000E+00  0.00000000000E+00  0.21410505037E+02  0.21457542403E+02  0.14200000000E+01 0.  1.
          4   -1    0    0  501    0  0.00000000000E+00 -0.00000000000E+00 -0.68269904186E+02  0.68284670443E+02  0.14200000000E+01 0. -1.
         23    2    1    2    0    0  0.00000000000E+00  0.00000000000E+00 -0.46859399148E+02  0.89742212846E+02  0.76536667539E+02 0.  0.
        -13    1    3    3    0    0  0.30645437493E+02 -0.10348554094E+02 -0.47408585066E+02  0.57391815806E+02  0.10570000000E+00 0. -1.
         13    1    3    3    0    0 -0.30645437493E+02  0.10348554094E+02  0.54918591809E+00  0.32350397040E+02  0.10570000000E+00 0.  1.
<mgrwt>
<rscale>  0 0.76536668E+02</rscale>
<asrwt>0</asrwt>
<pdfrwt beam="2">  1        4 0.10507816E-01 0.76536668E+02</pdfrwt>
<pdfrwt beam="1">  1       -4 0.32986780E-02 0.76536668E+02</pdfrwt>
<totfact> 0.43329281E+04</totfact>
</mgrwt>
</event>
<event>
 5    1  0.1090823E+000  0.8569987E+02  0.7818608E-02  0.1313612E+00
          4   -1    0    0  501    0  0.00000000000E+00  0.00000000000E+00  0.10203183629E+02  0.10301522032E+02  0.14200000000E+01 0. -1.
         -4   -1    0    0    0  501 -0.00000000000E+00 -0.00000000000E+00 -0.17899109951E+03  0.17899673210E+03  0.14200000000E+01 0.  1.
         23    2    1    2    0    0  0.00000000000E+00  0.00000000000E+00 -0.16878791588E+03  0.18929825413E+03  0.85699874394E+02 0.  0.
        -13    1    3    3    0    0 -0.30133208920E+02 -0.10763816412E+02 -0.21442249708E+02  0.38518193995E+02  0.10570000000E+00 0. -1.
         13    1    3    3    0    0  0.30133208920E+02  0.10763816412E+02 -0.14734566617E+03  0.15078006014E+03  0.10570000000E+00 0.  1.
<mgrwt>
<rscale>  0 0.85699874E+02</rscale>
<asrwt>0</asrwt>
<pdfrwt beam="1">  1        4 0.15777185E-02 0.85699874E+02</pdfrwt>
<pdfrwt beam="2">  1       -4 0.27545088E-01 0.85699874E+02</pdfrwt>
<totfact> 0.25760801E+04</totfact>
</mgrwt>
</event>
<event>
 5    1  0.1090823E+000  0.8958195E+02  0.7818608E-02  0.1303867E+00
         -4   -1    0    0    0  501 -0.00000000000E+00  0.00000000000E+00  0.29612169743E+03  0.29612510209E+03  0.14200000000E+01 0. -1.
          4   -1    0    0  501    0  0.00000000000E+00 -0.00000000000E+00 -0.66971359343E+01  0.68460229128E+01  0.14200000000E+01 0.  1.
         23    2    1    2    0    0  0.00000000000E+00  0.00000000000E+00  0.28942456149E+03  0.30297112500E+03  0.89581950132E+02 0.  0.
        -13    1    3    3    0    0 -0.43613431306E+01  0.38521579044E+02  0.68839055763E+02  0.79004810846E+02  0.10570000000E+00 0.  1.
         13    1    3    3    0    0  0.43613431306E+01 -0.38521579044E+02  0.22058550573E+03  0.22396631415E+03  0.10570000000E+00 0. -1.
<mgrwt>
<rscale>  0 0.89581950E+02</rscale>
<asrwt>0</asrwt>
<pdfrwt beam="2">  1        4 0.10420432E-02 0.89581950E+02</pdfrwt>
<pdfrwt beam="1">  1       -4 0.45568906E-01 0.89581950E+02</pdfrwt>
<totfact> 0.18578880E+04</totfact>
</mgrwt>
</event>
<event>
 5    1  0.1090823E+000  0.9131251E+02  0.7818608E-02  0.1299704E+00
          4   -1    0    0  501    0  0.00000000000E+00  0.00000000000E+00  0.15767255797E+02  0.15831069306E+02  0.14200000000E+01 0.  1.
         -4   -1    0    0    0  501 -0.00000000000E+00 -0.00000000000E+00 -0.13186932025E+03  0.13187696547E+03  0.14200000000E+01 0. -1.
         23    2    1    2    0    0  0.00000000000E+00  0.00000000000E+00 -0.11610206445E+03  0.14770803478E+03  0.91312508281E+02 0.  0.
        -13    1    3    3    0    0 -0.28474062810E+02 -0.25999553454E+02 -0.18502753492E+02  0.42768120043E+02  0.10570000000E+00 0.  1.
         13    1    3    3    0    0  0.28474062810E+02  0.25999553454E+02 -0.97599310959E+02  0.10493991474E+03  0.10570000000E+00 0. -1.
<mgrwt>
<rscale>  0 0.91312508E+02</rscale>
<asrwt>0</asrwt>
<pdfrwt beam="1">  1        4 0.24312286E-02 0.91312508E+02</pdfrwt>
<pdfrwt beam="2">  1       -4 0.20293084E-01 0.91312508E+02</pdfrwt>
<totfact> 0.23693485E+04</totfact>
</mgrwt>
</event>
<event>
 5    1  0.1090823E+000  0.9635111E+02  0.7818608E-02  0.1288162E+00
          4   -1    0    0  501    0  0.00000000000E+00  0.00000000000E+00  0.35837441028E+03  0.35837722353E+03  0.14200000000E+01 0. -1.
         -4   -1    0    0    0  501 -0.00000000000E+00 -0.00000000000E+00 -0.63954306939E+01  0.65511780437E+01  0.14200000000E+01 0.  1.
         23    2    1    2    0    0  0.00000000000E+00  0.00000000000E+00  0.35197897958E+03  0.36492840157E+03  0.96351108987E+02 0.  0.
        -13    1    3    3    0    0  0.23823508840E+02  0.36907793733E+02  0.10108455371E+03  0.11021725356E+03  0.10570000000E+00 0.  1.
         13    1    3    3    0    0 -0.23823508840E+02 -0.36907793733E+02  0.25089442588E+03  0.25471114801E+03  0.10570000000E+00 0. -1.
<mgrwt>
<rscale>  0 0.96351109E+02</rscale>
<asrwt>0</asrwt>
<pdfrwt beam="1">  1        4 0.55146734E-01 0.96351109E+02</pdfrwt>
<pdfrwt beam="2">  1       -4 0.99610916E-03 0.96351109E+02</pdfrwt>
<totfact> 0.13819364E+04</totfact>
</mgrwt>
</event>
<event>
 5    1  0.1090823E+000  0.8799867E+02  0.7818608E-02  0.1307772E+00
          4   -1    0    0  501    0  0.00000000000E+00  0.00000000000E+00  0.55839627030E+02  0.55857679390E+02  0.14200000000E+01 0. -1.
         -4   -1    0    0    0  501 -0.00000000000E+00 -0.00000000000E+00 -0.34631458872E+02  0.34660558905E+02  0.14200000000E+01 0.  1.
         23    2    1    2    0    0  0.00000000000E+00  0.00000000000E+00  0.21208168157E+02  0.90518238295E+02  0.87998665146E+02 0.  0.
        -13    1    3    3    0    0  0.10624017566E+02 -0.37579264551E+02  0.31454106565E+02  0.50144220662E+02  0.10570000000E+00 0. -1.
         13    1    3    3    0    0 -0.10624017566E+02  0.37579264551E+02 -0.10245938408E+02  0.40374017633E+02  0.10570000000E+00 0.  1.
<mgrwt>
<rscale>  0 0.87998665E+02</rscale>
<asrwt>0</asrwt>
<pdfrwt beam="1">  1        4 0.85943388E-02 0.87998665E+02</pdfrwt>
<pdfrwt beam="2">  1       -4 0.53315439E-02 0.87998665E+02</pdfrwt>
<totfact> 0.29782733E+04</totfact>
</mgrwt>
</event>
<event>
 5    1  0.1090823E+000  0.8961827E+02  0.7818608E-02  0.1303779E+00
          4   -1    0    0  501    0  0.00000000000E+00  0.00000000000E+00  0.18166800464E+03  0.18167355424E+03  0.14200000000E+01 0. -1.
         -4   -1    0    0    0  501 -0.00000000000E+00 -0.00000000000E+00 -0.11000998884E+02  0.11092266515E+02  0.14200000000E+01 0.  1.
         23    2    1    2    0    0  0.00000000000E+00  0.00000000000E+00  0.17066700576E+03  0.19276582075E+03  0.89618272675E+02 0.  0.
        -13    1    3    3    0    0  0.10308918978E+02  0.27000698183E+02  0.11679465444E+02  0.31172625786E+02  0.10570000000E+00 0.  1.
         13    1    3    3    0    0 -0.10308918978E+02 -0.27000698183E+02  0.15898754031E+03  0.16159319497E+03  0.10570000000E+00 0. -1.
<mgrwt>
<rscale>  0 0.89618273E+02</rscale>
<asrwt>0</asrwt>
<pdfrwt beam="1">  1        4 0.27956371E-01 0.89618273E+02</pdfrwt>
<pdfrwt beam="2">  1       -4 0.16999089E-02 0.89618273E+02</pdfrwt>
<totfact> 0.22714636E+04</totfact>
</mgrwt>
</event>
<event>
 5    1  0.1090823E+000  0.9067819E+02  0.7818608E-02  0.1301218E+00
         -4   -1    0    0    0  501 -0.00000000000E+00  0.00000000000E+00  0.46423441147E+02  0.46445153546E+02  0.14200000000E+01 0.  1.
          4   -1    0    0  501    0  0.00000000000E+00 -0.00000000000E+00 -0.44236615561E+02  0.44259400768E+02  0.14200000000E+01 0. -1.
         23    2    1    2    0    0  0.00000000000E+00  0.00000000000E+00  0.21868255854E+01  0.90704554314E+02  0.90678189038E+02 0.  0.
        -13    1    3    3    0    0 -0.21068672575E+02 -0.14539982759E+02 -0.36338347527E+02  0.44449822679E+02  0.10570000000E+00 0. -1.
         13    1    3    3    0    0  0.21068672575E+02  0.14539982759E+02  0.38525173113E+02  0.46254731634E+02  0.10570000000E+00 0.  1.
<mgrwt>
<rscale>  0 0.90678189E+02</rscale>
<asrwt>0</asrwt>
<pdfrwt beam="2">  1        4 0.68090560E-02 0.90678189E+02</pdfrwt>
<pdfrwt beam="1">  1       -4 0.71454908E-02 0.90678189E+02</pdfrwt>
<totfact> 0.27451878E+04</totfact>
</mgrwt>
</event>
<event>
 5    1  0.1090823E+000  0.9061107E+02  0.7818608E-02  0.1301379E+00
          4   -1    0    0  501    0  0.00000000000E+00  0.00000000000E+00  0.89860952457E+02  0.89872171313E+02  0.14200000000E+01 0. -1.
         -4   -1    0    0    0  501 -0.00000000000E+00 -0.00000000000E+00 -0.22807136723E+02  0.22851299427E+02  0.14200000000E+01 0.  1.
         23    2    1    2    0    0  0.00000000000E+00  0.00000000000E+00  0.67053815735E+02  0.11272347074E+03  0.90611073556E+02 0.  0.
        -13    1    3    3    0    0 -0.21337747269E+02 -0.30097446791E+02  0.66238789806E+02  0.75820473550E+02  0.10570000000E+00 0. -1.
         13    1    3    3    0    0  0.21337747269E+02  0.30097446791E+02  0.81502592849E+00  0.36902997190E+02  0.10570000000E+00 0.  1.
<mgrwt>
<rscale>  0 0.90611074E+02</rscale>
<asrwt>0</asrwt>
<pdfrwt beam="1">  1        4 0.13829022E-01 0.90611074E+02</pdfrwt>
<pdfrwt beam="2">  1       -4 0.35130504E-02 0.90611074E+02</pdfrwt>
<totfact> 0.26127608E+04</totfact>
</mgrwt>
</event>
<event>
 5    1  0.1090823E+000  0.9052583E+02  0.7818608E-02  0.1301583E+00
          4   -1    0    0  501    0  0.00000000000E+00  0.00000000000E+00  0.11531799840E+02  0.11618898724E+02  0.14200000000E+01 0. -1.
         -4   -1    0    0    0  501 -0.00000000000E+00 -0.00000000000E+00 -0.17690093847E+03  0.17690663762E+03  0.14200000000E+01 0.  1.
         23    2    1    2    0    0  0.00000000000E+00  0.00000000000E+00 -0.16536913863E+03  0.18852553634E+03  0.90525829684E+02 0.  0.
        -13    1    3    3    0    0  0.22211726850E+02  0.26602131972E+02 -0.14331842557E+03  0.14744903023E+03  0.10570000000E+00 0.  1.
         13    1    3    3    0    0 -0.22211726850E+02 -0.26602131972E+02 -0.22050713060E+02  0.41076506108E+02  0.10570000000E+00 0. -1.
<mgrwt>
<rscale>  0 0.90525830E+02</rscale>
<asrwt>0</asrwt>
<pdfrwt beam="1">  1        4 0.17812615E-02 0.90525830E+02</pdfrwt>
<pdfrwt beam="2">  1       -4 0.27222665E-01 0.90525830E+02</pdfrwt>
<totfact> 0.22298675E+04</totfact>
</mgrwt>
</event>
<event>
 5    1  0.1090823E+000  0.9126617E+02  0.7818608E-02  0.1299814E+00
          4   -1    0    0  501    0  0.00000000000E+00  0.00000000000E+00  0.79989106216E+01  0.81239750820E+01  0.14200000000E+01 0. -1.
         -4   -1    0    0    0  501 -0.00000000000E+00 -0.00000000000E+00 -0.25818631523E+03  0.25819022013E+03  0.14200000000E+01 0.  1.
         23    2    1    2    0    0  0.00000000000E+00  0.00000000000E+00 -0.25018740461E+03  0.26631419522E+03  0.91266166502E+02 0.  0.
        -13    1    3    3    0    0  0.31383705016E+02 -0.23545217252E+02 -0.19309318096E+03  0.19703883349E+03  0.10570000000E+00 0.  1.
         13    1    3    3    0    0 -0.31383705016E+02  0.23545217252E+02 -0.57094223648E+02  0.69275361728E+02  0.10570000000E+00 0. -1.
<mgrwt>
<rscale>  0 0.91266167E+02</rscale>
<asrwt>0</asrwt>
<pdfrwt beam="1">  1        4 0.12405225E-02 0.91266167E+02</pdfrwt>
<pdfrwt beam="2">  1       -4 0.39730886E-01 0.91266167E+02</pdfrwt>
<totfact> 0.18850802E+04</totfact>
</mgrwt>
</event>
<event>
 5    1  0.1090823E+000  0.8896331E+02  0.7818608E-02  0.1305382E+00
          4   -1    0    0  501    0  0.00000000000E+00  0.00000000000E+00  0.54770961353E+02  0.54789365825E+02  0.14200000000E+01 0.  1.
         -4   -1    0    0    0  501 -0.00000000000E+00 -0.00000000000E+00 -0.36086862830E+02  0.36114790168E+02  0.14200000000E+01 0. -1.
         23    2    1    2    0    0  0.00000000000E+00  0.00000000000E+00  0.18684098523E+02  0.90904155993E+02  0.88963307263E+02 0.  0.
        -13    1    3    3    0    0 -0.23675487627E+02  0.26113892271E+02 -0.18381810438E+02  0.39753820085E+02  0.10570000000E+00 0. -1.
         13    1    3    3    0    0  0.23675487627E+02 -0.26113892271E+02  0.37065908961E+02  0.51150335908E+02  0.10570000000E+00 0.  1.
<mgrwt>
<rscale>  0 0.88963307E+02</rscale>
<asrwt>0</asrwt>
<pdfrwt beam="1">  1        4 0.84298657E-02 0.88963307E+02</pdfrwt>
<pdfrwt beam="2">  1       -4 0.55553890E-02 0.88963307E+02</pdfrwt>
<totfact> 0.28892468E+04</totfact>
</mgrwt>
</event>
<event>
 5    1  0.1090823E+000  0.8951096E+02  0.7818608E-02  0.1304040E+00
          4   -1    0    0  501    0  0.00000000000E+00  0.00000000000E+00  0.88993728604E+01  0.90119496952E+01  0.14200000000E+01 0. -1.
         -4   -1    0    0    0  501 -0.00000000000E+00 -0.00000000000E+00 -0.22354849612E+03  0.22355300606E+03  0.14200000000E+01 0.  1.
         23    2    1    2    0    0  0.00000000000E+00  0.00000000000E+00 -0.21464912326E+03  0.23256495576E+03  0.89510963175E+02 0.  0.
        -13    1    3    3    0    0 -0.75908758014E+01 -0.43691022105E+02 -0.12302474039E+03  0.13077318046E+03  0.10570000000E+00 0.  1.
         13    1    3    3    0    0  0.75908758014E+01  0.43691022105E+02 -0.91624382876E+02  0.10179177530E+03  0.10570000000E+00 0. -1.
<mgrwt>
<rscale>  0 0.89510963E+02</rscale>
<asrwt>0</asrwt>
<pdfrwt beam="1">  1        4 0.13781411E-02 0.89510963E+02</pdfrwt>
<pdfrwt beam="2">  1       -4 0.34401079E-01 0.89510963E+02</pdfrwt>
<totfact> 0.21109975E+04</totfact>
</mgrwt>
</event>
<event>
 5    1  0.1090823E+000  0.8730953E+02  0.7818608E-02  0.1309501E+00
          4   -1    0    0  501    0  0.00000000000E+00  0.00000000000E+00  0.65456192244E+02  0.65471593100E+02  0.14200000000E+01 0.  1.
         -4   -1    0    0    0  501 -0.00000000000E+00 -0.00000000000E+00 -0.29078560772E+02  0.29113211718E+02  0.14200000000E+01 0. -1.
         23    2    1    2    0    0  0.00000000000E+00  0.00000000000E+00  0.36377631472E+02  0.94584804818E+02  0.87309525431E+02 0.  0.
        -13    1    3    3    0    0 -0.39740450838E+01  0.14825119091E+02  0.62461665346E+02  0.64319888065E+02  0.10570000000E+00 0.  1.
         13    1    3    3    0    0  0.39740450838E+01 -0.14825119091E+02 -0.26084033875E+02  0.30264916753E+02  0.10570000000E+00 0. -1.
<mgrwt>
<rscale>  0 0.87309525E+02</rscale>
<asrwt>0</asrwt>
<pdfrwt beam="1">  1        4 0.10074033E-01 0.87309525E+02</pdfrwt>
<pdfrwt beam="2">  1       -4 0.44774749E-02 0.87309525E+02</pdfrwt>
<totfact> 0.30124593E+04</totfact>
</mgrwt>
</event>
<event>
 5    1  0.1090823E+000  0.9270226E+02  0.7818608E-02  0.1296437E+00
          4   -1    0    0  501    0  0.00000000000E+00  0.00000000000E+00  0.14569469560E+02  0.14638505500E+02  0.14200000000E+01 0. -1.
         -4   -1    0    0    0  501 -0.00000000000E+00 -0.00000000000E+00 -0.14703990016E+03  0.14704675664E+03  0.14200000000E+01 0.  1.
         23    2    1    2    0    0  0.00000000000E+00  0.00000000000E+00 -0.13247043060E+03  0.16168526214E+03  0.92702260010E+02 0.  0.
        -13    1    3    3    0    0 -0.41033433841E+02 -0.13750625570E+02 -0.95189626856E+02  0.10456528406E+03  0.10570000000E+00 0.  1.
         13    1    3    3    0    0  0.41033433841E+02  0.13750625570E+02 -0.37280803745E+02  0.57119978087E+02  0.10570000000E+00 0. -1.
<mgrwt>
<rscale>  0 0.92702260E+02</rscale>
<asrwt>0</asrwt>
<pdfrwt beam="1">  1        4 0.22472948E-02 0.92702260E+02</pdfrwt>
<pdfrwt beam="2">  1       -4 0.22627360E-01 0.92702260E+02</pdfrwt>
<totfact> 0.22089640E+04</totfact>
</mgrwt>
</event>
<event>
 5    1  0.1090823E+000  0.8266252E+02  0.7818608E-02  0.1321661E+00
          4   -1    0    0  501    0  0.00000000000E+00  0.00000000000E+00  0.28243177523E+02  0.28278852109E+02  0.14200000000E+01 0. -1.
         -4   -1    0    0    0  501 -0.00000000000E+00 -0.00000000000E+00 -0.60402244270E+02  0.60418933397E+02  0.14200000000E+01 0.  1.
         23    2    1    2    0    0  0.00000000000E+00  0.00000000000E+00 -0.32159066747E+02  0.88697785507E+02  0.82662516171E+02 0.  0.
        -13    1    3    3    0    0  0.10399505596E+02 -0.39932560510E+02 -0.18596565715E+02  0.45261490634E+02  0.10570000000E+00 0. -1.
         13    1    3    3    0    0 -0.10399505596E+02  0.39932560510E+02 -0.13562501032E+02  0.43436294873E+02  0.10570000000E+00 0.  1.
<mgrwt>
<rscale>  0 0.82662516E+02</rscale>
<asrwt>0</asrwt>
<pdfrwt beam="1">  1        4 0.43491322E-02 0.82662516E+02</pdfrwt>
<pdfrwt beam="2">  1       -4 0.92966809E-02 0.82662516E+02</pdfrwt>
<totfact> 0.35389487E+04</totfact>
</mgrwt>
</event>
<event>
 5    1  0.1090823E+000  0.8877298E+02  0.7818608E-02  0.1305851E+00
         -4   -1    0    0    0  501 -0.00000000000E+00  0.00000000000E+00  0.16395588533E+03  0.16396203443E+03  0.14200000000E+01 0.  1.
          4   -1    0    0  501    0  0.00000000000E+00 -0.00000000000E+00 -0.11968058149E+02  0.12052004640E+02  0.14200000000E+01 0. -1.
         23    2    1    2    0    0  0.00000000000E+00  0.00000000000E+00  0.15198782718E+03  0.17601403907E+03  0.88772982030E+02 0.  0.
        -13    1    3    3    0    0 -0.44362350186E+02  0.14484112728E+01  0.76356288793E+02  0.88319929914E+02  0.10570000000E+00 0. -1.
         13    1    3    3    0    0  0.44362350186E+02 -0.14484112728E+01  0.75631538389E+02  0.87694109157E+02  0.10570000000E+00 0.  1.
<mgrwt>
<rscale>  0 0.88772982E+02</rscale>
<asrwt>0</asrwt>
<pdfrwt beam="2">  1        4 0.18481703E-02 0.88772982E+02</pdfrwt>
<pdfrwt beam="1">  1       -4 0.25230911E-01 0.88772982E+02</pdfrwt>
<totfact> 0.24092085E+04</totfact>
</mgrwt>
</event>
<event>
 5    1  0.1090823E+000  0.9207389E+02  0.7818608E-02  0.1297906E+00
         -4   -1    0    0    0  501 -0.00000000000E+00  0.00000000000E+00  0.65445888145E+01  0.66968681300E+01  0.14200000000E+01 0.  1.
          4   -1    0    0  501    0  0.00000000000E+00 -0.00000000000E+00 -0.31996202614E+03  0.31996517713E+03  0.14200000000E+01 0. -1.
         23    2    1    2    0    0  0.00000000000E+00  0.00000000000E+00 -0.31341743733E+03  0.32666204526E+03  0.92073893094E+02 0.  0.
        -13    1    3    3    0    0 -0.27582287361E+02  0.29757305493E+02 -0.23387773961E+03  0.23737120311E+03  0.10570000000E+00 0.  1.
         13    1    3    3    0    0  0.27582287361E+02 -0.29757305493E+02 -0.79539697717E+02  0.89290842149E+02  0.10570000000E+00 0. -1.
<mgrwt>
<rscale>  0 0.92073893E+02</rscale>
<asrwt>0</asrwt>
<pdfrwt beam="2">  1        4 0.49236871E-01 0.92073893E+02</pdfrwt>
<pdfrwt beam="1">  1       -4 0.10188162E-02 0.92073893E+02</pdfrwt>
<totfact> 0.16598648E+04</totfact>
</mgrwt>
</event>
<event>
 5    1  0.1090823E+000  0.8531013E+02  0.7818608E-02  0.1314624E+00
          4   -1    0    0  501    0  0.00000000000E+00  0.00000000000E+00  0.12140701266E+03  0.12141531667E+03  0.14200000000E+01 0.  1.
         -4   -1    0    0    0  501 -0.00000000000E+00 -0.00000000000E+00 -0.14943928933E+02  0.15011242852E+02  0.14200000000E+01 0. -1.
         23    2    1    2    0    0  0.00000000000E+00  0.00000000000E+00  0.10646308373E+03  0.13642655953E+03  0.85310128046E+02 0.  0.
        -13    1    3    3    0    0 -0.22046775897E+02 -0.33257473362E+02  0.77342832323E+02  0.87028987964E+02  0.10570000000E+00 0.  1.
         13    1    3    3    0    0  0.22046775897E+02  0.33257473362E+02  0.29120251405E+02  0.49397571562E+02  0.10570000000E+00 0. -1.
<mgrwt>
<rscale>  0 0.85310128E+02</rscale>
<asrwt>0</asrwt>
<pdfrwt beam="1">  1        4 0.18683818E-01 0.85310128E+02</pdfrwt>
<pdfrwt beam="2">  1       -4 0.23048828E-02 0.85310128E+02</pdfrwt>
<totfact> 0.29126051E+04</totfact>
</mgrwt>
</event>
<event>
 5    1  0.1090823E+000  0.8936542E+02  0.7818608E-02  0.1304396E+00
         -4   -1    0    0    0  501 -0.00000000000E+00  0.00000000000E+00  0.12903640329E+03  0.12904421635E+03  0.14200000000E+01 0. -1.
          4   -1    0    0  501    0  0.00000000000E+00 -0.00000000000E+00 -0.15431842551E+02  0.15497037282E+02  0.14200000000E+01 0.  1.
         23    2    1    2    0    0  0.00000000000E+00  0.00000000000E+00  0.11360456074E+03  0.14454125363E+03  0.89365417144E+02 0.  0.
        -13    1    3    3    0    0 -0.12088921064E+02 -0.25668492677E+02  0.11263296478E+03  0.11615166575E+03  0.10570000000E+00 0. -1.
         13    1    3    3    0    0  0.12088921064E+02  0.25668492677E+02  0.97159595395E+00  0.28389587880E+02  0.10570000000E+00 0.  1.
<mgrwt>
<rscale>  0 0.89365417E+02</rscale>
<asrwt>0</asrwt>
<pdfrwt beam="2">  1        4 0.23797457E-02 0.89365417E+02</pdfrwt>
<pdfrwt beam="1">  1       -4 0.19857369E-01 0.89365417E+02</pdfrwt>
<totfact> 0.25275581E+04</totfact>
</mgrwt>
</event>
<event>
 5    1  0.1090823E+000  0.1137605E+03  0.7818608E-02  0.1253760E+00
         -4   -1    0    0    0  501 -0.00000000000E+00  0.00000000000E+00  0.43215005179E+02  0.43238328745E+02  0.14200000000E+01 0.  1.
          4   -1    0    0  501    0  0.00000000000E+00 -0.00000000000E+00 -0.74816452223E+02  0.74829926656E+02  0.14200000000E+01 0. -1.
         23    2    1    2    0    0  0.00000000000E+00  0.00000000000E+00 -0.31601447044E+02  0.11806825540E+03  0.11376054447E+03 0.  0.
        -13    1    3    3    0    0  0.50171102796E+02  0.86187863167E+01 -0.42137414377E+02  0.66083249740E+02  0.10570000000E+00 0.  1.
         13    1    3    3    0    0 -0.50171102796E+02 -0.86187863167E+01  0.10535967333E+02  0.51985005660E+02  0.10570000000E+00 0. -1.
<mgrwt>
<rscale>  0 0.11376054E+03</rscale>
<asrwt>0</asrwt>
<pdfrwt beam="2">  1        4 0.11513054E-01 0.11376054E+03</pdfrwt>
<pdfrwt beam="1">  1       -4 0.66512930E-02 0.11376054E+03</pdfrwt>
<totfact> 0.13821062E+04</totfact>
</mgrwt>
</event>
<event>
 5    1  0.1090823E+000  0.9041587E+02  0.7818608E-02  0.1301848E+00
         -4   -1    0    0    0  501 -0.00000000000E+00  0.00000000000E+00  0.37856475603E+02  0.37883098409E+02  0.14200000000E+01 0.  1.
          4   -1    0    0  501    0  0.00000000000E+00 -0.00000000000E+00 -0.53932051223E+02  0.53950741878E+02  0.14200000000E+01 0. -1.
         23    2    1    2    0    0  0.00000000000E+00  0.00000000000E+00 -0.16075575620E+02  0.91833840287E+02  0.90415873000E+02 0.  0.
        -13    1    3    3    0    0  0.73284044595E+01  0.25041681865E+02 -0.45534986652E+02  0.52480830066E+02  0.10570000000E+00 0. -1.
         13    1    3    3    0    0 -0.73284044595E+01 -0.25041681865E+02  0.29459411032E+02  0.39353010220E+02  0.10570000000E+00 0.  1.
<mgrwt>
<rscale>  0 0.90415873E+02</rscale>
<asrwt>0</asrwt>
<pdfrwt beam="2">  1        4 0.83007243E-02 0.90415873E+02</pdfrwt>
<pdfrwt beam="1">  1       -4 0.58275588E-02 0.90415873E+02</pdfrwt>
<totfact> 0.27593622E+04</totfact>
</mgrwt>
</event>
<event>
 5    1  0.1090823E+000  0.9019116E+02  0.7818608E-02  0.1302389E+00
          4   -1    0    0  501    0  0.00000000000E+00  0.00000000000E+00  0.37321690948E+02  0.37348694960E+02  0.14200000000E+01 0. -1.
         -4   -1    0    0    0  501 -0.00000000000E+00 -0.00000000000E+00 -0.54432754784E+02  0.54451273570E+02  0.14200000000E+01 0.  1.
         23    2    1    2    0    0  0.00000000000E+00  0.00000000000E+00 -0.17111063837E+02  0.91799968529E+02  0.90191162075E+02 0.  0.
        -13    1    3    3    0    0 -0.20209281626E+02 -0.32801401297E+02 -0.32409732874E+02  0.50346290313E+02  0.10570000000E+00 0.  1.
         13    1    3    3    0    0  0.20209281626E+02  0.32801401297E+02  0.15298669037E+02  0.41453678216E+02  0.10570000000E+00 0. -1.
<mgrwt>
<rscale>  0 0.90191162E+02</rscale>
<asrwt>0</asrwt>
<pdfrwt beam="1">  1        4 0.57453003E-02 0.90191162E+02</pdfrwt>
<pdfrwt beam="2">  1       -4 0.83777718E-02 0.90191162E+02</pdfrwt>
<totfact> 0.27782199E+04</totfact>
</mgrwt>
</event>
<event>
 5    1  0.1090823E+000  0.8992153E+02  0.7818608E-02  0.1303042E+00
         -4   -1    0    0    0  501 -0.00000000000E+00  0.00000000000E+00  0.10506859117E+02  0.10602381265E+02  0.14200000000E+01 0.  1.
          4   -1    0    0  501    0  0.00000000000E+00 -0.00000000000E+00 -0.19142652175E+03  0.19143178845E+03  0.14200000000E+01 0. -1.
         23    2    1    2    0    0  0.00000000000E+00  0.00000000000E+00 -0.18091966263E+03  0.20203416971E+03  0.89921529153E+02 0.  0.
        -13    1    3    3    0    0  0.11633548982E+02 -0.35129856442E+02 -0.33089251545E+02  0.49642280526E+02  0.10570000000E+00 0.  1.
         13    1    3    3    0    0 -0.11633548982E+02  0.35129856442E+02 -0.14783041109E+03  0.15239188919E+03  0.10570000000E+00 0. -1.
<mgrwt>
<rscale>  0 0.89921529E+02</rscale>
<asrwt>0</asrwt>
<pdfrwt beam="2">  1        4 0.29457985E-01 0.89921529E+02</pdfrwt>
<pdfrwt beam="1">  1       -4 0.16241930E-02 0.89921529E+02</pdfrwt>
<totfact> 0.22104737E+04</totfact>
</mgrwt>
</event>
<event>
 5    1  0.1090823E+000  0.9676330E+02  0.7818608E-02  0.1287253E+00
         -4   -1    0    0    0  501 -0.00000000000E+00  0.00000000000E+00  0.42417472887E+02  0.42441234738E+02  0.14200000000E+01 0.  1.
          4   -1    0    0  501    0  0.00000000000E+00 -0.00000000000E+00 -0.55136074357E+02  0.55154356995E+02  0.14200000000E+01 0. -1.
         23    2    1    2    0    0  0.00000000000E+00  0.00000000000E+00 -0.12718601471E+02  0.97595591733E+02  0.96763302457E+02 0.  0.
        -13    1    3    3    0    0  0.17965950199E+02 -0.43016741433E+02  0.66964417716E+01  0.47096379000E+02  0.10570000000E+00 0.  1.
         13    1    3    3    0    0 -0.17965950199E+02  0.43016741433E+02 -0.19415043242E+02  0.50499212733E+02  0.10570000000E+00 0. -1.
<mgrwt>
<rscale>  0 0.96763302E+02</rscale>
<asrwt>0</asrwt>
<pdfrwt beam="2">  1        4 0.84857072E-02 0.96763302E+02</pdfrwt>
<pdfrwt beam="1">  1       -4 0.65289992E-02 0.96763302E+02</pdfrwt>
<totfact> 0.22625238E+04</totfact>
</mgrwt>
</event>
<event>
 5    1  0.1090823E+000  0.8360289E+02  0.7818608E-02  0.1319127E+00
          4   -1    0    0  501    0  0.00000000000E+00  0.00000000000E+00  0.15972147079E+03  0.15972778290E+03  0.14200000000E+01 0. -1.
         -4   -1    0    0    0  501 -0.00000000000E+00 -0.00000000000E+00 -0.10887414812E+02  0.10979626646E+02  0.14200000000E+01 0.  1.
         23    2    1    2    0    0  0.00000000000E+00  0.00000000000E+00  0.14883405598E+03  0.17070740955E+03  0.83602891437E+02 0.  0.
        -13    1    3    3    0    0  0.39449644454E+02  0.89744978985E+01  0.95884370900E+02  0.10407035993E+03  0.10570000000E+00 0.  1.
         13    1    3    3    0    0 -0.39449644454E+02 -0.89744978985E+01  0.52949685078E+02  0.66637049623E+02  0.10570000000E+00 0. -1.
<mgrwt>
<rscale>  0 0.83602891E+02</rscale>
<asrwt>0</asrwt>
<pdfrwt beam="1">  1        4 0.24580112E-01 0.83602891E+02</pdfrwt>
<pdfrwt beam="2">  1       -4 0.16825657E-02 0.83602891E+02</pdfrwt>
<totfact> 0.28569264E+04</totfact>
</mgrwt>
</event>
<event>
 5    1  0.1090823E+000  0.8738890E+02  0.7818608E-02  0.1309301E+00
         -4   -1    0    0    0  501 -0.00000000000E+00  0.00000000000E+00  0.50023492432E+01  0.51999901876E+01  0.14200000000E+01 0.  1.
          4   -1    0    0  501    0  0.00000000000E+00 -0.00000000000E+00 -0.37406906779E+03  0.37407176300E+03  0.14200000000E+01 0. -1.
         23    2    1    2    0    0  0.00000000000E+00  0.00000000000E+00 -0.36906671855E+03  0.37927175319E+03  0.87388901071E+02 0.  0.
        -13    1    3    3    0    0  0.39694745145E+02  0.17993818757E+02 -0.19808064761E+03  0.20281864913E+03  0.10570000000E+00 0. -1.
         13    1    3    3    0    0 -0.39694745145E+02 -0.17993818757E+02 -0.17098607093E+03  0.17645310406E+03  0.10570000000E+00 0.  1.
<mgrwt>
<rscale>  0 0.87388901E+02</rscale>
<asrwt>0</asrwt>
<pdfrwt beam="2">  1        4 0.57564476E-01 0.87388901E+02</pdfrwt>
<pdfrwt beam="1">  1       -4 0.78500296E-03 0.87388901E+02</pdfrwt>
<totfact> 0.17499537E+04</totfact>
</mgrwt>
</event>
<event>
 5    1  0.1090823E+000  0.9110447E+02  0.7818608E-02  0.1300199E+00
         -4   -1    0    0    0  501 -0.00000000000E+00  0.00000000000E+00  0.18113211225E+02  0.18168786995E+02  0.14200000000E+01 0.  1.
          4   -1    0    0  501    0  0.00000000000E+00 -0.00000000000E+00 -0.11432213672E+03  0.11433095532E+03  0.14200000000E+01 0. -1.
         23    2    1    2    0    0  0.00000000000E+00  0.00000000000E+00 -0.96208925493E+02  0.13249974231E+03  0.91104469529E+02 0.  0.
        -13    1    3    3    0    0  0.40334896278E+02 -0.17992888371E+02 -0.31886621011E+02  0.54473990690E+02  0.10570000000E+00 0.  1.
         13    1    3    3    0    0 -0.40334896278E+02  0.17992888371E+02 -0.64322304483E+02  0.78025751622E+02  0.10570000000E+00 0. -1.
<mgrwt>
<rscale>  0 0.91104470E+02</rscale>
<asrwt>0</asrwt>
<pdfrwt beam="2">  1        4 0.17592974E-01 0.91104470E+02</pdfrwt>
<pdfrwt beam="1">  1       -4 0.27916014E-02 0.91104470E+02</pdfrwt>
<totfact> 0.24635434E+04</totfact>
</mgrwt>
</event>
<event>
 5    1  0.1090823E+000  0.8708267E+02  0.7818608E-02  0.1310074E+00
          4   -1    0    0  501    0  0.00000000000E+00  0.00000000000E+00  0.11284430351E+02  0.11373423774E+02  0.14200000000E+01 0. -1.
         -4   -1    0    0    0  501 -0.00000000000E+00 -0.00000000000E+00 -0.16725372495E+03  0.16725975281E+03  0.14200000000E+01 0.  1.
         23    2    1    2    0    0  0.00000000000E+00  0.00000000000E+00 -0.15596929460E+03  0.17863317658E+03  0.87082667151E+02 0.  0.
        -13    1    3    3    0    0 -0.27209576910E+02  0.28935510582E+02 -0.41392451001E+02  0.57366985459E+02  0.10570000000E+00 0. -1.
         13    1    3    3    0    0  0.27209576910E+02 -0.28935510582E+02 -0.11457684359E+03  0.12126619112E+03  0.10570000000E+00 0.  1.
<mgrwt>
<rscale>  0 0.87082667E+02</rscale>
<asrwt>0</asrwt>
<pdfrwt beam="1">  1        4 0.17433757E-02 0.87082667E+02</pdfrwt>
<pdfrwt beam="2">  1       -4 0.25738650E-01 0.87082667E+02</pdfrwt>
<totfact> 0.25223978E+04</totfact>
</mgrwt>
</event>
<event>
 5    1  0.1090823E+000  0.1137010E+03  0.7818608E-02  0.1253866E+00
         -4   -1    0    0    0  501 -0.00000000000E+00  0.00000000000E+00  0.35050039110E+03  0.35050326755E+03  0.14200000000E+01 0. -1.
          4   -1    0    0  501    0  0.00000000000E+00 -0.00000000000E+00 -0.91634439530E+01  0.92728153804E+01  0.14200000000E+01 0.  1.
         23    2    1    2    0    0  0.00000000000E+00  0.00000000000E+00  0.34133694715E+03  0.35977608293E+03  0.11370100421E+03 0.  0.
        -13    1    3    3    0    0  0.36424675897E+02 -0.35203934156E+02  0.25232119753E+03  0.25735592452E+03  0.10570000000E+00 0. -1.
         13    1    3    3    0    0 -0.36424675897E+02  0.35203934156E+02  0.89015749619E+02  0.10242015840E+03  0.10570000000E+00 0.  1.
<mgrwt>
<rscale>  0 0.11370100E+03</rscale>
<asrwt>0</asrwt>
<pdfrwt beam="2">  1        4 0.14183951E-02 0.11370100E+03</pdfrwt>
<pdfrwt beam="1">  1       -4 0.53931770E-01 0.11370100E+03</pdfrwt>
<totfact> 0.89096853E+03</totfact>
</mgrwt>
</event>
<event>
 5    1  0.1090823E+000  0.7752597E+02  0.7818608E-02  0.1336223E+00
         -4   -1    0    0    0  501 -0.00000000000E+00  0.00000000000E+00  0.10386849117E+02  0.10483464817E+02  0.14200000000E+01 0. -1.
          4   -1    0    0  501    0  0.00000000000E+00 -0.00000000000E+00 -0.14389091286E+03  0.14389791938E+03  0.14200000000E+01 0.  1.
         23    2    1    2    0    0  0.00000000000E+00  0.00000000000E+00 -0.13350406374E+03  0.15438138420E+03  0.77525974696E+02 0.  0.
        -13    1    3    3    0    0 -0.82377953922E+01  0.27466192768E+02 -0.11869174254E+03  0.12210648606E+03  0.10570000000E+00 0.  1.
         13    1    3    3    0    0  0.82377953922E+01 -0.27466192768E+02 -0.14812321197E+02  0.32274898138E+02  0.10570000000E+00 0. -1.
<mgrwt>
<rscale>  0 0.77525975E+02</rscale>
<asrwt>0</asrwt>
<pdfrwt beam="2">  1        4 0.22145033E-01 0.77525975E+02</pdfrwt>
<pdfrwt beam="1">  1       -4 0.16059478E-02 0.77525975E+02</pdfrwt>
<totfact> 0.36088353E+04</totfact>
</mgrwt>
</event>
<event>
 5    1  0.1090823E+000  0.8378398E+02  0.7818608E-02  0.1318644E+00
         -4   -1    0    0    0  501 -0.00000000000E+00  0.00000000000E+00  0.14869959549E+02  0.14937606802E+02  0.14200000000E+01 0.  1.
          4   -1    0    0  501    0  0.00000000000E+00 -0.00000000000E+00 -0.11767928624E+03  0.11768785328E+03  0.14200000000E+01 0. -1.
         23    2    1    2    0    0  0.00000000000E+00  0.00000000000E+00 -0.10280932669E+03  0.13262546009E+03  0.83783978229E+02 0.  0.
        -13    1    3    3    0    0  0.38713059438E+02 -0.13510897608E+01 -0.26156751011E+02  0.46740915808E+02  0.10570000000E+00 0.  1.
         13    1    3    3    0    0 -0.38713059438E+02  0.13510897608E+01 -0.76652575684E+02  0.85884544279E+02  0.10570000000E+00 0. -1.
<mgrwt>
<rscale>  0 0.83783978E+02</rscale>
<asrwt>0</asrwt>
<pdfrwt beam="2">  1        4 0.18110368E-01 0.83783978E+02</pdfrwt>
<pdfrwt beam="1">  1       -4 0.22935488E-02 0.83783978E+02</pdfrwt>
<totfact> 0.30818587E+04</totfact>
</mgrwt>
</event>
<event>
 5    1  0.1090823E+000  0.9224128E+02  0.7818608E-02  0.1297513E+00
          4   -1    0    0  501    0  0.00000000000E+00  0.00000000000E+00  0.19918265472E+03  0.19918771634E+03  0.14200000000E+01 0.  1.
         -4   -1    0    0    0  501 -0.00000000000E+00 -0.00000000000E+00 -0.10626784560E+02  0.10721238272E+02  0.14200000000E+01 0. -1.
         23    2    1    2    0    0  0.00000000000E+00  0.00000000000E+00  0.18855587016E+03  0.20990895462E+03  0.92241276311E+02 0.  0.
        -13    1    3    3    0    0  0.38597802511E+02 -0.11340226766E+01  0.15166883083E+03  0.15650725793E+03  0.10570000000E+00 0.  1.
         13    1    3    3    0    0 -0.38597802511E+02  0.11340226766E+01  0.36887039335E+02  0.53401696692E+02  0.10570000000E+00 0. -1.
<mgrwt>
<rscale>  0 0.92241276E+02</rscale>
<asrwt>0</asrwt>
<pdfrwt beam="1">  1        4 0.30651138E-01 0.92241276E+02</pdfrwt>
<pdfrwt beam="2">  1       -4 0.16425451E-02 0.92241276E+02</pdfrwt>
<totfact> 0.20336367E+04</totfact>
</mgrwt>
</event>
<event>
 5    1  0.1090823E+000  0.9119493E+02  0.7818608E-02  0.1299984E+00
         -4   -1    0    0    0  501 -0.00000000000E+00  0.00000000000E+00  0.49637618581E+02  0.49657925636E+02  0.14200000000E+01 0.  1.
          4   -1    0    0  501    0  0.00000000000E+00 -0.00000000000E+00 -0.41845230700E+02  0.41869317314E+02  0.14200000000E+01 0. -1.
         23    2    1    2    0    0  0.00000000000E+00  0.00000000000E+00  0.77923878809E+01  0.91527242950E+02  0.91194928001E+02 0.  0.
        -13    1    3    3    0    0  0.19443616909E+02 -0.34683056898E+02  0.26296774452E+02  0.47670747774E+02  0.10570000000E+00 0.  1.
         13    1    3    3    0    0 -0.19443616909E+02  0.34683056898E+02 -0.18504386571E+02  0.43856495176E+02  0.10570000000E+00 0. -1.
<mgrwt>
<rscale>  0 0.91194928E+02</rscale>
<asrwt>0</asrwt>
<pdfrwt beam="2">  1        4 0.64411427E-02 0.91194928E+02</pdfrwt>
<pdfrwt beam="1">  1       -4 0.76399716E-02 0.91194928E+02</pdfrwt>
<totfact> 0.26979238E+04</totfact>
</mgrwt>
</event>
<event>
 5    1  0.1090823E+000  0.9083506E+02  0.7818608E-02  0.1300842E+00
         -4   -1    0    0    0  501 -0.00000000000E+00  0.00000000000E+00  0.26601220640E+03  0.26601599642E+03  0.14200000000E+01 0.  1.
          4   -1    0    0  501    0  0.00000000000E+00 -0.00000000000E+00 -0.76854642192E+01  0.78155460632E+01  0.14200000000E+01 0. -1.
         23    2    1    2    0    0  0.00000000000E+00  0.00000000000E+00  0.25832674218E+03  0.27383154249E+03  0.90835058955E+02 0.  0.
        -13    1    3    3    0    0  0.39256455901E+02 -0.17076205164E+02  0.83437245865E+02  0.93778735770E+02  0.10570000000E+00 0. -1.
         13    1    3    3    0    0 -0.39256455901E+02  0.17076205164E+02  0.17488949631E+03  0.18005280672E+03  0.10570000000E+00 0.  1.
<mgrwt>
<rscale>  0 0.90835059E+02</rscale>
<asrwt>0</asrwt>
<pdfrwt beam="2">  1        4 0.11926770E-02 0.90835059E+02</pdfrwt>
<pdfrwt beam="1">  1       -4 0.40935251E-01 0.90835059E+02</pdfrwt>
<totfact> 0.18836944E+04</totfact>
</mgrwt>
</event>
<event>
 5    1  0.1090823E+000  0.8120990E+02  0.7818608E-02  0.1325653E+00
          4   -1    0    0  501    0  0.00000000000E+00  0.00000000000E+00  0.98201593923E+02  0.98211860023E+02  0.14200000000E+01 0.  1.
         -4   -1    0    0    0  501 -0.00000000000E+00 -0.00000000000E+00 -0.16748375335E+02  0.16808464426E+02  0.14200000000E+01 0. -1.
         23    2    1    2    0    0  0.00000000000E+00  0.00000000000E+00  0.81453218588E+02  0.11502032445E+03  0.81209902216E+02 0.  0.
        -13    1    3    3    0    0  0.23567751917E+02  0.18873868473E+02  0.79179197556E+02  0.84740889420E+02  0.10570000000E+00 0.  1.
         13    1    3    3    0    0 -0.23567751917E+02 -0.18873868473E+02  0.22740210322E+01  0.30279435029E+02  0.10570000000E+00 0. -1.
<mgrwt>
<rscale>  0 0.81209902E+02</rscale>
<asrwt>0</asrwt>
<pdfrwt beam="1">  1        4 0.15113350E-01 0.81209902E+02</pdfrwt>
<pdfrwt beam="2">  1       -4 0.25820851E-02 0.81209902E+02</pdfrwt>
<totfact> 0.34847871E+04</totfact>
</mgrwt>
</event>
<event>
 5    1  0.1090823E+000  0.9354271E+02  0.7818608E-02  0.1294492E+00
         -4   -1    0    0    0  501 -0.00000000000E+00  0.00000000000E+00  0.12401890058E+03  0.12402702972E+03  0.14200000000E+01 0.  1.
          4   -1    0    0  501    0  0.00000000000E+00 -0.00000000000E+00 -0.17601619617E+02  0.17658805541E+02  0.14200000000E+01 0. -1.
         23    2    1    2    0    0  0.00000000000E+00  0.00000000000E+00  0.10641728096E+03  0.14168583526E+03  0.93542708031E+02 0.  0.
        -13    1    3    3    0    0  0.46197944817E+02 -0.66644629257E+01  0.48694225029E+02  0.67452234174E+02  0.10570000000E+00 0.  1.
         13    1    3    3    0    0 -0.46197944817E+02  0.66644629257E+01  0.57723055932E+02  0.74233601084E+02  0.10570000000E+00 0. -1.
<mgrwt>
<rscale>  0 0.93542708E+02</rscale>
<asrwt>0</asrwt>
<pdfrwt beam="2">  1        4 0.27129658E-02 0.93542708E+02</pdfrwt>
<pdfrwt beam="1">  1       -4 0.19084855E-01 0.93542708E+02</pdfrwt>
<totfact> 0.22485388E+04</totfact>
</mgrwt>
</event>
<event>
 5    1  0.1090823E+000  0.9191243E+02  0.7818608E-02  0.1298285E+00
         -4   -1    0    0    0  501 -0.00000000000E+00  0.00000000000E+00  0.46505245190E+02  0.46526919414E+02  0.14200000000E+01 0.  1.
          4   -1    0    0  501    0  0.00000000000E+00 -0.00000000000E+00 -0.45370297706E+02  0.45392513854E+02  0.14200000000E+01 0. -1.
         23    2    1    2    0    0  0.00000000000E+00  0.00000000000E+00  0.11349474835E+01  0.91919433268E+02  0.91912426290E+02 0.  0.
        -13    1    3    3    0    0 -0.38411368779E+02 -0.19675504512E+02  0.16361195692E+02  0.46154724853E+02  0.10570000000E+00 0.  1.
         13    1    3    3    0    0  0.38411368779E+02  0.19675504512E+02 -0.15226248208E+02  0.45764708415E+02  0.10570000000E+00 0. -1.
<mgrwt>
<rscale>  0 0.91912426E+02</rscale>
<asrwt>0</asrwt>
<pdfrwt beam="2">  1        4 0.69834220E-02 0.91912426E+02</pdfrwt>
<pdfrwt beam="1">  1       -4 0.71580292E-02 0.91912426E+02</pdfrwt>
<totfact> 0.26385070E+04</totfact>
</mgrwt>
</event>
<event>
 5    1  0.1090823E+000  0.8874919E+02  0.7818608E-02  0.1305909E+00
         -4   -1    0    0    0  501 -0.00000000000E+00  0.00000000000E+00  0.10568097097E+03  0.10569051058E+03  0.14200000000E+01 0.  1.
          4   -1    0    0  501    0  0.00000000000E+00 -0.00000000000E+00 -0.18595087689E+02  0.18649227495E+02  0.14200000000E+01 0. -1.
         23    2    1    2    0    0  0.00000000000E+00  0.00000000000E+00  0.87085883286E+02  0.12433973807E+03  0.88749193778E+02 0.  0.
        -13    1    3    3    0    0 -0.41057015738E+02 -0.16368527885E+02  0.49056363079E+02  0.66031395392E+02  0.10570000000E+00 0.  1.
         13    1    3    3    0    0  0.41057015738E+02  0.16368527885E+02  0.38029520207E+02  0.58308342680E+02  0.10570000000E+00 0. -1.
<mgrwt>
<rscale>  0 0.88749194E+02</rscale>
<asrwt>0</asrwt>
<pdfrwt beam="2">  1        4 0.28656811E-02 0.88749194E+02</pdfrwt>
<pdfrwt beam="1">  1       -4 0.16263510E-01 0.88749194E+02</pdfrwt>
<totfact> 0.26913676E+04</totfact>
</mgrwt>
</event>
<event>
 5    1  0.1090823E+000  0.9029633E+02  0.7818608E-02  0.1302136E+00
         -4   -1    0    0    0  501 -0.00000000000E+00  0.00000000000E+00  0.13272235336E+02  0.13347982275E+02  0.14200000000E+01 0.  1.
          4   -1    0    0  501    0  0.00000000000E+00 -0.00000000000E+00 -0.15306445211E+03  0.15307103874E+03  0.14200000000E+01 0. -1.
         23    2    1    2    0    0  0.00000000000E+00  0.00000000000E+00 -0.13979221678E+03  0.16641902101E+03  0.90296327079E+02 0.  0.
        -13    1    3    3    0    0  0.33346832671E+02 -0.71019025669E+00 -0.13817339099E+02  0.36103263726E+02  0.10570000000E+00 0.  1.
         13    1    3    3    0    0 -0.33346832671E+02  0.71019025669E+00 -0.12597487768E+03  0.13031575729E+03  0.10570000000E+00 0. -1.
<mgrwt>
<rscale>  0 0.90296327E+02</rscale>
<asrwt>0</asrwt>
<pdfrwt beam="2">  1        4 0.23554709E-01 0.90296327E+02</pdfrwt>
<pdfrwt beam="1">  1       -4 0.20482158E-02 0.90296327E+02</pdfrwt>
<totfact> 0.23477881E+04</totfact>
</mgrwt>
</event>
<event>
 5    1  0.1090823E+000  0.8980143E+02  0.7818608E-02  0.1303333E+00
         -4   -1    0    0    0  501 -0.00000000000E+00  0.00000000000E+00  0.10040029170E+03  0.10041033300E+03  0.14200000000E+01 0.  1.
          4   -1    0    0  501    0  0.00000000000E+00 -0.00000000000E+00 -0.20044199199E+02  0.20094435088E+02  0.14200000000E+01 0. -1.
         23    2    1    2    0    0  0.00000000000E+00  0.00000000000E+00  0.80356092497E+02  0.12050476809E+03  0.89801433897E+02 0.  0.
        -13    1    3    3    0    0 -0.37686591584E+02  0.13107486965E+02  0.67808786724E+02  0.78677367325E+02  0.10570000000E+00 0.  1.
         13    1    3    3    0    0  0.37686591584E+02 -0.13107486965E+02  0.12547305773E+02  0.41827400761E+02  0.10570000000E+00 0. -1.
<mgrwt>
<rscale>  0 0.89801434E+02</rscale>
<asrwt>0</asrwt>
<pdfrwt beam="2">  1        4 0.30883596E-02 0.89801434E+02</pdfrwt>
<pdfrwt beam="1">  1       -4 0.15450836E-01 0.89801434E+02</pdfrwt>
<totfact> 0.26299403E+04</totfact>
</mgrwt>
</event>
<event>
 5    1  0.1090823E+000  0.9118127E+02  0.7818608E-02  0.1300016E+00
         -4   -1    0    0    0  501 -0.00000000000E+00  0.00000000000E+00  0.13755330911E+03  0.13756063843E+03  0.14200000000E+01 0.  1.
          4   -1    0    0  501    0  0.00000000000E+00 -0.00000000000E+00 -0.15069437664E+02  0.15136193428E+02  0.14200000000E+01 0. -1.
         23    2    1    2    0    0  0.00000000000E+00  0.00000000000E+00  0.12248387144E+03  0.15269683186E+03  0.91181268345E+02 0.  0.
        -13    1    3    3    0    0  0.44128920012E+02 -0.88335116653E+01  0.73445335149E+02  0.86137221556E+02  0.10570000000E+00 0.  1.
         13    1    3    3    0    0 -0.44128920012E+02  0.88335116653E+01  0.49038536295E+02  0.66559610307E+02  0.10570000000E+00 0. -1.
<mgrwt>
<rscale>  0 0.91181268E+02</rscale>
<asrwt>0</asrwt>
<pdfrwt beam="2">  1        4 0.23240739E-02 0.91181268E+02</pdfrwt>
<pdfrwt beam="1">  1       -4 0.21167746E-01 0.91181268E+02</pdfrwt>
<totfact> 0.23535412E+04</totfact>
</mgrwt>
</event>
<event>
 5    1  0.1090823E+000  0.9111101E+02  0.7818608E-02  0.1300183E+00
          4   -1    0    0  501    0  0.00000000000E+00  0.00000000000E+00  0.30152233481E+02  0.30185651955E+02  0.14200000000E+01 0. -1.
         -4   -1    0    0    0  501 -0.00000000000E+00 -0.00000000000E+00 -0.68748666356E+02  0.68763329804E+02  0.14200000000E+01 0.  1.
         23    2    1    2    0    0  0.00000000000E+00  0.00000000000E+00 -0.38596432874E+02  0.98948981758E+02  0.91111011192E+02 0.  0.
        -13    1    3    3    0    0  0.20784565052E+02  0.22131619974E+02  0.17586517813E+02  0.35087084922E+02  0.10570000000E+00 0. -1.
         13    1    3    3    0    0 -0.20784565052E+02 -0.22131619974E+02 -0.56182950687E+02  0.63861896836E+02  0.10570000000E+00 0.  1.
<mgrwt>
<rscale>  0 0.91111011E+02</rscale>
<asrwt>0</asrwt>
<pdfrwt beam="1">  1        4 0.46425038E-02 0.91111011E+02</pdfrwt>
<pdfrwt beam="2">  1       -4 0.10580416E-01 0.91111011E+02</pdfrwt>
<totfact> 0.26575518E+04</totfact>
</mgrwt>
</event>
<event>
 5    1  0.1090823E+000  0.8857707E+02  0.7818608E-02  0.1306335E+00
          4   -1    0    0  501    0  0.00000000000E+00  0.00000000000E+00  0.21016103046E+02  0.21064021155E+02  0.14200000000E+01 0. -1.
         -4   -1    0    0    0  501 -0.00000000000E+00 -0.00000000000E+00 -0.93172360767E+02  0.93183180944E+02  0.14200000000E+01 0.  1.
         23    2    1    2    0    0  0.00000000000E+00  0.00000000000E+00 -0.72156257721E+02  0.11424720210E+03  0.88577071860E+02 0.  0.
        -13    1    3    3    0    0 -0.28785123276E+02  0.66904676677E+01 -0.78624464673E+02  0.83995019479E+02  0.10570000000E+00 0.  1.
         13    1    3    3    0    0  0.28785123276E+02 -0.66904676677E+01  0.64682069526E+01  0.30252182620E+02  0.10570000000E+00 0. -1.
<mgrwt>
<rscale>  0 0.88577072E+02</rscale>
<asrwt>0</asrwt>
<pdfrwt beam="1">  1        4 0.32377650E-02 0.88577072E+02</pdfrwt>
<pdfrwt beam="2">  1       -4 0.14338727E-01 0.88577072E+02</pdfrwt>
<totfact> 0.27677999E+04</totfact>
</mgrwt>
</event>
<event>
 5    1  0.1090823E+000  0.9105758E+02  0.7818608E-02  0.1300311E+00
          4   -1    0    0  501    0  0.00000000000E+00  0.00000000000E+00  0.46039866871E+02  0.46061760078E+02  0.14200000000E+01 0.  1.
         -4   -1    0    0    0  501 -0.00000000000E+00 -0.00000000000E+00 -0.44979586726E+02  0.45001995757E+02  0.14200000000E+01 0. -1.
         23    2    1    2    0    0  0.00000000000E+00  0.00000000000E+00  0.10602801446E+01  0.91063755835E+02  0.91057583060E+02 0.  0.
        -13    1    3    3    0    0  0.36785480821E+02 -0.22340296289E+02  0.15383730815E+02  0.45704822325E+02  0.10570000000E+00 0. -1.
         13    1    3    3    0    0 -0.36785480821E+02  0.22340296289E+02 -0.14323450670E+02  0.45358933509E+02  0.10570000000E+00 0.  1.
<mgrwt>
<rscale>  0 0.91057583E+02</rscale>
<asrwt>0</asrwt>
<pdfrwt beam="1">  1        4 0.70864643E-02 0.91057583E+02</pdfrwt>
<pdfrwt beam="2">  1       -4 0.69233443E-02 0.91057583E+02</pdfrwt>
<totfact> 0.27119866E+04</totfact>
</mgrwt>
</event>
<event>
 5    1  0.1090823E+000  0.9781573E+02  0.7818608E-02  0.1284957E+00
         -4   -1    0    0    0  501 -0.00000000000E+00  0.00000000000E+00  0.15133954591E+02  0.15200427019E+02  0.14200000000E+01 0.  1.
          4   -1    0    0  501    0  0.00000000000E+00 -0.00000000000E+00 -0.15763779144E+03  0.15764418698E+03  0.14200000000E+01 0. -1.
         23    2    1    2    0    0  0.00000000000E+00  0.00000000000E+00 -0.14250383685E+03  0.17284461400E+03  0.97815730195E+02 0.  0.
        -13    1    3    3    0    0  0.40538829177E+02  0.93094155117E+01 -0.11671358755E+03  0.12390373110E+03  0.10570000000E+00 0. -1.
         13    1    3    3    0    0 -0.40538829177E+02 -0.93094155117E+01 -0.25790249294E+02  0.48940882903E+02  0.10570000000E+00 0.  1.
<mgrwt>
<rscale>  0 0.97815730E+02</rscale>
<asrwt>0</asrwt>
<pdfrwt beam="2">  1        4 0.24257572E-01 0.97815730E+02</pdfrwt>
<pdfrwt beam="1">  1       -4 0.23339060E-02 0.97815730E+02</pdfrwt>
<totfact> 0.18672458E+04</totfact>
</mgrwt>
</event>
<event>
 5    1  0.1090823E+000  0.8967918E+02  0.7818608E-02  0.1303630E+00
         -4   -1    0    0    0  501 -0.00000000000E+00  0.00000000000E+00  0.11871512334E+02  0.11956136713E+02  0.14200000000E+01 0.  1.
          4   -1    0    0  501    0  0.00000000000E+00 -0.00000000000E+00 -0.16867336284E+03  0.16867933997E+03  0.14200000000E+01 0. -1.
         23    2    1    2    0    0  0.00000000000E+00  0.00000000000E+00 -0.15680185051E+03  0.18063547668E+03  0.89679178820E+02 0.  0.
        -13    1    3    3    0    0 -0.30267370866E+02 -0.29561016239E+01 -0.12030987294E+02  0.32704863610E+02  0.10570000000E+00 0.  1.
         13    1    3    3    0    0  0.30267370866E+02  0.29561016239E+01 -0.14477086321E+03  0.14793061307E+03  0.10570000000E+00 0. -1.
<mgrwt>
<rscale>  0 0.89679179E+02</rscale>
<asrwt>0</asrwt>
<pdfrwt beam="2">  1        4 0.25956716E-01 0.89679179E+02</pdfrwt>
<pdfrwt beam="1">  1       -4 0.18333560E-02 0.89679179E+02</pdfrwt>
<totfact> 0.23229342E+04</totfact>
</mgrwt>
</event>
<event>
 5    1  0.1090823E+000  0.8957378E+02  0.7818608E-02  0.1303887E+00
          4   -1    0    0  501    0  0.00000000000E+00  0.00000000000E+00  0.15420449341E+03  0.15421103134E+03  0.14200000000E+01 0. -1.
         -4   -1    0    0    0  501 -0.00000000000E+00 -0.00000000000E+00 -0.12962238698E+02  0.13039786504E+02  0.14200000000E+01 0.  1.
         23    2    1    2    0    0  0.00000000000E+00  0.00000000000E+00  0.14124225471E+03  0.16725081784E+03  0.89573777157E+02 0.  0.
        -13    1    3    3    0    0 -0.28736372869E+02 -0.98459812421E+01  0.13207199287E+03  0.13552027503E+03  0.10570000000E+00 0. -1.
         13    1    3    3    0    0  0.28736372869E+02  0.98459812421E+01  0.91702618386E+01  0.31730542809E+02  0.10570000000E+00 0.  1.
<mgrwt>
<rscale>  0 0.89573777E+02</rscale>
<asrwt>0</asrwt>
<pdfrwt beam="1">  1        4 0.23730238E-01 0.89573777E+02</pdfrwt>
<pdfrwt beam="2">  1       -4 0.20006585E-02 0.89573777E+02</pdfrwt>
<totfact> 0.23946935E+04</totfact>
</mgrwt>
</event>
<event>
 5    1  0.1090823E+000  0.8932381E+02  0.7818608E-02  0.1304498E+00
         -4   -1    0    0    0  501 -0.00000000000E+00  0.00000000000E+00  0.49388131534E+01  0.51388982636E+01  0.14200000000E+01 0.  1.
          4   -1    0    0  501    0  0.00000000000E+00 -0.00000000000E+00 -0.39565945747E+03  0.39566200562E+03  0.14200000000E+01 0. -1.
         23    2    1    2    0    0  0.00000000000E+00  0.00000000000E+00 -0.39072064432E+03  0.40080090388E+03  0.89323807873E+02 0.  0.
        -13    1    3    3    0    0 -0.10379432381E+02 -0.41959743186E+02 -0.24579167992E+03  0.24956344635E+03  0.10570000000E+00 0.  1.
         13    1    3    3    0    0  0.10379432381E+02  0.41959743186E+02 -0.14492896440E+03  0.15123745753E+03  0.10570000000E+00 0. -1.
<mgrwt>
<rscale>  0 0.89323808E+02</rscale>
<asrwt>0</asrwt>
<pdfrwt beam="2">  1        4 0.60886248E-01 0.89323808E+02</pdfrwt>
<pdfrwt beam="1">  1       -4 0.77540489E-03 0.89323808E+02</pdfrwt>
<totfact> 0.15973511E+04</totfact>
</mgrwt>
</event>
<event>
 5    1  0.1090823E+000  0.9063467E+02  0.7818608E-02  0.1301322E+00
         -4   -1    0    0    0  501 -0.00000000000E+00  0.00000000000E+00  0.10543899600E+02  0.10639089189E+02  0.14200000000E+01 0.  1.
          4   -1    0    0  501    0  0.00000000000E+00 -0.00000000000E+00 -0.19379935931E+03  0.19380456153E+03  0.14200000000E+01 0. -1.
         23    2    1    2    0    0  0.00000000000E+00  0.00000000000E+00 -0.18325545971E+03  0.20444365072E+03  0.90634666684E+02 0.  0.
        -13    1    3    3    0    0  0.39769016257E+02 -0.14740800305E+02 -0.55622541309E+02  0.69948153098E+02  0.10570000000E+00 0.  1.
         13    1    3    3    0    0 -0.39769016257E+02  0.14740800305E+02 -0.12763291840E+03  0.13449549762E+03  0.10570000000E+00 0. -1.
<mgrwt>
<rscale>  0 0.90634667E+02</rscale>
<asrwt>0</asrwt>
<pdfrwt beam="2">  1        4 0.29823006E-01 0.90634667E+02</pdfrwt>
<pdfrwt beam="1">  1       -4 0.16298610E-02 0.90634667E+02</pdfrwt>
<totfact> 0.21542617E+04</totfact>
</mgrwt>
</event>
<event>
 5    1  0.1090823E+000  0.9103732E+02  0.7818608E-02  0.1300359E+00
          4   -1    0    0  501    0  0.00000000000E+00  0.00000000000E+00  0.24375549679E+03  0.24375963286E+03  0.14200000000E+01 0. -1.
         -4   -1    0    0    0  501 -0.00000000000E+00 -0.00000000000E+00 -0.84365663204E+01  0.85552353140E+01  0.14200000000E+01 0.  1.
         23    2    1    2    0    0  0.00000000000E+00  0.00000000000E+00  0.23531893047E+03  0.25231486818E+03  0.91037320191E+02 0.  0.
        -13    1    3    3    0    0 -0.23780201597E+02 -0.30602112518E+02  0.51492419599E+02  0.64447402797E+02  0.10570000000E+00 0.  1.
         13    1    3    3    0    0  0.23780201597E+02  0.30602112518E+02  0.18382651087E+03  0.18786746538E+03  0.10570000000E+00 0. -1.
<mgrwt>
<rscale>  0 0.91037320E+02</rscale>
<asrwt>0</asrwt>
<pdfrwt beam="1">  1        4 0.37510292E-01 0.91037320E+02</pdfrwt>
<pdfrwt beam="2">  1       -4 0.13073798E-02 0.91037320E+02</pdfrwt>
<totfact> 0.19461413E+04</totfact>
</mgrwt>
</event>
<event>
 5    1  0.1090823E+000  0.9135558E+02  0.7818608E-02  0.1299602E+00
          4   -1    0    0  501    0  0.00000000000E+00  0.00000000000E+00  0.33879953800E+03  0.33880251379E+03  0.14200000000E+01 0. -1.
         -4   -1    0    0    0  501 -0.00000000000E+00 -0.00000000000E+00 -0.60734932240E+01  0.62372846609E+01  0.14200000000E+01 0.  1.
         23    2    1    2    0    0  0.00000000000E+00  0.00000000000E+00  0.33272604478E+03  0.34503979845E+03  0.91355578053E+02 0.  0.
        -13    1    3    3    0    0 -0.19737542724E+02  0.40112210013E+02  0.20177107225E+03  0.20666430934E+03  0.10570000000E+00 0.  1.
         13    1    3    3    0    0  0.19737542724E+02 -0.40112210013E+02  0.13095497253E+03  0.13837548912E+03  0.10570000000E+00 0. -1.
<mgrwt>
<rscale>  0 0.91355578E+02</rscale>
<asrwt>0</asrwt>
<pdfrwt beam="1">  1        4 0.52135845E-01 0.91355578E+02</pdfrwt>
<pdfrwt beam="2">  1       -4 0.94721163E-03 0.91355578E+02</pdfrwt>
<totfact> 0.16443508E+04</totfact>
</mgrwt>
</event>
<event>
 5    1  0.1090823E+000  0.9293357E+02  0.7818608E-02  0.1295899E+00
         -4   -1    0    0    0  501 -0.00000000000E+00  0.00000000000E+00  0.34158987878E+02  0.34188490064E+02  0.14200000000E+01 0.  1.
          4   -1    0    0  501    0  0.00000000000E+00 -0.00000000000E+00 -0.63144419713E+02  0.63160384268E+02  0.14200000000E+01 0. -1.
         23    2    1    2    0    0  0.00000000000E+00  0.00000000000E+00 -0.28985431835E+02  0.97348874332E+02  0.92933568074E+02 0.  0.
        -13    1    3    3    0    0  0.11086799416E+02  0.21742425297E+02 -0.55912454905E+02  0.61007081270E+02  0.10570000000E+00 0. -1.
         13    1    3    3    0    0 -0.11086799416E+02 -0.21742425297E+02  0.26927023070E+02  0.36341793062E+02  0.10570000000E+00 0.  1.
<mgrwt>
<rscale>  0 0.92933568E+02</rscale>
<asrwt>0</asrwt>
<pdfrwt beam="2">  1        4 0.97180235E-02 0.92933568E+02</pdfrwt>
<pdfrwt beam="1">  1       -4 0.52587264E-02 0.92933568E+02</pdfrwt>
<totfact> 0.25276692E+04</totfact>
</mgrwt>
</event>
<event>
 5    1  0.1090823E+000  0.9076755E+02  0.7818608E-02  0.1301004E+00
         -4   -1    0    0    0  501 -0.00000000000E+00  0.00000000000E+00  0.26826556679E+02  0.26864112553E+02  0.14200000000E+01 0.  1.
          4   -1    0    0  501    0  0.00000000000E+00 -0.00000000000E+00 -0.76680072968E+02  0.76693219977E+02  0.14200000000E+01 0. -1.
         23    2    1    2    0    0  0.00000000000E+00  0.00000000000E+00 -0.49853516289E+02  0.10355733253E+03  0.90767549457E+02 0.  0.
        -13    1    3    3    0    0 -0.31197181147E+02  0.17358113057E+02 -0.56894712411E+02  0.67168353213E+02  0.10570000000E+00 0.  1.
         13    1    3    3    0    0  0.31197181147E+02 -0.17358113057E+02  0.70411961227E+01  0.36388979317E+02  0.10570000000E+00 0. -1.
<mgrwt>
<rscale>  0 0.90767549E+02</rscale>
<asrwt>0</asrwt>
<pdfrwt beam="2">  1        4 0.11800834E-01 0.90767549E+02</pdfrwt>
<pdfrwt beam="1">  1       -4 0.41310628E-02 0.90767549E+02</pdfrwt>
<totfact> 0.26561270E+04</totfact>
</mgrwt>
</event>
<event>
 5    1  0.1090823E+000  0.8960211E+02  0.7818608E-02  0.1303818E+00
         -4   -1    0    0    0  501 -0.00000000000E+00  0.00000000000E+00  0.40919105397E+02  0.40943736841E+02  0.14200000000E+01 0.  1.
          4   -1    0    0  501    0  0.00000000000E+00 -0.00000000000E+00 -0.49001599552E+02  0.49022170073E+02  0.14200000000E+01 0. -1.
         23    2    1    2    0    0  0.00000000000E+00  0.00000000000E+00 -0.80824941550E+01  0.89965906914E+02  0.89602107649E+02 0.  0.
        -13    1    3    3    0    0  0.38930139123E+02  0.15266011931E+02 -0.20184973367E+02  0.46433298125E+02  0.10570000000E+00 0. -1.
         13    1    3    3    0    0 -0.38930139123E+02 -0.15266011931E+02  0.12102479212E+02  0.43532608789E+02  0.10570000000E+00 0.  1.
<mgrwt>
<rscale>  0 0.89602108E+02</rscale>
<asrwt>0</asrwt>
<pdfrwt beam="2">  1        4 0.75421848E-02 0.89602108E+02</pdfrwt>
<pdfrwt beam="1">  1       -4 0.62987240E-02 0.89602108E+02</pdfrwt>
<totfact> 0.28403373E+04</totfact>
</mgrwt>
</event>
<event>
 5    1  0.1090823E+000  0.9078455E+02  0.7818608E-02  0.1300963E+00
          4   -1    0    0  501    0  0.00000000000E+00  0.00000000000E+00  0.24300139265E+02  0.24341593380E+02  0.14200000000E+01 0.  1.
         -4   -1    0    0    0  501 -0.00000000000E+00 -0.00000000000E+00 -0.84672380260E+02  0.84684286493E+02  0.14200000000E+01 0. -1.
         23    2    1    2    0    0  0.00000000000E+00  0.00000000000E+00 -0.60372240995E+02  0.10902587987E+03  0.90784552647E+02 0.  0.
        -13    1    3    3    0    0 -0.16253418602E+02  0.24602522733E+02 -0.71631075268E+02  0.77462764330E+02  0.10570000000E+00 0. -1.
         13    1    3    3    0    0  0.16253418602E+02 -0.24602522733E+02  0.11258834273E+02  0.31563115543E+02  0.10570000000E+00 0.  1.
<mgrwt>
<rscale>  0 0.90784553E+02</rscale>
<asrwt>0</asrwt>
<pdfrwt beam="1">  1        4 0.37425877E-02 0.90784553E+02</pdfrwt>
<pdfrwt beam="2">  1       -4 0.13030625E-01 0.90784553E+02</pdfrwt>
<totfact> 0.26214465E+04</totfact>
</mgrwt>
</event>
<event>
 5    1  0.1090823E+000  0.9115186E+02  0.7818608E-02  0.1300086E+00
         -4   -1    0    0    0  501 -0.00000000000E+00  0.00000000000E+00  0.20481829756E+02  0.20530994865E+02  0.14200000000E+01 0.  1.
          4   -1    0    0  501    0  0.00000000000E+00 -0.00000000000E+00 -0.10123930140E+03  0.10124925949E+03  0.14200000000E+01 0. -1.
         23    2    1    2    0    0  0.00000000000E+00  0.00000000000E+00 -0.80757471641E+02  0.12178025436E+03  0.91151857497E+02 0.  0.
        -13    1    3    3    0    0 -0.29897481013E+02 -0.21575127799E+02 -0.45842867997E+01  0.37153362815E+02  0.10570000000E+00 0.  1.
         13    1    3    3    0    0  0.29897481013E+02  0.21575127799E+02 -0.76173184841E+02  0.84626891541E+02  0.10570000000E+00 0. -1.
<mgrwt>
<rscale>  0 0.91151857E+02</rscale>
<asrwt>0</asrwt>
<pdfrwt beam="2">  1        4 0.15579825E-01 0.91151857E+02</pdfrwt>
<pdfrwt beam="1">  1       -4 0.31555987E-02 0.91151857E+02</pdfrwt>
<totfact> 0.25190842E+04</totfact>
</mgrwt>
</event>
<event>
 5    1  0.1090823E+000  0.8620230E+02  0.7818608E-02  0.1312318E+00
          4   -1    0    0  501    0  0.00000000000E+00  0.00000000000E+00  0.77868561458E+02  0.77881507841E+02  0.14200000000E+01 0. -1.
         -4   -1    0    0    0  501 -0.00000000000E+00 -0.00000000000E+00 -0.23820908614E+02  0.23863195243E+02  0.14200000000E+01 0.  1.
         23    2    1    2    0    0  0.00000000000E+00  0.00000000000E+00  0.54047652844E+02  0.10174470308E+03  0.86202295954E+02 0.  0.
        -13    1    3    3    0    0  0.39636114100E+02 -0.16911734530E+02  0.26058083910E+02  0.50359340894E+02  0.10570000000E+00 0. -1.
         13    1    3    3    0    0 -0.39636114100E+02  0.16911734530E+02  0.27989568934E+02  0.51385362190E+02  0.10570000000E+00 0.  1.
<mgrwt>
<rscale>  0 0.86202296E+02</rscale>
<asrwt>0</asrwt>
<pdfrwt beam="1">  1        4 0.11984027E-01 0.86202296E+02</pdfrwt>
<pdfrwt beam="2">  1       -4 0.36690039E-02 0.86202296E+02</pdfrwt>
<totfact> 0.30650260E+04</totfact>
</mgrwt>
</event>
<event>
 5    1  0.1090823E+000  0.9185198E+02  0.7818608E-02  0.1298428E+00
          4   -1    0    0  501    0  0.00000000000E+00  0.00000000000E+00  0.39772296848E+02  0.39797638078E+02  0.14200000000E+01 0. -1.
         -4   -1    0    0    0  501 -0.00000000000E+00 -0.00000000000E+00 -0.52980055239E+02  0.52999081626E+02  0.14200000000E+01 0.  1.
         23    2    1    2    0    0  0.00000000000E+00  0.00000000000E+00 -0.13207758391E+02  0.92796719704E+02  0.91851980415E+02 0.  0.
        -13    1    3    3    0    0  0.42772904997E+02 -0.53225442957E+01  0.94127150865E+01  0.44118717768E+02  0.10570000000E+00 0. -1.
         13    1    3    3    0    0 -0.42772904997E+02  0.53225442957E+01 -0.22620473478E+02  0.48678001936E+02  0.10570000000E+00 0.  1.
<mgrwt>
<rscale>  0 0.91851980E+02</rscale>
<asrwt>0</asrwt>
<pdfrwt beam="1">  1        4 0.61222278E-02 0.91851980E+02</pdfrwt>
<pdfrwt beam="2">  1       -4 0.81541906E-02 0.91851980E+02</pdfrwt>
<totfact> 0.26377815E+04</totfact>
</mgrwt>
</event>
<event>
 5    1  0.1090823E+000  0.9084272E+02  0.7818608E-02  0.1300824E+00
          4   -1    0    0  501    0  0.00000000000E+00  0.00000000000E+00  0.13485221580E+02  0.13559778798E+02  0.14200000000E+01 0. -1.
         -4   -1    0    0    0  501 -0.00000000000E+00 -0.00000000000E+00 -0.15249007557E+03  0.15249668701E+03  0.14200000000E+01 0.  1.
         23    2    1    2    0    0  0.00000000000E+00  0.00000000000E+00 -0.13900485399E+03  0.16605646581E+03  0.90842723441E+02 0.  0.
        -13    1    3    3    0    0  0.10068332743E+02 -0.44138326835E+02 -0.76225156678E+02  0.88655788887E+02  0.10570000000E+00 0.  1.
         13    1    3    3    0    0 -0.10068332743E+02  0.44138326835E+02 -0.62779697315E+02  0.77400676919E+02  0.10570000000E+00 0. -1.
<mgrwt>
<rscale>  0 0.90842723E+02</rscale>
<asrwt>0</asrwt>
<pdfrwt beam="1">  1        4 0.20808933E-02 0.90842723E+02</pdfrwt>
<pdfrwt beam="2">  1       -4 0.23466254E-01 0.90842723E+02</pdfrwt>
<totfact> 0.23118863E+04</totfact>
</mgrwt>
</event>
<event>
 5    1  0.1090823E+000  0.9231688E+02  0.7818608E-02  0.1297336E+00
         -4   -1    0    0    0  501 -0.00000000000E+00  0.00000000000E+00  0.10271238725E+03  0.10272220254E+03  0.14200000000E+01 0.  1.
          4   -1    0    0  501    0  0.00000000000E+00 -0.00000000000E+00 -0.20708254159E+02  0.20756882963E+02  0.14200000000E+01 0. -1.
         23    2    1    2    0    0  0.00000000000E+00  0.00000000000E+00  0.82004133091E+02  0.12347908550E+03  0.92316882056E+02 0.  0.
        -13    1    3    3    0    0 -0.21458306401E+02 -0.66671436505E+01 -0.12927870458E+02  0.25923941157E+02  0.10570000000E+00 0. -1.
         13    1    3    3    0    0  0.21458306401E+02  0.66671436505E+01  0.94932003549E+02  0.97555144346E+02  0.10570000000E+00 0.  1.
<mgrwt>
<rscale>  0 0.92316882E+02</rscale>
<asrwt>0</asrwt>
<pdfrwt beam="2">  1        4 0.31903810E-02 0.92316882E+02</pdfrwt>
<pdfrwt beam="1">  1       -4 0.15806401E-01 0.92316882E+02</pdfrwt>
<totfact> 0.24247176E+04</totfact>
</mgrwt>
</event>
<event>
 5    1  0.1090823E+000  0.8936095E+02  0.7818608E-02  0.1304407E+00
         -4   -1    0    0    0  501 -0.00000000000E+00  0.00000000000E+00  0.29026470536E+02  0.29061183593E+02  0.14200000000E+01 0.  1.
          4   -1    0    0  501    0  0.00000000000E+00 -0.00000000000E+00 -0.68693541073E+02  0.68708216286E+02  0.14200000000E+01 0. -1.
         23    2    1    2    0    0  0.00000000000E+00  0.00000000000E+00 -0.39667070537E+02  0.97769399878E+02  0.89360948224E+02 0.  0.
        -13    1    3    3    0    0  0.24920801659E+02 -0.20305646759E+02 -0.53785201837E+02  0.62659594275E+02  0.10570000000E+00 0. -1.
         13    1    3    3    0    0 -0.24920801659E+02  0.20305646759E+02  0.14118131300E+02  0.35109805603E+02  0.10570000000E+00 0.  1.
<mgrwt>
<rscale>  0 0.89360948E+02</rscale>
<asrwt>0</asrwt>
<pdfrwt beam="2">  1        4 0.10572036E-01 0.89360948E+02</pdfrwt>
<pdfrwt beam="1">  1       -4 0.44694100E-02 0.89360948E+02</pdfrwt>
<totfact> 0.28083321E+04</totfact>
</mgrwt>
</event>
<event>
 5    1  0.1090823E+000  0.9047796E+02  0.7818608E-02  0.1301698E+00
          4   -1    0    0  501    0  0.00000000000E+00  0.00000000000E+00  0.16346697136E+02  0.16408257289E+02  0.14200000000E+01 0. -1.
         -4   -1    0    0    0  501 -0.00000000000E+00 -0.00000000000E+00 -0.12489658635E+03  0.12490465837E+03  0.14200000000E+01 0.  1.
         23    2    1    2    0    0  0.00000000000E+00  0.00000000000E+00 -0.10854988921E+03  0.14131291566E+03  0.90477962416E+02 0.  0.
        -13    1    3    3    0    0 -0.18792879628E+02 -0.10528203776E+02 -0.11640707364E+03  0.11838341677E+03  0.10570000000E+00 0.  1.
         13    1    3    3    0    0  0.18792879628E+02  0.10528203776E+02  0.78571844310E+01  0.22929498885E+02  0.10570000000E+00 0. -1.
<mgrwt>
<rscale>  0 0.90477962E+02</rscale>
<asrwt>0</asrwt>
<pdfrwt beam="1">  1        4 0.25202329E-02 0.90477962E+02</pdfrwt>
<pdfrwt beam="2">  1       -4 0.19220215E-01 0.90477962E+02</pdfrwt>
<totfact> 0.24620990E+04</totfact>
</mgrwt>
</event>
<event>
 5    1  0.1090823E+000  0.9025317E+02  0.7818608E-02  0.1302240E+00
         -4   -1    0    0    0  501 -0.00000000000E+00  0.00000000000E+00  0.95821548276E+02  0.95832069340E+02  0.14200000000E+01 0.  1.
          4   -1    0    0  501    0  0.00000000000E+00 -0.00000000000E+00 -0.21216671973E+02  0.21264138111E+02  0.14200000000E+01 0. -1.
         23    2    1    2    0    0  0.00000000000E+00  0.00000000000E+00  0.74604876303E+02  0.11709620745E+03  0.90253167431E+02 0.  0.
        -13    1    3    3    0    0 -0.13498293039E+02  0.20258069733E+02  0.86601029431E+02  0.89957449804E+02  0.10570000000E+00 0.  1.
         13    1    3    3    0    0  0.13498293039E+02 -0.20258069733E+02 -0.11996153128E+02  0.27138757647E+02  0.10570000000E+00 0. -1.
<mgrwt>
<rscale>  0 0.90253167E+02</rscale>
<asrwt>0</asrwt>
<pdfrwt beam="2">  1        4 0.32685640E-02 0.90253167E+02</pdfrwt>
<pdfrwt beam="1">  1       -4 0.14746237E-01 0.90253167E+02</pdfrwt>
<totfact> 0.26146663E+04</totfact>
</mgrwt>
</event>
<event>
 5    1  0.1090823E+000  0.9639842E+02  0.7818608E-02  0.1288057E+00
         -4   -1    0    0    0  501 -0.00000000000E+00  0.00000000000E+00  0.21789303515E+03  0.21789766214E+03  0.14200000000E+01 0. -1.
          4   -1    0    0  501    0  0.00000000000E+00 -0.00000000000E+00 -0.10609903403E+02  0.10704506071E+02  0.14200000000E+01 0.  1.
         23    2    1    2    0    0  0.00000000000E+00  0.00000000000E+00  0.20728313175E+03  0.22860216821E+03  0.96398415985E+02 0.  0.
        -13    1    3    3    0    0 -0.64093392382E+01  0.32765036350E+02  0.18608162802E+03  0.18905293093E+03  0.10570000000E+00 0. -1.
         13    1    3    3    0    0  0.64093392382E+01 -0.32765036350E+02  0.21201503731E+02  0.39549237280E+02  0.10570000000E+00 0.  1.
<mgrwt>
<rscale>  0 0.96398416E+02</rscale>
<asrwt>0</asrwt>
<pdfrwt beam="2">  1        4 0.16399259E-02 0.96398416E+02</pdfrwt>
<pdfrwt beam="1">  1       -4 0.33529639E-01 0.96398416E+02</pdfrwt>
<totfact> 0.17436001E+04</totfact>
</mgrwt>
</event>
<event>
 5    1  0.1090823E+000  0.9010727E+02  0.7818608E-02  0.1302592E+00
          4   -1    0    0  501    0  0.00000000000E+00  0.00000000000E+00  0.46726855850E+02  0.46748427328E+02  0.14200000000E+01 0.  1.
         -4   -1    0    0    0  501 -0.00000000000E+00 -0.00000000000E+00 -0.43397122681E+02  0.43420348420E+02  0.14200000000E+01 0. -1.
         23    2    1    2    0    0  0.00000000000E+00  0.00000000000E+00  0.33297331697E+01  0.90168775748E+02  0.90107274939E+02 0.  0.
        -13    1    3    3    0    0  0.29755190465E+02  0.53417931636E+01  0.35092950111E+02  0.46318812958E+02  0.10570000000E+00 0.  1.
         13    1    3    3    0    0 -0.29755190465E+02 -0.53417931636E+01 -0.31763216942E+02  0.43849962791E+02  0.10570000000E+00 0. -1.
<mgrwt>
<rscale>  0 0.90107275E+02</rscale>
<asrwt>0</asrwt>
<pdfrwt beam="1">  1        4 0.71921930E-02 0.90107275E+02</pdfrwt>
<pdfrwt beam="2">  1       -4 0.66799264E-02 0.90107275E+02</pdfrwt>
<totfact> 0.27961006E+04</totfact>
</mgrwt>
</event>
<event>
 4    1  0.1090823E+000  0.5084911E+02  0.7818608E-02  0.1440815E+00
          4   -1    0    0  501    0  0.00000000000E+00  0.00000000000E+00  0.87821850738E+02  0.87833330047E+02  0.14200000000E+01 0.  1.
         -4   -1    0    0    0  501 -0.00000000000E+00 -0.00000000000E+00 -0.72798834323E+01  0.74170818243E+01  0.14200000000E+01 0. -1.
        -13    1    1    2    0    0 -0.55500777245E+01 -0.22099719407E+02  0.19144843135E+02  0.29761336526E+02  0.10570000000E+00 0. -1.
         13    1    1    2    0    0  0.55500777245E+01  0.22099719407E+02  0.61397124171E+02  0.65489075345E+02  0.10570000000E+00 0.  1.
<mgrwt>
<rscale>  0 0.50849115E+02</rscale>
<asrwt>0</asrwt>
<pdfrwt beam="1">  1        4 0.13522490E-01 0.50849115E+02</pdfrwt>
<pdfrwt beam="2">  1       -4 0.11314189E-02 0.50849115E+02</pdfrwt>
<totfact> 0.12163882E+05</totfact>
</mgrwt>
</event>
<event>
 5    1  0.1090823E+000  0.9137023E+02  0.7818608E-02  0.1299567E+00
         -4   -1    0    0    0  501 -0.00000000000E+00  0.00000000000E+00  0.20510496048E+02  0.20559592606E+02  0.14200000000E+01 0.  1.
          4   -1    0    0  501    0  0.00000000000E+00 -0.00000000000E+00 -0.10158338999E+03  0.10159331436E+03  0.14200000000E+01 0. -1.
         23    2    1    2    0    0  0.00000000000E+00  0.00000000000E+00 -0.81072893945E+02  0.12215290697E+03  0.91370227906E+02 0.  0.
        -13    1    3    3    0    0  0.44399564353E+00  0.43528700983E+02 -0.22003440626E+02  0.48776095715E+02  0.10570000000E+00 0.  1.
         13    1    3    3    0    0 -0.44399564353E+00 -0.43528700983E+02 -0.59069453320E+02  0.73376811251E+02  0.10570000000E+00 0. -1.
<mgrwt>
<rscale>  0 0.91370228E+02</rscale>
<asrwt>0</asrwt>
<pdfrwt beam="2">  1        4 0.15632754E-01 0.91370228E+02</pdfrwt>
<pdfrwt beam="1">  1       -4 0.31600011E-02 0.91370228E+02</pdfrwt>
<totfact> 0.25007393E+04</totfact>
</mgrwt>
</event>
<event>
 5    1  0.1090823E+000  0.9096738E+02  0.7818608E-02  0.1300526E+00
         -4   -1    0    0    0  501 -0.00000000000E+00  0.00000000000E+00  0.97318250993E+01  0.98348777198E+01  0.14200000000E+01 0.  1.
          4   -1    0    0  501    0  0.00000000000E+00 -0.00000000000E+00 -0.21135234293E+03  0.21135711311E+03  0.14200000000E+01 0. -1.
         23    2    1    2    0    0  0.00000000000E+00  0.00000000000E+00 -0.20162051783E+03  0.22119199083E+03  0.90967376551E+02 0.  0.
        -13    1    3    3    0    0 -0.39502016829E+02  0.59761365245E+01 -0.15367242008E+03  0.15878081561E+03  0.10570000000E+00 0. -1.
         13    1    3    3    0    0  0.39502016829E+02 -0.59761365245E+01 -0.47948097752E+02  0.62411175216E+02  0.10570000000E+00 0.  1.
<mgrwt>
<rscale>  0 0.90967377E+02</rscale>
<asrwt>0</asrwt>
<pdfrwt beam="2">  1        4 0.32524036E-01 0.90967377E+02</pdfrwt>
<pdfrwt beam="1">  1       -4 0.15054981E-02 0.90967377E+02</pdfrwt>
<totfact> 0.20659078E+04</totfact>
</mgrwt>
</event>
<event>
 5    1  0.1090823E+000  0.8851658E+02  0.7818608E-02  0.1306484E+00
         -4   -1    0    0    0  501 -0.00000000000E+00  0.00000000000E+00  0.22712238108E+02  0.22756584979E+02  0.14200000000E+01 0.  1.
          4   -1    0    0  501    0  0.00000000000E+00 -0.00000000000E+00 -0.86109761300E+02  0.86121468817E+02  0.14200000000E+01 0. -1.
         23    2    1    2    0    0  0.00000000000E+00  0.00000000000E+00 -0.63397523192E+02  0.10887805380E+03  0.88516578399E+02 0.  0.
        -13    1    3    3    0    0 -0.30214224867E+02  0.15255366075E+02  0.33767147583E+01  0.34015275296E+02  0.10570000000E+00 0.  1.
         13    1    3    3    0    0  0.30214224867E+02 -0.15255366075E+02 -0.66774237950E+02  0.74862778500E+02  0.10570000000E+00 0. -1.
<mgrwt>
<rscale>  0 0.88516578E+02</rscale>
<asrwt>0</asrwt>
<pdfrwt beam="2">  1        4 0.13251967E-01 0.88516578E+02</pdfrwt>
<pdfrwt beam="1">  1       -4 0.34985024E-02 0.88516578E+02</pdfrwt>
<totfact> 0.28073116E+04</totfact>
</mgrwt>
</event>
<event>
 5    1  0.1090823E+000  0.9090159E+02  0.7818608E-02  0.1300683E+00
         -4   -1    0    0    0  501 -0.00000000000E+00  0.00000000000E+00  0.34667425758E+03  0.34667716577E+03  0.14200000000E+01 0.  1.
          4   -1    0    0  501    0  0.00000000000E+00 -0.00000000000E+00 -0.58712632383E+01  0.60405407053E+01  0.14200000000E+01 0. -1.
         23    2    1    2    0    0  0.00000000000E+00  0.00000000000E+00  0.34080299434E+03  0.35271770647E+03  0.90901592457E+02 0.  0.
        -13    1    3    3    0    0 -0.21741532783E+02 -0.35094079202E+02  0.96628922415E+02  0.10507829682E+03  0.10570000000E+00 0. -1.
         13    1    3    3    0    0  0.21741532783E+02  0.35094079202E+02  0.24417407192E+03  0.24763940965E+03  0.10570000000E+00 0.  1.
<mgrwt>
<rscale>  0 0.90901592E+02</rscale>
<asrwt>0</asrwt>
<pdfrwt beam="2">  1        4 0.91651582E-03 0.90901592E+02</pdfrwt>
<pdfrwt beam="1">  1       -4 0.53347775E-01 0.90901592E+02</pdfrwt>
<totfact> 0.16455888E+04</totfact>
</mgrwt>
</event>
<event>
 5    1  0.1090823E+000  0.9225089E+02  0.7818608E-02  0.1297491E+00
         -4   -1    0    0    0  501 -0.00000000000E+00  0.00000000000E+00  0.11738855458E+02  0.11824429266E+02  0.14200000000E+01 0.  1.
          4   -1    0    0  501    0  0.00000000000E+00 -0.00000000000E+00 -0.18049399112E+03  0.18049957681E+03  0.14200000000E+01 0. -1.
         23    2    1    2    0    0  0.00000000000E+00  0.00000000000E+00 -0.16875513566E+03  0.19232400608E+03  0.92250894318E+02 0.  0.
        -13    1    3    3    0    0 -0.44728863222E+02  0.57214307224E+01 -0.64149733760E+02  0.78413044123E+02  0.10570000000E+00 0.  1.
         13    1    3    3    0    0  0.44728863222E+02 -0.57214307224E+01 -0.10460540190E+03  0.11391096196E+03  0.10570000000E+00 0. -1.
<mgrwt>
<rscale>  0 0.92250894E+02</rscale>
<asrwt>0</asrwt>
<pdfrwt beam="2">  1        4 0.27775317E-01 0.92250894E+02</pdfrwt>
<pdfrwt beam="1">  1       -4 0.18129902E-02 0.92250894E+02</pdfrwt>
<totfact> 0.21038916E+04</totfact>
</mgrwt>
</event>
<event>
 5    1  0.1090823E+000  0.8828310E+02  0.7818608E-02  0.1307063E+00
          4   -1    0    0  501    0  0.00000000000E+00  0.00000000000E+00  0.30469293473E+02  0.30502364576E+02  0.14200000000E+01 0.  1.
         -4   -1    0    0    0  501 -0.00000000000E+00 -0.00000000000E+00 -0.63873199728E+02  0.63888982176E+02  0.14200000000E+01 0. -1.
         23    2    1    2    0    0  0.00000000000E+00  0.00000000000E+00 -0.33403906255E+02  0.94391346752E+02  0.88283097978E+02 0.  0.
        -13    1    3    3    0    0  0.15552031293E+01  0.40242836457E+02  0.26193552250E+01  0.40358106214E+02  0.10570000000E+00 0.  1.
         13    1    3    3    0    0 -0.15552031293E+01 -0.40242836457E+02 -0.36023261480E+02  0.54033240538E+02  0.10570000000E+00 0. -1.
<mgrwt>
<rscale>  0 0.88283098E+02</rscale>
<asrwt>0</asrwt>
<pdfrwt beam="1">  1        4 0.46913416E-02 0.88283098E+02</pdfrwt>
<pdfrwt beam="2">  1       -4 0.98304041E-02 0.88283098E+02</pdfrwt>
<totfact> 0.29251452E+04</totfact>
</mgrwt>
</event>
<event>
 5    1  0.1090823E+000  0.9783455E+02  0.7818608E-02  0.1284917E+00
         -4   -1    0    0    0  501 -0.00000000000E+00  0.00000000000E+00  0.93429535429E+02  0.93440325826E+02  0.14200000000E+01 0.  1.
          4   -1    0    0  501    0  0.00000000000E+00 -0.00000000000E+00 -0.25579853181E+02  0.25619236693E+02  0.14200000000E+01 0. -1.
         23    2    1    2    0    0  0.00000000000E+00  0.00000000000E+00  0.67849682248E+02  0.11905956252E+03  0.97834554459E+02 0.  0.
        -13    1    3    3    0    0  0.84283167846E+01 -0.16330548014E+02  0.89093879372E+02  0.90969521469E+02  0.10570000000E+00 0.  1.
         13    1    3    3    0    0 -0.84283167846E+01  0.16330548014E+02 -0.21244197124E+02  0.28090041050E+02  0.10570000000E+00 0. -1.
<mgrwt>
<rscale>  0 0.97834554E+02</rscale>
<asrwt>0</asrwt>
<pdfrwt beam="2">  1        4 0.39392215E-02 0.97834554E+02</pdfrwt>
<pdfrwt beam="1">  1       -4 0.14377634E-01 0.97834554E+02</pdfrwt>
<totfact> 0.20909438E+04</totfact>
</mgrwt>
</event>
<event>
 5    1  0.1090823E+000  0.8883866E+02  0.7818608E-02  0.1305689E+00
          4   -1    0    0  501    0  0.00000000000E+00  0.00000000000E+00  0.25687153972E+02  0.25726373223E+02  0.14200000000E+01 0. -1.
         -4   -1    0    0    0  501 -0.00000000000E+00 -0.00000000000E+00 -0.76707424448E+02  0.76720566770E+02  0.14200000000E+01 0.  1.
         23    2    1    2    0    0  0.00000000000E+00  0.00000000000E+00 -0.51020270476E+02  0.10244693999E+03  0.88838660022E+02 0.  0.
        -13    1    3    3    0    0 -0.43744900333E+02  0.59785921535E+01 -0.31124810421E+02  0.54019671098E+02  0.10570000000E+00 0.  1.
         13    1    3    3    0    0  0.43744900333E+02 -0.59785921535E+01 -0.19895460055E+02  0.48427268895E+02  0.10570000000E+00 0. -1.
<mgrwt>
<rscale>  0 0.88838660E+02</rscale>
<asrwt>0</asrwt>
<pdfrwt beam="1">  1        4 0.39558977E-02 0.88838660E+02</pdfrwt>
<pdfrwt beam="2">  1       -4 0.11805170E-01 0.88838660E+02</pdfrwt>
<totfact> 0.28218628E+04</totfact>
</mgrwt>
</event>
<event>
 5    1  0.1090823E+000  0.9238884E+02  0.7818608E-02  0.1297168E+00
          4   -1    0    0  501    0  0.00000000000E+00  0.00000000000E+00  0.13430655973E+02  0.13505514425E+02  0.14200000000E+01 0. -1.
         -4   -1    0    0    0  501 -0.00000000000E+00 -0.00000000000E+00 -0.15836500518E+03  0.15837137136E+03  0.14200000000E+01 0.  1.
         23    2    1    2    0    0  0.00000000000E+00  0.00000000000E+00 -0.14493434921E+03  0.17187688579E+03  0.92388842868E+02 0.  0.
        -13    1    3    3    0    0  0.27395115071E+02  0.19100976555E+02 -0.13093464021E+02  0.35871849794E+02  0.10570000000E+00 0. -1.
         13    1    3    3    0    0 -0.27395115071E+02 -0.19100976555E+02 -0.13184088519E+03  0.13600503599E+03  0.10570000000E+00 0.  1.
<mgrwt>
<rscale>  0 0.92388843E+02</rscale>
<asrwt>0</asrwt>
<pdfrwt beam="1">  1        4 0.20725029E-02 0.92388843E+02</pdfrwt>
<pdfrwt beam="2">  1       -4 0.24370094E-01 0.92388843E+02</pdfrwt>
<totfact> 0.21830716E+04</totfact>
</mgrwt>
</event>
<event>
 5    1  0.1090823E+000  0.1262635E+03  0.7818608E-02  0.1233108E+00
          4   -1    0    0  501    0  0.00000000000E+00  0.00000000000E+00  0.40482465780E+02  0.40507362734E+02  0.14200000000E+01 0.  1.
         -4   -1    0    0    0  501 -0.00000000000E+00 -0.00000000000E+00 -0.98392645596E+02  0.98402891763E+02  0.14200000000E+01 0. -1.
         23    2    1    2    0    0  0.00000000000E+00  0.00000000000E+00 -0.57910179816E+02  0.13891025450E+03  0.12626349385E+03 0.  0.
        -13    1    3    3    0    0  0.31735337475E+02 -0.53107402974E+02 -0.42787338089E+02  0.75221641624E+02  0.10570000000E+00 0. -1.
         13    1    3    3    0    0 -0.31735337475E+02  0.53107402974E+02 -0.15122841727E+02  0.63688612873E+02  0.10570000000E+00 0.  1.
<mgrwt>
<rscale>  0 0.12626349E+03</rscale>
<asrwt>0</asrwt>
<pdfrwt beam="1">  1        4 0.62307750E-02 0.12626349E+03</pdfrwt>
<pdfrwt beam="2">  1       -4 0.15140033E-01 0.12626349E+03</pdfrwt>
<totfact> 0.98723492E+03</totfact>
</mgrwt>
</event>
<event>
 5    1  0.1090823E+000  0.9481043E+02  0.7818608E-02  0.1291604E+00
          4   -1    0    0  501    0  0.00000000000E+00  0.00000000000E+00  0.62596957585E+02  0.62613061727E+02  0.14200000000E+01 0. -1.
         -4   -1    0    0    0  501 -0.00000000000E+00 -0.00000000000E+00 -0.35865601936E+02  0.35893701428E+02  0.14200000000E+01 0.  1.
         23    2    1    2    0    0  0.00000000000E+00  0.00000000000E+00  0.26731355649E+02  0.98506763155E+02  0.94810426708E+02 0.  0.
        -13    1    3    3    0    0  0.43061331918E+02  0.13907438812E+01 -0.71797563240E+01  0.43678055685E+02  0.10570000000E+00 0.  1.
         13    1    3    3    0    0 -0.43061331918E+02 -0.13907438812E+01  0.33911111973E+02  0.54828707470E+02  0.10570000000E+00 0. -1.
<mgrwt>
<rscale>  0 0.94810427E+02</rscale>
<asrwt>0</asrwt>
<pdfrwt beam="1">  1        4 0.96337013E-02 0.94810427E+02</pdfrwt>
<pdfrwt beam="2">  1       -4 0.55211853E-02 0.94810427E+02</pdfrwt>
<totfact> 0.23870966E+04</totfact>
</mgrwt>
</event>
<event>
 5    1  0.1090823E+000  0.9191660E+02  0.7818608E-02  0.1298276E+00
         -4   -1    0    0    0  501 -0.00000000000E+00  0.00000000000E+00  0.25637852822E+02  0.25677147375E+02  0.14200000000E+01 0.  1.
          4   -1    0    0  501    0  0.00000000000E+00 -0.00000000000E+00 -0.82276133189E+02  0.82288386134E+02  0.14200000000E+01 0. -1.
         23    2    1    2    0    0  0.00000000000E+00  0.00000000000E+00 -0.56638280367E+02  0.10796553351E+03  0.91916601455E+02 0.  0.
        -13    1    3    3    0    0  0.40696008108E+02  0.95887616475E+01 -0.59077602931E+01  0.42225847890E+02  0.10570000000E+00 0.  1.
         13    1    3    3    0    0 -0.40696008108E+02 -0.95887616475E+01 -0.50730520074E+02  0.65739685619E+02  0.10570000000E+00 0. -1.
<mgrwt>
<rscale>  0 0.91916601E+02</rscale>
<asrwt>0</asrwt>
<pdfrwt beam="2">  1        4 0.12661832E-01 0.91916601E+02</pdfrwt>
<pdfrwt beam="1">  1       -4 0.39482503E-02 0.91916601E+02</pdfrwt>
<totfact> 0.25410622E+04</totfact>
</mgrwt>
</event>
<event>
 5    1  0.1090823E+000  0.9062681E+02  0.7818608E-02  0.1301341E+00
         -4   -1    0    0    0  501 -0.00000000000E+00  0.00000000000E+00  0.59614222678E+02  0.59631132352E+02  0.14200000000E+01 0. -1.
          4   -1    0    0  501    0  0.00000000000E+00 -0.00000000000E+00 -0.34406758225E+02  0.34436048141E+02  0.14200000000E+01 0.  1.
         23    2    1    2    0    0  0.00000000000E+00  0.00000000000E+00  0.25207464453E+02  0.94067180492E+02  0.90626807191E+02 0.  0.
        -13    1    3    3    0    0 -0.35786452596E+02  0.24775923552E+02  0.25682744988E+02  0.50538412518E+02  0.10570000000E+00 0.  1.
         13    1    3    3    0    0  0.35786452596E+02 -0.24775923552E+02 -0.47528053444E+00  0.43528767974E+02  0.10570000000E+00 0. -1.
<mgrwt>
<rscale>  0 0.90626807E+02</rscale>
<asrwt>0</asrwt>
<pdfrwt beam="2">  1        4 0.52969013E-02 0.90626807E+02</pdfrwt>
<pdfrwt beam="1">  1       -4 0.91749726E-02 0.90626807E+02</pdfrwt>
<totfact> 0.27274612E+04</totfact>
</mgrwt>
</event>
<event>
 5    1  0.1090823E+000  0.9259730E+02  0.7818608E-02  0.1296681E+00
          4   -1    0    0  501    0  0.00000000000E+00  0.00000000000E+00  0.51563713287E+02  0.51583262091E+02  0.14200000000E+01 0.  1.
         -4   -1    0    0    0  501 -0.00000000000E+00 -0.00000000000E+00 -0.41531624513E+02  0.41555892899E+02  0.14200000000E+01 0. -1.
         23    2    1    2    0    0  0.00000000000E+00  0.00000000000E+00  0.10032088774E+02  0.93139154990E+02  0.92597296867E+02 0.  0.
        -13    1    3    3    0    0  0.23098050500E+02  0.15491514243E+02 -0.32214696090E+02  0.42559426301E+02  0.10570000000E+00 0. -1.
         13    1    3    3    0    0 -0.23098050500E+02 -0.15491514243E+02  0.42246784864E+02  0.50579728689E+02  0.10570000000E+00 0.  1.
<mgrwt>
<rscale>  0 0.92597297E+02</rscale>
<asrwt>0</asrwt>
<pdfrwt beam="1">  1        4 0.79362495E-02 0.92597297E+02</pdfrwt>
<pdfrwt beam="2">  1       -4 0.63928513E-02 0.92597297E+02</pdfrwt>
<totfact> 0.25782485E+04</totfact>
</mgrwt>
</event>
<event>
 5    1  0.1090823E+000  0.9232243E+02  0.7818608E-02  0.1297323E+00
         -4   -1    0    0    0  501 -0.00000000000E+00  0.00000000000E+00  0.91264812111E+01  0.92362903428E+01  0.14200000000E+01 0.  1.
          4   -1    0    0  501    0  0.00000000000E+00 -0.00000000000E+00 -0.23197254182E+03  0.23197688799E+03  0.14200000000E+01 0. -1.
         23    2    1    2    0    0  0.00000000000E+00  0.00000000000E+00 -0.22284606061E+03  0.24121317833E+03  0.92322427770E+02 0.  0.
        -13    1    3    3    0    0 -0.15714029937E+02 -0.33736995540E+02 -0.40074524711E+02  0.54690897856E+02  0.10570000000E+00 0.  1.
         13    1    3    3    0    0  0.15714029937E+02  0.33736995540E+02 -0.18277153590E+03  0.18652228047E+03  0.10570000000E+00 0. -1.
<mgrwt>
<rscale>  0 0.92322428E+02</rscale>
<asrwt>0</asrwt>
<pdfrwt beam="2">  1        4 0.35696860E-01 0.92322428E+02</pdfrwt>
<pdfrwt beam="1">  1       -4 0.14128554E-02 0.92322428E+02</pdfrwt>
<totfact> 0.19129569E+04</totfact>
</mgrwt>
</event>
<event>
 5    1  0.1090823E+000  0.9168611E+02  0.7818608E-02  0.1298819E+00
         -4   -1    0    0    0  501 -0.00000000000E+00  0.00000000000E+00  0.29980527658E+02  0.30014137313E+02  0.14200000000E+01 0.  1.
          4   -1    0    0  501    0  0.00000000000E+00 -0.00000000000E+00 -0.70018267387E+02  0.70032665007E+02  0.14200000000E+01 0. -1.
         23    2    1    2    0    0  0.00000000000E+00  0.00000000000E+00 -0.40037739729E+02  0.10004680232E+03  0.91686106100E+02 0.  0.
        -13    1    3    3    0    0  0.43693544351E+02  0.56784150144E+01 -0.33830232597E+02  0.55550571780E+02  0.10570000000E+00 0.  1.
         13    1    3    3    0    0 -0.43693544351E+02 -0.56784150144E+01 -0.62075071326E+01  0.44496230540E+02  0.10570000000E+00 0. -1.
<mgrwt>
<rscale>  0 0.91686106E+02</rscale>
<asrwt>0</asrwt>
<pdfrwt beam="2">  1        4 0.10775734E-01 0.91686106E+02</pdfrwt>
<pdfrwt beam="1">  1       -4 0.46160817E-02 0.91686106E+02</pdfrwt>
<totfact> 0.26057977E+04</totfact>
</mgrwt>
</event>
<event>
 5    1  0.1090823E+000  0.9690923E+02  0.7818608E-02  0.1286933E+00
         -4   -1    0    0    0  501 -0.00000000000E+00  0.00000000000E+00  0.85944851250E+02  0.85956581228E+02  0.14200000000E+01 0.  1.
          4   -1    0    0  501    0  0.00000000000E+00 -0.00000000000E+00 -0.27286039619E+02  0.27322963933E+02  0.14200000000E+01 0. -1.
         23    2    1    2    0    0  0.00000000000E+00  0.00000000000E+00  0.58658811631E+02  0.11327954516E+03  0.96909231603E+02 0.  0.
        -13    1    3    3    0    0 -0.54804638189E+01 -0.38595479648E+02 -0.43102764316E+01  0.39220354260E+02  0.10570000000E+00 0. -1.
         13    1    3    3    0    0  0.54804638189E+01  0.38595479648E+02  0.62969088063E+02  0.74059190901E+02  0.10570000000E+00 0.  1.
<mgrwt>
<rscale>  0 0.96909232E+02</rscale>
<asrwt>0</asrwt>
<pdfrwt beam="2">  1        4 0.42015949E-02 0.96909232E+02</pdfrwt>
<pdfrwt beam="1">  1       -4 0.13226027E-01 0.96909232E+02</pdfrwt>
<totfact> 0.21738622E+04</totfact>
</mgrwt>
</event>
<event>
 5    1  0.1090823E+000  0.1126466E+03  0.7818608E-02  0.1255746E+00
         -4   -1    0    0    0  501 -0.00000000000E+00  0.00000000000E+00  0.33057553547E+02  0.33088037816E+02  0.14200000000E+01 0. -1.
          4   -1    0    0  501    0  0.00000000000E+00 -0.00000000000E+00 -0.95883406746E+02  0.95893921023E+02  0.14200000000E+01 0.  1.
         23    2    1    2    0    0  0.00000000000E+00  0.00000000000E+00 -0.62825853199E+02  0.12898195884E+03  0.11264660614E+03 0.  0.
        -13    1    3    3    0    0  0.23386066501E+01  0.25800488134E+02  0.25851165245E+02  0.36598199219E+02  0.10570000000E+00 0. -1.
         13    1    3    3    0    0 -0.23386066501E+01 -0.25800488134E+02 -0.88677018443E+02  0.92383759620E+02  0.10570000000E+00 0.  1.
<mgrwt>
<rscale>  0 0.11264661E+03</rscale>
<asrwt>0</asrwt>
<pdfrwt beam="2">  1        4 0.14754447E-01 0.11264661E+03</pdfrwt>
<pdfrwt beam="1">  1       -4 0.50889313E-02 0.11264661E+03</pdfrwt>
<totfact> 0.13877539E+04</totfact>
</mgrwt>
</event>
<event>
 5    1  0.1090823E+000  0.1016508E+03  0.7818608E-02  0.1276862E+00
          4   -1    0    0  501    0  0.00000000000E+00  0.00000000000E+00  0.67794484877E+01  0.69265663787E+01  0.14200000000E+01 0. -1.
         -4   -1    0    0    0  501 -0.00000000000E+00 -0.00000000000E+00 -0.37679838942E+03  0.37680106512E+03  0.14200000000E+01 0.  1.
         23    2    1    2    0    0  0.00000000000E+00  0.00000000000E+00 -0.37001894094E+03  0.38372763149E+03  0.10165076744E+03 0.  0.
        -13    1    3    3    0    0  0.45853860941E+02  0.21270448091E+02 -0.20505587297E+03  0.21119405943E+03  0.10570000000E+00 0.  1.
         13    1    3    3    0    0 -0.45853860941E+02 -0.21270448091E+02 -0.16496306796E+03  0.17253357207E+03  0.10570000000E+00 0. -1.
<mgrwt>
<rscale>  0 0.10165077E+03</rscale>
<asrwt>0</asrwt>
<pdfrwt beam="1">  1        4 0.10545150E-02 0.10165077E+03</pdfrwt>
<pdfrwt beam="2">  1       -4 0.57980489E-01 0.10165077E+03</pdfrwt>
<totfact> 0.11623925E+04</totfact>
</mgrwt>
</event>
<event>
 5    1  0.1090823E+000  0.9121637E+02  0.7818608E-02  0.1299933E+00
         -4   -1    0    0    0  501 -0.00000000000E+00  0.00000000000E+00  0.18931537398E+02  0.18984717755E+02  0.14200000000E+01 0.  1.
          4   -1    0    0  501    0  0.00000000000E+00 -0.00000000000E+00 -0.10966330804E+03  0.10967250125E+03  0.14200000000E+01 0. -1.
         23    2    1    2    0    0  0.00000000000E+00  0.00000000000E+00 -0.90731770642E+02  0.12865721900E+03  0.91216368038E+02 0.  0.
        -13    1    3    3    0    0 -0.48113630907E+01  0.26439078664E+02 -0.97341384027E+02  0.10098282187E+03  0.10570000000E+00 0. -1.
         13    1    3    3    0    0  0.48113630907E+01 -0.26439078664E+02  0.66096133841E+01  0.27674397138E+02  0.10570000000E+00 0.  1.
<mgrwt>
<rscale>  0 0.91216368E+02</rscale>
<asrwt>0</asrwt>
<pdfrwt beam="2">  1        4 0.16876076E-01 0.91216368E+02</pdfrwt>
<pdfrwt beam="1">  1       -4 0.29173422E-02 0.91216368E+02</pdfrwt>
<totfact> 0.24762014E+04</totfact>
</mgrwt>
</event>
<event>
 5    1  0.1090823E+000  0.9536477E+02  0.7818608E-02  0.1290357E+00
          4   -1    0    0  501    0  0.00000000000E+00  0.00000000000E+00  0.97772873438E+01  0.98798657786E+01  0.14200000000E+01 0. -1.
         -4   -1    0    0    0  501 -0.00000000000E+00 -0.00000000000E+00 -0.23122171225E+03  0.23122607253E+03  0.14200000000E+01 0.  1.
         23    2    1    2    0    0  0.00000000000E+00  0.00000000000E+00 -0.22144442491E+03  0.24110593831E+03  0.95364774229E+02 0.  0.
        -13    1    3    3    0    0  0.34233749122E+02 -0.83468062763E+01 -0.29503596125E+02  0.45957503313E+02  0.10570000000E+00 0. -1.
         13    1    3    3    0    0 -0.34233749122E+02  0.83468062763E+01 -0.19194082878E+03  0.19514843499E+03  0.10570000000E+00 0.  1.
<mgrwt>
<rscale>  0 0.95364774E+02</rscale>
<asrwt>0</asrwt>
<pdfrwt beam="1">  1        4 0.15124243E-02 0.95364774E+02</pdfrwt>
<pdfrwt beam="2">  1       -4 0.35580793E-01 0.95364774E+02</pdfrwt>
<totfact> 0.17539505E+04</totfact>
</mgrwt>
</event>
<event>
 5    1  0.1090823E+000  0.9238457E+02  0.7818608E-02  0.1297178E+00
          4   -1    0    0  501    0  0.00000000000E+00  0.00000000000E+00  0.12736138740E+02  0.12815054819E+02  0.14200000000E+01 0. -1.
         -4   -1    0    0    0  501 -0.00000000000E+00 -0.00000000000E+00 -0.16693390457E+03  0.16693994398E+03  0.14200000000E+01 0.  1.
         23    2    1    2    0    0  0.00000000000E+00  0.00000000000E+00 -0.15419776583E+03  0.17975499879E+03  0.92384569085E+02 0.  0.
        -13    1    3    3    0    0  0.43534830928E+02  0.42387489006E+01 -0.48208465904E+02  0.65094668396E+02  0.10570000000E+00 0. -1.
         13    1    3    3    0    0 -0.43534830928E+02 -0.42387489006E+01 -0.10598929992E+03  0.11466033040E+03  0.10570000000E+00 0.  1.
<mgrwt>
<rscale>  0 0.92384569E+02</rscale>
<asrwt>0</asrwt>
<pdfrwt beam="1">  1        4 0.19659411E-02 0.92384569E+02</pdfrwt>
<pdfrwt beam="2">  1       -4 0.25688673E-01 0.92384569E+02</pdfrwt>
<totfact> 0.21488272E+04</totfact>
</mgrwt>
</event>
<event>
 5    1  0.1090823E+000  0.8946537E+02  0.7818608E-02  0.1304152E+00
          4   -1    0    0  501    0  0.00000000000E+00  0.00000000000E+00  0.26464667008E+02  0.26502735705E+02  0.14200000000E+01 0.  1.
         -4   -1    0    0    0  501 -0.00000000000E+00 -0.00000000000E+00 -0.75511647919E+02  0.75524998322E+02  0.14200000000E+01 0. -1.
         23    2    1    2    0    0  0.00000000000E+00  0.00000000000E+00 -0.49046980911E+02  0.10202773403E+03  0.89465368574E+02 0.  0.
        -13    1    3    3    0    0  0.63715055300E+01  0.40611381653E+02 -0.44081088477E+01  0.41343959638E+02  0.10570000000E+00 0.  1.
         13    1    3    3    0    0 -0.63715055300E+01 -0.40611381653E+02 -0.44638872063E+02  0.60683774389E+02  0.10570000000E+00 0. -1.
<mgrwt>
<rscale>  0 0.89465369E+02</rscale>
<asrwt>0</asrwt>
<pdfrwt beam="1">  1        4 0.40754426E-02 0.89465369E+02</pdfrwt>
<pdfrwt beam="2">  1       -4 0.11621132E-01 0.89465369E+02</pdfrwt>
<totfact> 0.27716208E+04</totfact>
</mgrwt>
</event>
<event>
 5    1  0.1090823E+000  0.9106162E+02  0.7818608E-02  0.1300301E+00
          4   -1    0    0  501    0  0.00000000000E+00  0.00000000000E+00  0.42232687818E+03  0.42232926543E+03  0.14200000000E+01 0. -1.
         -4   -1    0    0    0  501 -0.00000000000E+00 -0.00000000000E+00 -0.48035014271E+01  0.50089945059E+01  0.14200000000E+01 0.  1.
         23    2    1    2    0    0  0.00000000000E+00  0.00000000000E+00  0.41752337676E+03  0.42733825993E+03  0.91061617955E+02 0.  0.
        -13    1    3    3    0    0  0.20105893433E+02 -0.39283557791E+02  0.26135477907E+03  0.26505428987E+03  0.10570000000E+00 0.  1.
         13    1    3    3    0    0 -0.20105893433E+02  0.39283557791E+02  0.15616859769E+03  0.16228397006E+03  0.10570000000E+00 0. -1.
<mgrwt>
<rscale>  0 0.91061618E+02</rscale>
<asrwt>0</asrwt>
<pdfrwt beam="1">  1        4 0.64989359E-01 0.91061618E+02</pdfrwt>
<pdfrwt beam="2">  1       -4 0.75499098E-03 0.91061618E+02</pdfrwt>
<totfact> 0.14580573E+04</totfact>
</mgrwt>
</event>
<event>
 5    1  0.1090823E+000  0.9241460E+02  0.7818608E-02  0.1297108E+00
          4   -1    0    0  501    0  0.00000000000E+00  0.00000000000E+00  0.44282398864E+02  0.44305160525E+02  0.14200000000E+01 0.  1.
         -4   -1    0    0    0  501 -0.00000000000E+00 -0.00000000000E+00 -0.48170258227E+02  0.48191183609E+02  0.14200000000E+01 0. -1.
         23    2    1    2    0    0  0.00000000000E+00  0.00000000000E+00 -0.38878593624E+01  0.92496344134E+02  0.92414599646E+02 0.  0.
        -13    1    3    3    0    0  0.20547467370E+02 -0.28911717156E+01 -0.43266597918E+02  0.47985070148E+02  0.10570000000E+00 0. -1.
         13    1    3    3    0    0 -0.20547467370E+02  0.28911717156E+01  0.39378738555E+02  0.44511273986E+02  0.10570000000E+00 0.  1.
<mgrwt>
<rscale>  0 0.92414600E+02</rscale>
<asrwt>0</asrwt>
<pdfrwt beam="1">  1        4 0.68160373E-02 0.92414600E+02</pdfrwt>
<pdfrwt beam="2">  1       -4 0.74141695E-02 0.92414600E+02</pdfrwt>
<totfact> 0.25960854E+04</totfact>
</mgrwt>
</event>
<event>
 5    1  0.1090823E+000  0.9013674E+02  0.7818608E-02  0.1302521E+00
          4   -1    0    0  501    0  0.00000000000E+00  0.00000000000E+00  0.91691567284E+01  0.92784608157E+01  0.14200000000E+01 0.  1.
         -4   -1    0    0    0  501 -0.00000000000E+00 -0.00000000000E+00 -0.22009655336E+03  0.22010113403E+03  0.14200000000E+01 0. -1.
         23    2    1    2    0    0  0.00000000000E+00  0.00000000000E+00 -0.21092739663E+03  0.22937959484E+03  0.90136739909E+02 0.  0.
        -13    1    3    3    0    0 -0.26660421415E+02  0.24119379425E+02 -0.36302147955E+02  0.51091874623E+02  0.10570000000E+00 0.  1.
         13    1    3    3    0    0  0.26660421415E+02 -0.24119379425E+02 -0.17462524867E+03  0.17828772022E+03  0.10570000000E+00 0. -1.
<mgrwt>
<rscale>  0 0.90136740E+02</rscale>
<asrwt>0</asrwt>
<pdfrwt beam="1">  1        4 0.14194000E-02 0.90136740E+02</pdfrwt>
<pdfrwt beam="2">  1       -4 0.33869765E-01 0.90136740E+02</pdfrwt>
<totfact> 0.20846188E+04</totfact>
</mgrwt>
</event>
<event>
 5    1  0.1090823E+000  0.9242139E+02  0.7818608E-02  0.1297092E+00
          4   -1    0    0  501    0  0.00000000000E+00  0.00000000000E+00  0.35920623282E+02  0.35948679767E+02  0.14200000000E+01 0. -1.
         -4   -1    0    0    0  501 -0.00000000000E+00 -0.00000000000E+00 -0.59388783693E+02  0.59405757537E+02  0.14200000000E+01 0.  1.
         23    2    1    2    0    0  0.00000000000E+00  0.00000000000E+00 -0.23468160411E+02  0.95354437304E+02  0.92421394495E+02 0.  0.
        -13    1    3    3    0    0  0.18862187531E+02 -0.39195222172E+02 -0.27829478953E+02  0.51638538233E+02  0.10570000000E+00 0.  1.
         13    1    3    3    0    0 -0.18862187531E+02  0.39195222172E+02  0.43613185422E+01  0.43715899070E+02  0.10570000000E+00 0. -1.
<mgrwt>
<rscale>  0 0.92421394E+02</rscale>
<asrwt>0</asrwt>
<pdfrwt beam="1">  1        4 0.55297136E-02 0.92421394E+02</pdfrwt>
<pdfrwt beam="2">  1       -4 0.91401998E-02 0.92421394E+02</pdfrwt>
<totfact> 0.25781001E+04</totfact>
</mgrwt>
</event>
<event>
 5    1  0.1090823E+000  0.9162037E+02  0.7818608E-02  0.1298975E+00
         -4   -1    0    0    0  501 -0.00000000000E+00  0.00000000000E+00  0.30678950742E+02  0.30711796083E+02  0.14200000000E+01 0.  1.
          4   -1    0    0  501    0  0.00000000000E+00 -0.00000000000E+00 -0.68327502747E+02  0.68342256560E+02  0.14200000000E+01 0. -1.
         23    2    1    2    0    0  0.00000000000E+00  0.00000000000E+00 -0.37648552005E+02  0.99054052643E+02  0.91620368242E+02 0.  0.
        -13    1    3    3    0    0  0.18869323690E+02 -0.32722403963E+02  0.91968493097E+01  0.38876732210E+02  0.10570000000E+00 0.  1.
         13    1    3    3    0    0 -0.18869323690E+02  0.32722403963E+02 -0.46845401315E+02  0.60177320432E+02  0.10570000000E+00 0. -1.
<mgrwt>
<rscale>  0 0.91620368E+02</rscale>
<asrwt>0</asrwt>
<pdfrwt beam="2">  1        4 0.10515585E-01 0.91620368E+02</pdfrwt>
<pdfrwt beam="1">  1       -4 0.47235001E-02 0.91620368E+02</pdfrwt>
<totfact> 0.26169545E+04</totfact>
</mgrwt>
</event>
<event>
 5    1  0.1090823E+000  0.9045887E+02  0.7818608E-02  0.1301744E+00
         -4   -1    0    0    0  501 -0.00000000000E+00  0.00000000000E+00  0.27562947718E+02  0.27599501570E+02  0.14200000000E+01 0.  1.
          4   -1    0    0  501    0  0.00000000000E+00 -0.00000000000E+00 -0.74126723607E+02  0.74140323392E+02  0.14200000000E+01 0. -1.
         23    2    1    2    0    0  0.00000000000E+00  0.00000000000E+00 -0.46563775889E+02  0.10173982496E+03  0.90458867770E+02 0.  0.
        -13    1    3    3    0    0 -0.11504939781E+02 -0.27580676288E+02  0.14902461499E+02  0.33393889787E+02  0.10570000000E+00 0.  1.
         13    1    3    3    0    0  0.11504939781E+02  0.27580676288E+02 -0.61466237388E+02  0.68345935175E+02  0.10570000000E+00 0. -1.
<mgrwt>
<rscale>  0 0.90458868E+02</rscale>
<asrwt>0</asrwt>
<pdfrwt beam="2">  1        4 0.11407969E-01 0.90458868E+02</pdfrwt>
<pdfrwt beam="1">  1       -4 0.42443115E-02 0.90458868E+02</pdfrwt>
<totfact> 0.26920580E+04</totfact>
</mgrwt>
</event>
<event>
 5    1  0.1090823E+000  0.8894924E+02  0.7818608E-02  0.1305416E+00
          4   -1    0    0  501    0  0.00000000000E+00  0.00000000000E+00  0.91025115219E+02  0.91036190609E+02  0.14200000000E+01 0.  1.
         -4   -1    0    0    0  501 -0.00000000000E+00 -0.00000000000E+00 -0.21694567104E+02  0.21740989900E+02  0.14200000000E+01 0. -1.
         23    2    1    2    0    0  0.00000000000E+00  0.00000000000E+00  0.69330548115E+02  0.11277718051E+03  0.88949241378E+02 0.  0.
        -13    1    3    3    0    0 -0.23793772485E+02  0.37465216327E+02  0.31035791575E+02  0.54157340912E+02  0.10570000000E+00 0.  1.
         13    1    3    3    0    0  0.23793772485E+02 -0.37465216327E+02  0.38294756540E+02  0.58619839597E+02  0.10570000000E+00 0. -1.
<mgrwt>
<rscale>  0 0.88949241E+02</rscale>
<asrwt>0</asrwt>
<pdfrwt beam="1">  1        4 0.14008287E-01 0.88949241E+02</pdfrwt>
<pdfrwt beam="2">  1       -4 0.33420487E-02 0.88949241E+02</pdfrwt>
<totfact> 0.27459809E+04</totfact>
</mgrwt>
</event>
<event>
 5    1  0.1090823E+000  0.9165604E+02  0.7818608E-02  0.1298890E+00
          4   -1    0    0  501    0  0.00000000000E+00  0.00000000000E+00  0.11986221061E+02  0.12070041231E+02  0.14200000000E+01 0.  1.
         -4   -1    0    0    0  501 -0.00000000000E+00 -0.00000000000E+00 -0.17452122239E+03  0.17452699924E+03  0.14200000000E+01 0. -1.
         23    2    1    2    0    0  0.00000000000E+00  0.00000000000E+00 -0.16253500133E+03  0.18659704047E+03  0.91656035568E+02 0.  0.
        -13    1    3    3    0    0  0.11016237346E+02 -0.43695870170E+02 -0.64294222749E+02  0.78513978416E+02  0.10570000000E+00 0.  1.
         13    1    3    3    0    0 -0.11016237346E+02  0.43695870170E+02 -0.98240778576E+02  0.10808306205E+03  0.10570000000E+00 0. -1.
<mgrwt>
<rscale>  0 0.91656036E+02</rscale>
<asrwt>0</asrwt>
<pdfrwt beam="1">  1        4 0.18509262E-02 0.91656036E+02</pdfrwt>
<pdfrwt beam="2">  1       -4 0.26856309E-01 0.91656036E+02</pdfrwt>
<totfact> 0.21652300E+04</totfact>
</mgrwt>
</event>
<event>
 5    1  0.1090823E+000  0.8274970E+02  0.7818608E-02  0.1321424E+00
         -4   -1    0    0    0  501 -0.00000000000E+00  0.00000000000E+00  0.55970880921E+01  0.57744086373E+01  0.14200000000E+01 0.  1.
          4   -1    0    0  501    0  0.00000000000E+00 -0.00000000000E+00 -0.30090331071E+03  0.30090666127E+03  0.14200000000E+01 0. -1.
         23    2    1    2    0    0  0.00000000000E+00  0.00000000000E+00 -0.29530622262E+03  0.30668106991E+03  0.82749704061E+02 0.  0.
        -13    1    3    3    0    0  0.67920754310E+01 -0.38130148460E+02 -0.20159310216E+03  0.20527988338E+03  0.10570000000E+00 0.  1.
         13    1    3    3    0    0 -0.67920754310E+01  0.38130148460E+02 -0.93713120461E+02  0.10140118653E+03  0.10570000000E+00 0. -1.
<mgrwt>
<rscale>  0 0.82749704E+02</rscale>
<asrwt>0</asrwt>
<pdfrwt beam="2">  1        4 0.46306702E-01 0.82749704E+02</pdfrwt>
<pdfrwt beam="1">  1       -4 0.87498849E-03 0.82749704E+02</pdfrwt>
<totfact> 0.22751090E+04</totfact>
</mgrwt>
</event>
<event>
 5    1  0.1090823E+000  0.9883301E+02  0.7818608E-02  0.1282769E+00
          4   -1    0    0  501    0  0.00000000000E+00  0.00000000000E+00  0.15657594249E+03  0.15658238140E+03  0.14200000000E+01 0.  1.
         -4   -1    0    0    0  501 -0.00000000000E+00 -0.00000000000E+00 -0.15557111060E+02  0.15621783014E+02  0.14200000000E+01 0. -1.
         23    2    1    2    0    0  0.00000000000E+00  0.00000000000E+00  0.14101883143E+03  0.17220416442E+03  0.98833007773E+02 0.  0.
        -13    1    3    3    0    0  0.24085493519E+02 -0.39642863389E+02  0.10019695367E+03  0.11041335206E+03  0.10570000000E+00 0.  1.
         13    1    3    3    0    0 -0.24085493519E+02  0.39642863389E+02  0.40821877756E+02  0.61790812357E+02  0.10570000000E+00 0. -1.
<mgrwt>
<rscale>  0 0.98833008E+02</rscale>
<asrwt>0</asrwt>
<pdfrwt beam="1">  1        4 0.24094077E-01 0.98833008E+02</pdfrwt>
<pdfrwt beam="2">  1       -4 0.23988717E-02 0.98833008E+02</pdfrwt>
<totfact> 0.18178806E+04</totfact>
</mgrwt>
</event>
<event>
 5    1  0.1090823E+000  0.9133933E+02  0.7818608E-02  0.1299640E+00
         -4   -1    0    0    0  501 -0.00000000000E+00  0.00000000000E+00  0.47512125575E+02  0.47533340685E+02  0.14200000000E+01 0.  1.
          4   -1    0    0  501    0  0.00000000000E+00 -0.00000000000E+00 -0.43856147200E+02  0.43879129973E+02  0.14200000000E+01 0. -1.
         23    2    1    2    0    0  0.00000000000E+00  0.00000000000E+00  0.36559783753E+01  0.91412470658E+02  0.91339332239E+02 0.  0.
        -13    1    3    3    0    0 -0.17249476325E+02  0.20115163271E+02  0.39053781164E+02  0.47195055065E+02  0.10570000000E+00 0.  1.
         13    1    3    3    0    0  0.17249476325E+02 -0.20115163271E+02 -0.35397802789E+02  0.44217415592E+02  0.10570000000E+00 0. -1.
<mgrwt>
<rscale>  0 0.91339332E+02</rscale>
<asrwt>0</asrwt>
<pdfrwt beam="2">  1        4 0.67504995E-02 0.91339332E+02</pdfrwt>
<pdfrwt beam="1">  1       -4 0.73129575E-02 0.91339332E+02</pdfrwt>
<totfact> 0.26870561E+04</totfact>
</mgrwt>
</event>
<event>
 5    1  0.1090823E+000  0.9133208E+02  0.7818608E-02  0.1299658E+00
         -4   -1    0    0    0  501 -0.00000000000E+00  0.00000000000E+00  0.14334056593E+02  0.14404220854E+02  0.14200000000E+01 0. -1.
          4   -1    0    0  501    0  0.00000000000E+00 -0.00000000000E+00 -0.14505592764E+03  0.14506287790E+03  0.14200000000E+01 0.  1.
         23    2    1    2    0    0  0.00000000000E+00  0.00000000000E+00 -0.13072187105E+03  0.15946709875E+03  0.91332075494E+02 0.  0.
        -13    1    3    3    0    0 -0.10527007845E+02 -0.33056712222E+02 -0.11720937599E+03  0.12223589125E+03  0.10570000000E+00 0.  1.
         13    1    3    3    0    0  0.10527007845E+02  0.33056712222E+02 -0.13512495064E+02  0.37231207507E+02  0.10570000000E+00 0. -1.
<mgrwt>
<rscale>  0 0.91332075E+02</rscale>
<asrwt>0</asrwt>
<pdfrwt beam="2">  1        4 0.22322227E-01 0.91332075E+02</pdfrwt>
<pdfrwt beam="1">  1       -4 0.22111715E-02 0.91332075E+02</pdfrwt>
<totfact> 0.23100655E+04</totfact>
</mgrwt>
</event>
<event>
 5    1  0.1090823E+000  0.9177507E+02  0.7818608E-02  0.1298609E+00
         -4   -1    0    0    0  501 -0.00000000000E+00  0.00000000000E+00  0.10308363499E+02  0.10405707954E+02  0.14200000000E+01 0. -1.
          4   -1    0    0  501    0  0.00000000000E+00 -0.00000000000E+00 -0.20320795256E+03  0.20321291392E+03  0.14200000000E+01 0.  1.
         23    2    1    2    0    0  0.00000000000E+00  0.00000000000E+00 -0.19289958906E+03  0.21361862188E+03  0.91775073693E+02 0.  0.
        -13    1    3    3    0    0 -0.26877900436E+02 -0.36589322859E+02 -0.11196914819E+03  0.12082343067E+03  0.10570000000E+00 0.  1.
         13    1    3    3    0    0  0.26877900436E+02  0.36589322859E+02 -0.80930440869E+02  0.92795191206E+02  0.10570000000E+00 0. -1.
<mgrwt>
<rscale>  0 0.91775074E+02</rscale>
<asrwt>0</asrwt>
<pdfrwt beam="2">  1        4 0.31270629E-01 0.91775074E+02</pdfrwt>
<pdfrwt beam="1">  1       -4 0.15937719E-02 0.91775074E+02</pdfrwt>
<totfact> 0.20468582E+04</totfact>
</mgrwt>
</event>
<event>
 5    1  0.1090823E+000  0.9088562E+02  0.7818608E-02  0.1300721E+00
         -4   -1    0    0    0  501 -0.00000000000E+00  0.00000000000E+00  0.27410624466E+02  0.27447381179E+02  0.14200000000E+01 0. -1.
          4   -1    0    0  501    0  0.00000000000E+00 -0.00000000000E+00 -0.75243593853E+02  0.75256991807E+02  0.14200000000E+01 0.  1.
         23    2    1    2    0    0  0.00000000000E+00  0.00000000000E+00 -0.47832969387E+02  0.10270437299E+03  0.90885616410E+02 0.  0.
        -13    1    3    3    0    0  0.16910119237E+02  0.10702103949E+02 -0.70020872974E+02  0.72824590531E+02  0.10570000000E+00 0.  1.
         13    1    3    3    0    0 -0.16910119237E+02 -0.10702103949E+02  0.22187903587E+02  0.29879782456E+02  0.10570000000E+00 0. -1.
<mgrwt>
<rscale>  0 0.90885616E+02</rscale>
<asrwt>0</asrwt>
<pdfrwt beam="2">  1        4 0.11579795E-01 0.90885616E+02</pdfrwt>
<pdfrwt beam="1">  1       -4 0.42208772E-02 0.90885616E+02</pdfrwt>
<totfact> 0.26520797E+04</totfact>
</mgrwt>
</event>
<event>
 5    1  0.1090823E+000  0.9460472E+02  0.7818608E-02  0.1292069E+00
          4   -1    0    0  501    0  0.00000000000E+00  0.00000000000E+00  0.73697633824E+02  0.73711312777E+02  0.14200000000E+01 0.  1.
         -4   -1    0    0    0  501 -0.00000000000E+00 -0.00000000000E+00 -0.30327612880E+02  0.30360838312E+02  0.14200000000E+01 0. -1.
         23    2    1    2    0    0  0.00000000000E+00  0.00000000000E+00  0.43370020944E+02  0.10407215109E+03  0.94604724594E+02 0.  0.
        -13    1    3    3    0    0  0.42060583139E+02  0.10826900980E+01 -0.20938216496E+01  0.42126715198E+02  0.10570000000E+00 0. -1.
         13    1    3    3    0    0 -0.42060583139E+02 -0.10826900980E+01  0.45463842593E+02  0.61945435890E+02  0.10570000000E+00 0.  1.
<mgrwt>
<rscale>  0 0.94604725E+02</rscale>
<asrwt>0</asrwt>
<pdfrwt beam="1">  1        4 0.11341705E-01 0.94604725E+02</pdfrwt>
<pdfrwt beam="2">  1       -4 0.46693947E-02 0.94604725E+02</pdfrwt>
<totfact> 0.23704963E+04</totfact>
</mgrwt>
</event>
<event>
 5    1  0.1090823E+000  0.8952984E+02  0.7818608E-02  0.1303994E+00
          4   -1    0    0  501    0  0.00000000000E+00  0.00000000000E+00  0.20244824356E+02  0.20294563637E+02  0.14200000000E+01 0. -1.
         -4   -1    0    0    0  501 -0.00000000000E+00 -0.00000000000E+00 -0.98806931594E+02  0.98817134805E+02  0.14200000000E+01 0.  1.
         23    2    1    2    0    0  0.00000000000E+00  0.00000000000E+00 -0.78562107238E+02  0.11911169844E+03  0.89529838669E+02 0.  0.
        -13    1    3    3    0    0  0.17072247634E+01  0.44618979317E+02 -0.43513127528E+02  0.62347184150E+02  0.10570000000E+00 0.  1.
         13    1    3    3    0    0 -0.17072247634E+01 -0.44618979317E+02 -0.35048979710E+02  0.56764514292E+02  0.10570000000E+00 0. -1.
<mgrwt>
<rscale>  0 0.89529839E+02</rscale>
<asrwt>0</asrwt>
<pdfrwt beam="1">  1        4 0.31191994E-02 0.89529839E+02</pdfrwt>
<pdfrwt beam="2">  1       -4 0.15205677E-01 0.89529839E+02</pdfrwt>
<totfact> 0.26597844E+04</totfact>
</mgrwt>
</event>
<event>
 5    1  0.1090823E+000  0.9131176E+02  0.7818608E-02  0.1299706E+00
          4   -1    0    0  501    0  0.00000000000E+00  0.00000000000E+00  0.24492919291E+03  0.24493330916E+03  0.14200000000E+01 0. -1.
         -4   -1    0    0    0  501 -0.00000000000E+00 -0.00000000000E+00 -0.84470063003E+01  0.85655306571E+01  0.14200000000E+01 0.  1.
         23    2    1    2    0    0  0.00000000000E+00  0.00000000000E+00  0.23648218661E+03  0.25349883982E+03  0.91311758325E+02 0.  0.
        -13    1    3    3    0    0  0.19720483317E+02  0.32978658141E+02  0.49789062710E+02  0.62892378656E+02  0.10570000000E+00 0.  1.
         13    1    3    3    0    0 -0.19720483317E+02 -0.32978658141E+02  0.18669312390E+03  0.19060646116E+03  0.10570000000E+00 0. -1.
<mgrwt>
<rscale>  0 0.91311758E+02</rscale>
<asrwt>0</asrwt>
<pdfrwt beam="1">  1        4 0.37690845E-01 0.91311758E+02</pdfrwt>
<pdfrwt beam="2">  1       -4 0.13089734E-02 0.91311758E+02</pdfrwt>
<totfact> 0.19264197E+04</totfact>
</mgrwt>
</event>
<event>
 5    1  0.1090823E+000  0.9104251E+02  0.7818608E-02  0.1300347E+00
          4   -1    0    0  501    0  0.00000000000E+00  0.00000000000E+00  0.34519840392E+02  0.34549034439E+02  0.14200000000E+01 0. -1.
         -4   -1    0    0    0  501 -0.00000000000E+00 -0.00000000000E+00 -0.59965831156E+02  0.59982641707E+02  0.14200000000E+01 0.  1.
         23    2    1    2    0    0  0.00000000000E+00  0.00000000000E+00 -0.25445990764E+02  0.94531676147E+02  0.91042513965E+02 0.  0.
        -13    1    3    3    0    0 -0.59815011314E+01  0.11080418889E+02  0.32698447411E+02  0.35039316119E+02  0.10570000000E+00 0. -1.
         13    1    3    3    0    0  0.59815011314E+01 -0.11080418889E+02 -0.58144438174E+02  0.59492360027E+02  0.10570000000E+00 0.  1.
<mgrwt>
<rscale>  0 0.91042514E+02</rscale>
<asrwt>0</asrwt>
<pdfrwt beam="1">  1        4 0.53142835E-02 0.91042514E+02</pdfrwt>
<pdfrwt beam="2">  1       -4 0.92290513E-02 0.91042514E+02</pdfrwt>
<totfact> 0.26909220E+04</totfact>
</mgrwt>
</event>
<event>
 5    1  0.1090823E+000  0.9173079E+02  0.7818608E-02  0.1298714E+00
         -4   -1    0    0    0  501 -0.00000000000E+00  0.00000000000E+00  0.16676411522E+03  0.16677016077E+03  0.14200000000E+01 0.  1.
          4   -1    0    0  501    0  0.00000000000E+00 -0.00000000000E+00 -0.12568174972E+02  0.12648139078E+02  0.14200000000E+01 0. -1.
         23    2    1    2    0    0  0.00000000000E+00  0.00000000000E+00  0.15419594025E+03  0.17941829985E+03  0.91730792721E+02 0.  0.
        -13    1    3    3    0    0 -0.18678095844E+02 -0.17178704443E+02  0.15182454942E+03  0.15393077707E+03  0.10570000000E+00 0.  1.
         13    1    3    3    0    0  0.18678095844E+02  0.17178704443E+02  0.23713908299E+01  0.25487522784E+02  0.10570000000E+00 0. -1.
<mgrwt>
<rscale>  0 0.91730793E+02</rscale>
<asrwt>0</asrwt>
<pdfrwt beam="2">  1        4 0.19401815E-02 0.91730793E+02</pdfrwt>
<pdfrwt beam="1">  1       -4 0.25662634E-01 0.91730793E+02</pdfrwt>
<totfact> 0.21917615E+04</totfact>
</mgrwt>
</event>
<event>
 5    1  0.1090823E+000  0.9090619E+02  0.7818608E-02  0.1300672E+00
          4   -1    0    0  501    0  0.00000000000E+00  0.00000000000E+00  0.18249606355E+02  0.18304768016E+02  0.14200000000E+01 0. -1.
         -4   -1    0    0    0  501 -0.00000000000E+00 -0.00000000000E+00 -0.11297658334E+03  0.11298550696E+03  0.14200000000E+01 0.  1.
         23    2    1    2    0    0  0.00000000000E+00  0.00000000000E+00 -0.94726976981E+02  0.13129027497E+03  0.90906194148E+02 0.  0.
        -13    1    3    3    0    0  0.45039506488E+02 -0.55389073792E+00 -0.38565604157E+02  0.59297394008E+02  0.10570000000E+00 0.  1.
         13    1    3    3    0    0 -0.45039506488E+02  0.55389073792E+00 -0.56161372823E+02  0.71992880964E+02  0.10570000000E+00 0. -1.
<mgrwt>
<rscale>  0 0.90906194E+02</rscale>
<asrwt>0</asrwt>
<pdfrwt beam="1">  1        4 0.28125614E-02 0.90906194E+02</pdfrwt>
<pdfrwt beam="2">  1       -4 0.17385942E-01 0.90906194E+02</pdfrwt>
<totfact> 0.24846258E+04</totfact>
</mgrwt>
</event>
<event>
 5    1  0.1090823E+000  0.9165051E+02  0.7818608E-02  0.1298903E+00
         -4   -1    0    0    0  501 -0.00000000000E+00  0.00000000000E+00  0.41401362831E+02  0.41425707528E+02  0.14200000000E+01 0. -1.
          4   -1    0    0  501    0  0.00000000000E+00 -0.00000000000E+00 -0.50672655994E+02  0.50692548422E+02  0.14200000000E+01 0.  1.
         23    2    1    2    0    0  0.00000000000E+00  0.00000000000E+00 -0.92712931637E+01  0.92118255951E+02  0.91650511196E+02 0.  0.
        -13    1    3    3    0    0  0.42315676719E+02 -0.16539385795E+02 -0.10647401124E+02  0.46664184359E+02  0.10570000000E+00 0.  1.
         13    1    3    3    0    0 -0.42315676719E+02  0.16539385795E+02  0.13761079602E+01  0.45454071592E+02  0.10570000000E+00 0. -1.
<mgrwt>
<rscale>  0 0.91650511E+02</rscale>
<asrwt>0</asrwt>
<pdfrwt beam="2">  1        4 0.77991961E-02 0.91650511E+02</pdfrwt>
<pdfrwt beam="1">  1       -4 0.63728433E-02 0.91650511E+02</pdfrwt>
<totfact> 0.26578525E+04</totfact>
</mgrwt>
</event>
<event>
 5    1  0.1090823E+000  0.9292734E+02  0.7818608E-02  0.1295914E+00
          4   -1    0    0  501    0  0.00000000000E+00  0.00000000000E+00  0.13607931170E+03  0.13608672041E+03  0.14200000000E+01 0.  1.
         -4   -1    0    0    0  501 -0.00000000000E+00 -0.00000000000E+00 -0.15825180413E+02  0.15888761283E+02  0.14200000000E+01 0. -1.
         23    2    1    2    0    0  0.00000000000E+00  0.00000000000E+00  0.12025413129E+03  0.15197548170E+03  0.92927342291E+02 0.  0.
        -13    1    3    3    0    0  0.22984119821E+02  0.12731037500E+02 -0.25442531208E+01  0.26397603607E+02  0.10570000000E+00 0. -1.
         13    1    3    3    0    0 -0.22984119821E+02 -0.12731037500E+02  0.12279838441E+03  0.12557787809E+03  0.10570000000E+00 0.  1.
<mgrwt>
<rscale>  0 0.92927342E+02</rscale>
<asrwt>0</asrwt>
<pdfrwt beam="1">  1        4 0.20940739E-01 0.92927342E+02</pdfrwt>
<pdfrwt beam="2">  1       -4 0.24401040E-02 0.92927342E+02</pdfrwt>
<totfact> 0.22395044E+04</totfact>
</mgrwt>
</event>
<event>
 5    1  0.1090823E+000  0.9052526E+02  0.7818608E-02  0.1301585E+00
          4   -1    0    0  501    0  0.00000000000E+00  0.00000000000E+00  0.29185322593E+02  0.29219846934E+02  0.14200000000E+01 0. -1.
         -4   -1    0    0    0  501 -0.00000000000E+00 -0.00000000000E+00 -0.70113232760E+02  0.70127610883E+02  0.14200000000E+01 0.  1.
         23    2    1    2    0    0  0.00000000000E+00  0.00000000000E+00 -0.40927910168E+02  0.99347457817E+02  0.90525264672E+02 0.  0.
        -13    1    3    3    0    0 -0.27255002804E+02  0.36133635045E+02 -0.20978653663E+02  0.49885767924E+02  0.10570000000E+00 0. -1.
         13    1    3    3    0    0  0.27255002804E+02 -0.36133635045E+02 -0.19949256505E+02  0.49461689892E+02  0.10570000000E+00 0.  1.
<mgrwt>
<rscale>  0 0.90525265E+02</rscale>
<asrwt>0</asrwt>
<pdfrwt beam="1">  1        4 0.44938114E-02 0.90525265E+02</pdfrwt>
<pdfrwt beam="2">  1       -4 0.10790413E-01 0.90525265E+02</pdfrwt>
<totfact> 0.27017991E+04</totfact>
</mgrwt>
</event>
