<event>
 4    1  0.4261729E-001  0.5289466E+02  0.7818608E-02  0.1430326E+00
          1   -1    0    0  501    0  0.00000000000E+00  0.00000000000E+00  0.90712076473E+02  0.90712076593E+02  0.46700000000E-02 0. -1.
         -1   -1    0    0    0  501 -0.00000000000E+00 -0.00000000000E+00 -0.77107833229E+01  0.77107847371E+01  0.46700000000E-02 0.  1.
        -13    1    1    2    0    0  0.16539535205E+02 -0.11516697189E+02  0.73365375707E+02  0.76083375741E+02  0.10570000000E+00 0. -1.
         13    1    1    2    0    0 -0.16539535205E+02  0.11516697189E+02  0.96359174431E+01  0.22339485590E+02  0.10570000000E+00 0.  1.
<mgrwt>
<rscale>  0 0.52894659E+02</rscale>
<asrwt>0</asrwt>
<pdfrwt beam="1">  1        1 0.13955704E-01 0.52894659E+02</pdfrwt>
<pdfrwt beam="2">  1       -1 0.11862745E-02 0.52894659E+02</pdfrwt>
<totfact> 0.43219336E+05</totfact>
</mgrwt>
</event>
<event>
 4    1  0.4261729E-001  0.2292593E+02  0.7818608E-02  0.1692714E+00
         -1   -1    0    0    0  501 -0.00000000000E+00  0.00000000000E+00  0.10747373220E+01  0.10747474681E+01  0.46700000000E-02 0.  1.
          1   -1    0    0  501    0  0.00000000000E+00 -0.00000000000E+00 -0.12226141549E+03  0.12226141557E+03  0.46700000000E-02 0. -1.
        -13    1    1    2    0    0 -0.10736170184E+02 -0.38882091088E+01 -0.55200555566E+02  0.56369282660E+02  0.10570000000E+00 0.  1.
         13    1    1    2    0    0  0.10736170184E+02  0.38882091088E+01 -0.65986122597E+02  0.66966880383E+02  0.10570000000E+00 0. -1.
<mgrwt>
<rscale>  0 0.22925927E+02</rscale>
<asrwt>0</asrwt>
<pdfrwt beam="2">  1        1 0.18809438E-01 0.22925927E+02</pdfrwt>
<pdfrwt beam="1">  1       -1 0.16534509E-03 0.22925927E+02</pdfrwt>
<totfact> 0.33496311E+06</totfact>
</mgrwt>
</event>
<event>
 4    1  0.4261729E-001  0.5102895E+02  0.7818608E-02  0.1439869E+00
         -1   -1    0    0    0  501 -0.00000000000E+00  0.00000000000E+00  0.27111540485E+02  0.27111540887E+02  0.46700000000E-02 0.  1.
          1   -1    0    0  501    0  0.00000000000E+00 -0.00000000000E+00 -0.24011490440E+02  0.24011490894E+02  0.46700000000E-02 0. -1.
        -13    1    1    2    0    0 -0.14972509391E+02 -0.11641491020E+02 -0.15548278941E+02  0.24524691662E+02  0.10570000000E+00 0. -1.
         13    1    1    2    0    0  0.14972509391E+02  0.11641491020E+02  0.18648328986E+02  0.26598340119E+02  0.10570000000E+00 0.  1.
<mgrwt>
<rscale>  0 0.51028953E+02</rscale>
<asrwt>0</asrwt>
<pdfrwt beam="2">  1        1 0.36940755E-02 0.51028953E+02</pdfrwt>
<pdfrwt beam="1">  1       -1 0.41710063E-02 0.51028953E+02</pdfrwt>
<totfact> 0.41324339E+05</totfact>
</mgrwt>
</event>
<event>
 4    1  0.4261729E-001  0.2432621E+03  0.7818608E-02  0.1117639E+00
          1   -1    0    0  501    0  0.00000000000E+00  0.00000000000E+00  0.65305050939E+02  0.65305051106E+02  0.46700000000E-02 0.  1.
         -1   -1    0    0    0  501 -0.00000000000E+00 -0.00000000000E+00 -0.22653863568E+03  0.22653863573E+03  0.46700000000E-02 0. -1.
        -13    1    1    2    0    0 -0.14472521570E+02  0.10357438018E+03 -0.15512439569E+03  0.18708472792E+03  0.10570000000E+00 0. -1.
         13    1    1    2    0    0  0.14472521570E+02 -0.10357438018E+03 -0.61091890536E+01  0.10475895892E+03  0.10570000000E+00 0.  1.
<mgrwt>
<rscale>  0 0.24326214E+03</rscale>
<asrwt>0</asrwt>
<pdfrwt beam="1">  1        1 0.10046931E-01 0.24326214E+03</pdfrwt>
<pdfrwt beam="2">  1       -1 0.34852098E-01 0.24326214E+03</pdfrwt>
<totfact> 0.49615940E+03</totfact>
</mgrwt>
</event>
<event>
 4    1  0.4261729E-001  0.2866806E+02  0.7818608E-02  0.1613296E+00
         -1   -1    0    0    0  501 -0.00000000000E+00  0.00000000000E+00  0.67531702424E+02  0.67531702585E+02  0.46700000000E-02 0.  1.
          1   -1    0    0  501    0  0.00000000000E+00 -0.00000000000E+00 -0.30424854275E+01  0.30424890116E+01  0.46700000000E-02 0. -1.
        -13    1    1    2    0    0  0.47395811233E+00  0.13940347784E+02  0.24118806686E+02  0.27861908425E+02  0.10570000000E+00 0. -1.
         13    1    1    2    0    0 -0.47395811233E+00 -0.13940347784E+02  0.40370410310E+02  0.42712283172E+02  0.10570000000E+00 0.  1.
<mgrwt>
<rscale>  0 0.28668056E+02</rscale>
<asrwt>0</asrwt>
<pdfrwt beam="2">  1        1 0.46807504E-03 0.28668056E+02</pdfrwt>
<pdfrwt beam="1">  1       -1 0.10389491E-01 0.28668056E+02</pdfrwt>
<totfact> 0.14960410E+06</totfact>
</mgrwt>
</event>
<event>
 4    1  0.4261729E-001  0.6708390E+02  0.7818608E-02  0.1370300E+00
         -1   -1    0    0    0  501 -0.00000000000E+00  0.00000000000E+00  0.51613635496E+01  0.51613656623E+01  0.46700000000E-02 0.  1.
          1   -1    0    0  501    0  0.00000000000E+00 -0.00000000000E+00 -0.21797770353E+03  0.21797770358E+03  0.46700000000E-02 0. -1.
        -13    1    1    2    0    0  0.20591007174E+02 -0.23393889060E+02 -0.65158735196E+02  0.72228357081E+02  0.10570000000E+00 0.  1.
         13    1    1    2    0    0 -0.20591007174E+02  0.23393889060E+02 -0.14765760478E+03  0.15091071216E+03  0.10570000000E+00 0. -1.
<mgrwt>
<rscale>  0 0.67083900E+02</rscale>
<asrwt>0</asrwt>
<pdfrwt beam="2">  1        1 0.33535024E-01 0.67083900E+02</pdfrwt>
<pdfrwt beam="1">  1       -1 0.79405627E-03 0.67083900E+02</pdfrwt>
<totfact> 0.27003951E+05</totfact>
</mgrwt>
</event>
<event>
 4    1  0.4261729E-001  0.4901520E+02  0.7818608E-02  0.1450727E+00
          1   -1    0    0  501    0  0.00000000000E+00  0.00000000000E+00  0.12694031671E+02  0.12694032530E+02  0.46700000000E-02 0. -1.
         -1   -1    0    0    0  501 -0.00000000000E+00 -0.00000000000E+00 -0.47315342689E+02  0.47315342919E+02  0.46700000000E-02 0.  1.
        -13    1    1    2    0    0 -0.13651964077E+01  0.23385557497E+02 -0.84937088411E+01  0.24917911691E+02  0.10570000000E+00 0. -1.
         13    1    1    2    0    0  0.13651964077E+01 -0.23385557497E+02 -0.26127602177E+02  0.35091463758E+02  0.10570000000E+00 0.  1.
<mgrwt>
<rscale>  0 0.49015201E+02</rscale>
<asrwt>0</asrwt>
<pdfrwt beam="1">  1        1 0.19529281E-02 0.49015201E+02</pdfrwt>
<pdfrwt beam="2">  1       -1 0.72792835E-02 0.49015201E+02</pdfrwt>
<totfact> 0.43171485E+05</totfact>
</mgrwt>
</event>
<event>
 4    1  0.4261729E-001  0.5383266E+02  0.7818608E-02  0.1425701E+00
          1   -1    0    0  501    0  0.00000000000E+00  0.00000000000E+00  0.68855697211E+01  0.68855713048E+01  0.46700000000E-02 0. -1.
         -1   -1    0    0    0  501 -0.00000000000E+00 -0.00000000000E+00 -0.10521842448E+03  0.10521842458E+03  0.46700000000E-02 0.  1.
        -13    1    1    2    0    0 -0.87231817154E+01 -0.22475435430E+02 -0.24243141442E+02  0.34190352096E+02  0.10570000000E+00 0. -1.
         13    1    1    2    0    0  0.87231817154E+01  0.22475435430E+02 -0.74089713318E+02  0.77913643793E+02  0.10570000000E+00 0.  1.
<mgrwt>
<rscale>  0 0.53832663E+02</rscale>
<asrwt>0</asrwt>
<pdfrwt beam="1">  1        1 0.10593186E-02 0.53832663E+02</pdfrwt>
<pdfrwt beam="2">  1       -1 0.16187449E-01 0.53832663E+02</pdfrwt>
<totfact> 0.30720764E+05</totfact>
</mgrwt>
</event>
<event>
 4    1  0.4261729E-001  0.2988822E+02  0.7818608E-02  0.1599328E+00
          1   -1    0    0  501    0  0.00000000000E+00  0.00000000000E+00  0.88809565352E+01  0.88809577630E+01  0.46700000000E-02 0. -1.
         -1   -1    0    0    0  501 -0.00000000000E+00 -0.00000000000E+00 -0.25146659670E+02  0.25146660104E+02  0.46700000000E-02 0.  1.
        -13    1    1    2    0    0 -0.14026660022E+02 -0.51019020534E+01 -0.72972766701E+01  0.16614391810E+02  0.10570000000E+00 0. -1.
         13    1    1    2    0    0  0.14026660022E+02  0.51019020534E+01 -0.89684264647E+01  0.17413226056E+02  0.10570000000E+00 0.  1.
<mgrwt>
<rscale>  0 0.29888220E+02</rscale>
<asrwt>0</asrwt>
<pdfrwt beam="1">  1        1 0.13663011E-02 0.29888220E+02</pdfrwt>
<pdfrwt beam="2">  1       -1 0.38687170E-02 0.29888220E+02</pdfrwt>
<totfact> 0.14865644E+06</totfact>
</mgrwt>
</event>
<event>
 4    1  0.4261729E-001  0.2483424E+02  0.7818608E-02  0.1663394E+00
          1   -1    0    0  501    0  0.00000000000E+00  0.00000000000E+00  0.11311554461E+03  0.11311554470E+03  0.46700000000E-02 0.  1.
         -1   -1    0    0    0  501 -0.00000000000E+00 -0.00000000000E+00 -0.13630701712E+01  0.13630781711E+01  0.46700000000E-02 0. -1.
        -13    1    1    2    0    0  0.12047617888E+02 -0.15533109557E+01  0.67732999795E+02  0.68813721782E+02  0.10570000000E+00 0.  1.
         13    1    1    2    0    0 -0.12047617888E+02  0.15533109557E+01  0.44019474641E+02  0.45664901093E+02  0.10570000000E+00 0. -1.
<mgrwt>
<rscale>  0 0.24834242E+02</rscale>
<asrwt>0</asrwt>
<pdfrwt beam="1">  1        1 0.17402400E-01 0.24834242E+02</pdfrwt>
<pdfrwt beam="2">  1       -1 0.20970363E-03 0.24834242E+02</pdfrwt>
<totfact> 0.27669105E+06</totfact>
</mgrwt>
</event>
<event>
 4    1  0.4261729E-001  0.2061682E+02  0.7818608E-02  0.1733333E+00
         -1   -1    0    0    0  501 -0.00000000000E+00  0.00000000000E+00  0.16668639397E+02  0.16668640051E+02  0.46700000000E-02 0.  1.
          1   -1    0    0  501    0  0.00000000000E+00 -0.00000000000E+00 -0.63750444976E+01  0.63750462080E+01  0.46700000000E-02 0. -1.
        -13    1    1    2    0    0  0.81188548501E+01  0.63331529627E+01  0.46136331100E+01  0.11283679076E+02  0.10570000000E+00 0. -1.
         13    1    1    2    0    0 -0.81188548501E+01 -0.63331529627E+01  0.56799617891E+01  0.11760007183E+02  0.10570000000E+00 0.  1.
<mgrwt>
<rscale>  0 0.20616823E+02</rscale>
<asrwt>0</asrwt>
<pdfrwt beam="2">  1        1 0.98077628E-03 0.20616823E+02</pdfrwt>
<pdfrwt beam="1">  1       -1 0.25644062E-02 0.20616823E+02</pdfrwt>
<totfact> 0.35324925E+06</totfact>
</mgrwt>
</event>
<event>
 4    1  0.4261729E-001  0.4037506E+02  0.7818608E-02  0.1505469E+00
          1   -1    0    0  501    0  0.00000000000E+00  0.00000000000E+00  0.74406340976E+01  0.74406355631E+01  0.46700000000E-02 0.  1.
         -1   -1    0    0    0  501 -0.00000000000E+00 -0.00000000000E+00 -0.54771712291E+02  0.54771712490E+02  0.46700000000E-02 0. -1.
        -13    1    1    2    0    0 -0.71068769141E+01 -0.18894903358E+02 -0.23679056242E+02  0.31116457854E+02  0.10570000000E+00 0.  1.
         13    1    1    2    0    0  0.71068769141E+01  0.18894903358E+02 -0.23652021952E+02  0.31095890199E+02  0.10570000000E+00 0. -1.
<mgrwt>
<rscale>  0 0.40375058E+02</rscale>
<asrwt>0</asrwt>
<pdfrwt beam="1">  1        1 0.11447131E-02 0.40375058E+02</pdfrwt>
<pdfrwt beam="2">  1       -1 0.84264171E-02 0.40375058E+02</pdfrwt>
<totfact> 0.68114310E+05</totfact>
</mgrwt>
</event>
<event>
 4    1  0.4261729E-001  0.2431776E+02  0.7818608E-02  0.1670999E+00
          1   -1    0    0  501    0  0.00000000000E+00  0.00000000000E+00  0.49664507597E+02  0.49664507817E+02  0.46700000000E-02 0.  1.
         -1   -1    0    0    0  501 -0.00000000000E+00 -0.00000000000E+00 -0.29767397394E+01  0.29767434026E+01  0.46700000000E-02 0. -1.
        -13    1    1    2    0    0  0.61631886150E+01 -0.88607901570E+01  0.11227470860E+02  0.15574523123E+02  0.10570000000E+00 0. -1.
         13    1    1    2    0    0 -0.61631886150E+01  0.88607901570E+01  0.35460296998E+02  0.37066728096E+02  0.10570000000E+00 0.  1.
<mgrwt>
<rscale>  0 0.24317764E+02</rscale>
<asrwt>0</asrwt>
<pdfrwt beam="1">  1        1 0.76406937E-02 0.24317764E+02</pdfrwt>
<pdfrwt beam="2">  1       -1 0.45796027E-03 0.24317764E+02</pdfrwt>
<totfact> 0.26798762E+06</totfact>
</mgrwt>
</event>
<event>
 4    1  0.4261729E-001  0.3418173E+02  0.7818608E-02  0.1555989E+00
         -1   -1    0    0    0  501 -0.00000000000E+00  0.00000000000E+00  0.10925871501E+02  0.10925872499E+02  0.46700000000E-02 0. -1.
          1   -1    0    0  501    0  0.00000000000E+00 -0.00000000000E+00 -0.26734494534E+02  0.26734494941E+02  0.46700000000E-02 0.  1.
        -13    1    1    2    0    0 -0.13041786006E+02 -0.89905007871E+01 -0.83500487395E+00  0.15862713899E+02  0.10570000000E+00 0.  1.
         13    1    1    2    0    0  0.13041786006E+02  0.89905007871E+01 -0.14973618159E+02  0.21797653541E+02  0.10570000000E+00 0. -1.
<mgrwt>
<rscale>  0 0.34181731E+02</rscale>
<asrwt>0</asrwt>
<pdfrwt beam="2">  1        1 0.41129993E-02 0.34181731E+02</pdfrwt>
<pdfrwt beam="1">  1       -1 0.16809034E-02 0.34181731E+02</pdfrwt>
<totfact> 0.11469141E+06</totfact>
</mgrwt>
</event>
<event>
 4    1  0.4261729E-001  0.2967444E+02  0.7818608E-02  0.1601715E+00
         -1   -1    0    0    0  501 -0.00000000000E+00  0.00000000000E+00  0.35476478992E+02  0.35476479299E+02  0.46700000000E-02 0.  1.
          1   -1    0    0  501    0  0.00000000000E+00 -0.00000000000E+00 -0.62053256092E+01  0.62053273665E+01  0.46700000000E-02 0. -1.
        -13    1    1    2    0    0  0.42150004619E+01  0.94093659098E+01  0.29621776476E+02  0.31364999758E+02  0.10570000000E+00 0.  1.
         13    1    1    2    0    0 -0.42150004619E+01 -0.94093659098E+01 -0.35062309404E+00  0.10316806907E+02  0.10570000000E+00 0. -1.
<mgrwt>
<rscale>  0 0.29674443E+02</rscale>
<asrwt>0</asrwt>
<pdfrwt beam="2">  1        1 0.95466563E-03 0.29674443E+02</pdfrwt>
<pdfrwt beam="1">  1       -1 0.54579200E-02 0.29674443E+02</pdfrwt>
<totfact> 0.14734155E+06</totfact>
</mgrwt>
</event>
<event>
 4    1  0.4261729E-001  0.5819039E+02  0.7818608E-02  0.1405587E+00
          1   -1    0    0  501    0  0.00000000000E+00  0.00000000000E+00  0.40520315207E+02  0.40520315476E+02  0.46700000000E-02 0. -1.
         -1   -1    0    0    0  501 -0.00000000000E+00 -0.00000000000E+00 -0.20891506698E+02  0.20891507220E+02  0.46700000000E-02 0.  1.
        -13    1    1    2    0    0 -0.22928596000E+02 -0.43198480275E+01  0.28158788840E+02  0.36569251604E+02  0.10570000000E+00 0. -1.
         13    1    1    2    0    0  0.22928596000E+02  0.43198480275E+01 -0.85299803304E+01  0.24842571091E+02  0.10570000000E+00 0.  1.
<mgrwt>
<rscale>  0 0.58190393E+02</rscale>
<asrwt>0</asrwt>
<pdfrwt beam="1">  1        1 0.62338946E-02 0.58190393E+02</pdfrwt>
<pdfrwt beam="2">  1       -1 0.32140781E-02 0.58190393E+02</pdfrwt>
<totfact> 0.30819188E+05</totfact>
</mgrwt>
</event>
<event>
 4    1  0.4261729E-001  0.2532485E+02  0.7818608E-02  0.1656379E+00
          1   -1    0    0  501    0  0.00000000000E+00  0.00000000000E+00  0.20105882891E+01  0.20105937126E+01  0.46700000000E-02 0. -1.
         -1   -1    0    0    0  501 -0.00000000000E+00 -0.00000000000E+00 -0.79746217539E+02  0.79746217676E+02  0.46700000000E-02 0.  1.
        -13    1    1    2    0    0  0.61982849086E+01 -0.87939676931E+01 -0.17314491926E+02  0.20385176151E+02  0.10570000000E+00 0. -1.
         13    1    1    2    0    0 -0.61982849086E+01  0.87939676931E+01 -0.60421137324E+02  0.61371635237E+02  0.10570000000E+00 0.  1.
<mgrwt>
<rscale>  0 0.25324852E+02</rscale>
<asrwt>0</asrwt>
<pdfrwt beam="1">  1        1 0.30932176E-03 0.25324852E+02</pdfrwt>
<pdfrwt beam="2">  1       -1 0.12268647E-01 0.25324852E+02</pdfrwt>
<totfact> 0.19465816E+06</totfact>
</mgrwt>
</event>
<event>
 4    1  0.4261729E-001  0.2666165E+02  0.7818608E-02  0.1638221E+00
         -1   -1    0    0    0  501 -0.00000000000E+00  0.00000000000E+00  0.19075895660E+02  0.19075896232E+02  0.46700000000E-02 0.  1.
          1   -1    0    0  501    0  0.00000000000E+00 -0.00000000000E+00 -0.93159928063E+01  0.93159939768E+01  0.46700000000E-02 0. -1.
        -13    1    1    2    0    0  0.96149968896E+01  0.90731232771E+01  0.30571342614E+01  0.13569339467E+02  0.10570000000E+00 0. -1.
         13    1    1    2    0    0 -0.96149968896E+01 -0.90731232771E+01  0.67027685922E+01  0.14822550741E+02  0.10570000000E+00 0.  1.
<mgrwt>
<rscale>  0 0.26661653E+02</rscale>
<asrwt>0</asrwt>
<pdfrwt beam="2">  1        1 0.14332298E-02 0.26661653E+02</pdfrwt>
<pdfrwt beam="1">  1       -1 0.29347533E-02 0.26661653E+02</pdfrwt>
<totfact> 0.19676945E+06</totfact>
</mgrwt>
</event>
<event>
 4    1  0.4261729E-001  0.2937852E+02  0.7818608E-02  0.1605062E+00
         -1   -1    0    0    0  501 -0.00000000000E+00  0.00000000000E+00  0.99744889619E+01  0.99744900551E+01  0.46700000000E-02 0. -1.
          1   -1    0    0  501    0  0.00000000000E+00 -0.00000000000E+00 -0.21632617391E+02  0.21632617895E+02  0.46700000000E-02 0.  1.
        -13    1    1    2    0    0  0.10452552948E+02 -0.10287345929E+02 -0.49433210368E+01  0.15476851901E+02  0.10570000000E+00 0. -1.
         13    1    1    2    0    0 -0.10452552948E+02  0.10287345929E+02 -0.67148073920E+01  0.16130256049E+02  0.10570000000E+00 0.  1.
<mgrwt>
<rscale>  0 0.29378518E+02</rscale>
<asrwt>0</asrwt>
<pdfrwt beam="2">  1        1 0.33280951E-02 0.29378518E+02</pdfrwt>
<pdfrwt beam="1">  1       -1 0.15345369E-02 0.29378518E+02</pdfrwt>
<totfact> 0.16333960E+06</totfact>
</mgrwt>
</event>
<event>
 4    1  0.4261729E-001  0.3895338E+02  0.7818608E-02  0.1516058E+00
         -1   -1    0    0    0  501 -0.00000000000E+00  0.00000000000E+00  0.26669719756E+01  0.26669760643E+01  0.46700000000E-02 0. -1.
          1   -1    0    0  501    0  0.00000000000E+00 -0.00000000000E+00 -0.14223665007E+03  0.14223665014E+03  0.46700000000E-02 0.  1.
        -13    1    1    2    0    0  0.14760049274E+02 -0.12598897512E+02 -0.75941303462E+02  0.78381656126E+02  0.10570000000E+00 0.  1.
         13    1    1    2    0    0 -0.14760049274E+02  0.12598897512E+02 -0.63628374628E+02  0.66521970080E+02  0.10570000000E+00 0. -1.
<mgrwt>
<rscale>  0 0.38953380E+02</rscale>
<asrwt>0</asrwt>
<pdfrwt beam="2">  1        1 0.21882556E-01 0.38953380E+02</pdfrwt>
<pdfrwt beam="1">  1       -1 0.41030381E-03 0.38953380E+02</pdfrwt>
<totfact> 0.98553528E+05</totfact>
</mgrwt>
</event>
<event>
 4    1  0.4261729E-001  0.2111535E+02  0.7818608E-02  0.1724016E+00
         -1   -1    0    0    0  501 -0.00000000000E+00  0.00000000000E+00  0.60776893480E+02  0.60776893659E+02  0.46700000000E-02 0.  1.
          1   -1    0    0  501    0  0.00000000000E+00 -0.00000000000E+00 -0.18339916798E+01  0.18339976255E+01  0.46700000000E-02 0. -1.
        -13    1    1    2    0    0 -0.98219142679E+01  0.27213240242E+01  0.37633913516E+02  0.38989719457E+02  0.10570000000E+00 0.  1.
         13    1    1    2    0    0  0.98219142679E+01 -0.27213240242E+01  0.21308988285E+02  0.23621171828E+02  0.10570000000E+00 0. -1.
<mgrwt>
<rscale>  0 0.21115351E+02</rscale>
<asrwt>0</asrwt>
<pdfrwt beam="2">  1        1 0.28215309E-03 0.21115351E+02</pdfrwt>
<pdfrwt beam="1">  1       -1 0.93502902E-02 0.21115351E+02</pdfrwt>
<totfact> 0.30330765E+06</totfact>
</mgrwt>
</event>
<event>
 4    1  0.4261729E-001  0.2367084E+02  0.7818608E-02  0.1680861E+00
          1   -1    0    0  501    0  0.00000000000E+00  0.00000000000E+00  0.12348412421E+01  0.12348500727E+01  0.46700000000E-02 0.  1.
         -1   -1    0    0    0  501 -0.00000000000E+00 -0.00000000000E+00 -0.11343698773E+03  0.11343698783E+03  0.46700000000E-02 0. -1.
        -13    1    1    2    0    0 -0.11490489667E+02  0.25424618550E+01 -0.62172185786E+02  0.63276277727E+02  0.10570000000E+00 0. -1.
         13    1    1    2    0    0  0.11490489667E+02 -0.25424618550E+01 -0.50029960706E+02  0.51395560176E+02  0.10570000000E+00 0.  1.
<mgrwt>
<rscale>  0 0.23670841E+02</rscale>
<asrwt>0</asrwt>
<pdfrwt beam="1">  1        1 0.18997635E-03 0.23670841E+02</pdfrwt>
<pdfrwt beam="2">  1       -1 0.17451837E-01 0.23670841E+02</pdfrwt>
<totfact> 0.21438211E+06</totfact>
</mgrwt>
</event>
<event>
 4    1  0.4261729E-001  0.3359414E+02  0.7818608E-02  0.1561451E+00
          1   -1    0    0  501    0  0.00000000000E+00  0.00000000000E+00  0.24876951395E+02  0.24876951833E+02  0.46700000000E-02 0.  1.
         -1   -1    0    0    0  501 -0.00000000000E+00 -0.00000000000E+00 -0.11341484851E+02  0.11341485812E+02  0.46700000000E-02 0. -1.
        -13    1    1    2    0    0 -0.90543761770E+01  0.10038436004E+02 -0.39798883204E+01  0.14092643787E+02  0.10570000000E+00 0. -1.
         13    1    1    2    0    0  0.90543761770E+01 -0.10038436004E+02  0.17515354864E+02  0.22125793859E+02  0.10570000000E+00 0.  1.
<mgrwt>
<rscale>  0 0.33594142E+02</rscale>
<asrwt>0</asrwt>
<pdfrwt beam="1">  1        1 0.38272234E-02 0.33594142E+02</pdfrwt>
<pdfrwt beam="2">  1       -1 0.17448439E-02 0.33594142E+02</pdfrwt>
<totfact> 0.11909368E+06</totfact>
</mgrwt>
</event>
<event>
 4    1  0.4261729E-001  0.4706508E+02  0.7818608E-02  0.1461847E+00
         -1   -1    0    0    0  501 -0.00000000000E+00  0.00000000000E+00  0.64960370906E+02  0.64960371074E+02  0.46700000000E-02 0. -1.
          1   -1    0    0  501    0  0.00000000000E+00 -0.00000000000E+00 -0.85248952908E+01  0.85248965699E+01  0.46700000000E-02 0.  1.
        -13    1    1    2    0    0 -0.16530870310E+02  0.15709142372E+02  0.37284679301E+02  0.43705895601E+02  0.10570000000E+00 0. -1.
         13    1    1    2    0    0  0.16530870310E+02 -0.15709142372E+02  0.19150796315E+02  0.29779372043E+02  0.10570000000E+00 0.  1.
<mgrwt>
<rscale>  0 0.47065079E+02</rscale>
<asrwt>0</asrwt>
<pdfrwt beam="2">  1        1 0.13115224E-02 0.47065079E+02</pdfrwt>
<pdfrwt beam="1">  1       -1 0.99939036E-02 0.47065079E+02</pdfrwt>
<totfact> 0.45973430E+05</totfact>
</mgrwt>
</event>
<event>
 4    1  0.4261729E-001  0.2757214E+02  0.7818608E-02  0.1626588E+00
         -1   -1    0    0    0  501 -0.00000000000E+00  0.00000000000E+00  0.10402555342E+02  0.10402556390E+02  0.46700000000E-02 0. -1.
          1   -1    0    0  501    0  0.00000000000E+00 -0.00000000000E+00 -0.18270097289E+02  0.18270097886E+02  0.46700000000E-02 0.  1.
        -13    1    1    2    0    0 -0.26958767369E+01 -0.11313802323E+02  0.37626237335E+01  0.12224499345E+02  0.10570000000E+00 0. -1.
         13    1    1    2    0    0  0.26958767369E+01  0.11313802323E+02 -0.11630165680E+02  0.16448154931E+02  0.10570000000E+00 0.  1.
<mgrwt>
<rscale>  0 0.27572140E+02</rscale>
<asrwt>0</asrwt>
<pdfrwt beam="2">  1        1 0.28107843E-02 0.27572140E+02</pdfrwt>
<pdfrwt beam="1">  1       -1 0.16003933E-02 0.27572140E+02</pdfrwt>
<totfact> 0.18827641E+06</totfact>
</mgrwt>
</event>
<event>
 4    1  0.4261729E-001  0.2705550E+02  0.7818608E-02  0.1633120E+00
          1   -1    0    0  501    0  0.00000000000E+00  0.00000000000E+00  0.33596541849E+02  0.33596542174E+02  0.46700000000E-02 0.  1.
         -1   -1    0    0    0  501 -0.00000000000E+00 -0.00000000000E+00 -0.54469884259E+01  0.54469904278E+01  0.46700000000E-02 0. -1.
        -13    1    1    2    0    0  0.12846477878E+02  0.14533085004E+01  0.19819064765E+02  0.23663275346E+02  0.10570000000E+00 0. -1.
         13    1    1    2    0    0 -0.12846477878E+02 -0.14533085004E+01  0.83304886585E+01  0.15380257256E+02  0.10570000000E+00 0.  1.
<mgrwt>
<rscale>  0 0.27055500E+02</rscale>
<asrwt>0</asrwt>
<pdfrwt beam="1">  1        1 0.51686989E-02 0.27055500E+02</pdfrwt>
<pdfrwt beam="2">  1       -1 0.83799840E-03 0.27055500E+02</pdfrwt>
<totfact> 0.20368427E+06</totfact>
</mgrwt>
</event>
<event>
 4    1  0.4261729E-001  0.3065306E+02  0.7818608E-02  0.1590980E+00
         -1   -1    0    0    0  501 -0.00000000000E+00  0.00000000000E+00  0.24614240917E+02  0.24614241360E+02  0.46700000000E-02 0. -1.
          1   -1    0    0  501    0  0.00000000000E+00 -0.00000000000E+00 -0.95433589720E+01  0.95433601146E+01  0.46700000000E-02 0.  1.
        -13    1    1    2    0    0 -0.89837893633E+01  0.93146255796E+01 -0.16143258521E+01  0.13041776775E+02  0.10570000000E+00 0.  1.
         13    1    1    2    0    0  0.89837893633E+01 -0.93146255796E+01  0.16685207798E+02  0.21115824700E+02  0.10570000000E+00 0. -1.
<mgrwt>
<rscale>  0 0.30653063E+02</rscale>
<asrwt>0</asrwt>
<pdfrwt beam="2">  1        1 0.14682092E-02 0.30653063E+02</pdfrwt>
<pdfrwt beam="1">  1       -1 0.37868064E-02 0.30653063E+02</pdfrwt>
<totfact> 0.14036785E+06</totfact>
</mgrwt>
</event>
<event>
 4    1  0.4261729E-001  0.2321598E+02  0.7818608E-02  0.1688033E+00
          1   -1    0    0  501    0  0.00000000000E+00  0.00000000000E+00  0.15452041944E+02  0.15452042650E+02  0.46700000000E-02 0. -1.
         -1   -1    0    0    0  501 -0.00000000000E+00 -0.00000000000E+00 -0.87202366457E+01  0.87202378962E+01  0.46700000000E-02 0.  1.
        -13    1    1    2    0    0 -0.10553909309E+02 -0.20498339270E+01  0.79219315941E+01  0.13354961381E+02  0.10570000000E+00 0. -1.
         13    1    1    2    0    0  0.10553909309E+02  0.20498339270E+01 -0.11901262953E+01  0.10817319165E+02  0.10570000000E+00 0.  1.
<mgrwt>
<rscale>  0 0.23215985E+02</rscale>
<asrwt>0</asrwt>
<pdfrwt beam="1">  1        1 0.23772374E-02 0.23215985E+02</pdfrwt>
<pdfrwt beam="2">  1       -1 0.13415750E-02 0.23215985E+02</pdfrwt>
<totfact> 0.27952863E+06</totfact>
</mgrwt>
</event>
<event>
 4    1  0.4261729E-001  0.3255862E+02  0.7818608E-02  0.1571415E+00
         -1   -1    0    0    0  501 -0.00000000000E+00  0.00000000000E+00  0.97702186740E+01  0.97702197901E+01  0.46700000000E-02 0.  1.
          1   -1    0    0  501    0  0.00000000000E+00 -0.00000000000E+00 -0.27124865256E+02  0.27124865658E+02  0.46700000000E-02 0. -1.
        -13    1    1    2    0    0  0.14460818252E+02 -0.73945292972E+01 -0.74306125995E+01  0.17861117102E+02  0.10570000000E+00 0. -1.
         13    1    1    2    0    0 -0.14460818252E+02  0.73945292972E+01 -0.99240339829E+01  0.19033968347E+02  0.10570000000E+00 0.  1.
<mgrwt>
<rscale>  0 0.32558617E+02</rscale>
<asrwt>0</asrwt>
<pdfrwt beam="2">  1        1 0.41730563E-02 0.32558617E+02</pdfrwt>
<pdfrwt beam="1">  1       -1 0.15031107E-02 0.32558617E+02</pdfrwt>
<totfact> 0.12922396E+06</totfact>
</mgrwt>
</event>
<event>
 4    1  0.4261729E-001  0.6803532E+02  0.7818608E-02  0.1366904E+00
         -1   -1    0    0    0  501 -0.00000000000E+00  0.00000000000E+00  0.48672830608E+01  0.48672853011E+01  0.46700000000E-02 0.  1.
          1   -1    0    0  501    0  0.00000000000E+00 -0.00000000000E+00 -0.23775089445E+03  0.23775089449E+03  0.46700000000E-02 0. -1.
        -13    1    1    2    0    0  0.18551746509E+02 -0.28501103493E+02 -0.11944621515E+03  0.12419295344E+03  0.10570000000E+00 0. -1.
         13    1    1    2    0    0 -0.18551746509E+02  0.28501103493E+02 -0.11343739624E+03  0.11842522635E+03  0.10570000000E+00 0.  1.
<mgrwt>
<rscale>  0 0.68035320E+02</rscale>
<asrwt>0</asrwt>
<pdfrwt beam="2">  1        1 0.36577052E-01 0.68035320E+02</pdfrwt>
<pdfrwt beam="1">  1       -1 0.74881314E-03 0.68035320E+02</pdfrwt>
<totfact> 0.26456552E+05</totfact>
</mgrwt>
</event>
<event>
 4    1  0.4261729E-001  0.2976483E+02  0.7818608E-02  0.1600703E+00
          1   -1    0    0  501    0  0.00000000000E+00  0.00000000000E+00  0.31500115658E+02  0.31500116004E+02  0.46700000000E-02 0.  1.
         -1   -1    0    0    0  501 -0.00000000000E+00 -0.00000000000E+00 -0.70312839803E+01  0.70312855311E+01  0.46700000000E-02 0. -1.
        -13    1    1    2    0    0 -0.10648157162E+02  0.81369957051E+01  0.38567931328E+01  0.13945607761E+02  0.10570000000E+00 0. -1.
         13    1    1    2    0    0  0.10648157162E+02 -0.81369957051E+01  0.20612038545E+02  0.24585793775E+02  0.10570000000E+00 0.  1.
<mgrwt>
<rscale>  0 0.29764831E+02</rscale>
<asrwt>0</asrwt>
<pdfrwt beam="1">  1        1 0.48461718E-02 0.29764831E+02</pdfrwt>
<pdfrwt beam="2">  1       -1 0.10817361E-02 0.29764831E+02</pdfrwt>
<totfact> 0.16187605E+06</totfact>
</mgrwt>
</event>
<event>
 4    1  0.4261729E-001  0.2415176E+02  0.7818608E-02  0.1673493E+00
         -1   -1    0    0    0  501 -0.00000000000E+00  0.00000000000E+00  0.29005096626E+01  0.29005134221E+01  0.46700000000E-02 0.  1.
          1   -1    0    0  501    0  0.00000000000E+00 -0.00000000000E+00 -0.50276266544E+02  0.50276266761E+02  0.46700000000E-02 0. -1.
        -13    1    1    2    0    0  0.66921486951E+01  0.84234176219E+01 -0.35762953402E+02  0.37346202312E+02  0.10570000000E+00 0. -1.
         13    1    1    2    0    0 -0.66921486951E+01 -0.84234176219E+01 -0.11612803479E+02  0.15830577870E+02  0.10570000000E+00 0.  1.
<mgrwt>
<rscale>  0 0.24151762E+02</rscale>
<asrwt>0</asrwt>
<pdfrwt beam="2">  1        1 0.77348099E-02 0.24151762E+02</pdfrwt>
<pdfrwt beam="1">  1       -1 0.44623260E-03 0.24151762E+02</pdfrwt>
<totfact> 0.27248272E+06</totfact>
</mgrwt>
</event>
<event>
 4    1  0.4261729E-001  0.3614238E+02  0.7818608E-02  0.1538684E+00
         -1   -1    0    0    0  501 -0.00000000000E+00  0.00000000000E+00  0.74110083220E+01  0.74110097934E+01  0.46700000000E-02 0. -1.
          1   -1    0    0  501    0  0.00000000000E+00 -0.00000000000E+00 -0.44065247353E+02  0.44065247601E+02  0.46700000000E-02 0.  1.
        -13    1    1    2    0    0 -0.15031471982E+02 -0.83516788454E+00 -0.32563632888E+02  0.35875395673E+02  0.10570000000E+00 0.  1.
         13    1    1    2    0    0  0.15031471982E+02  0.83516788454E+00 -0.40906061433E+01  0.15600861721E+02  0.10570000000E+00 0. -1.
<mgrwt>
<rscale>  0 0.36142383E+02</rscale>
<asrwt>0</asrwt>
<pdfrwt beam="2">  1        1 0.67792688E-02 0.36142383E+02</pdfrwt>
<pdfrwt beam="1">  1       -1 0.11401553E-02 0.36142383E+02</pdfrwt>
<totfact> 0.10375082E+06</totfact>
</mgrwt>
</event>
<event>
 4    1  0.4261729E-001  0.2350275E+02  0.7818608E-02  0.1683488E+00
         -1   -1    0    0    0  501 -0.00000000000E+00  0.00000000000E+00  0.96206416686E+01  0.96206428020E+01  0.46700000000E-02 0.  1.
          1   -1    0    0  501    0  0.00000000000E+00 -0.00000000000E+00 -0.14354011106E+02  0.14354011866E+02  0.46700000000E-02 0. -1.
        -13    1    1    2    0    0 -0.11227948109E+02  0.21154654747E+01 -0.51680285418E+01  0.12540402881E+02  0.10570000000E+00 0.  1.
         13    1    1    2    0    0  0.11227948109E+02 -0.21154654747E+01  0.43465910393E+00  0.11434251787E+02  0.10570000000E+00 0. -1.
<mgrwt>
<rscale>  0 0.23502750E+02</rscale>
<asrwt>0</asrwt>
<pdfrwt beam="2">  1        1 0.22083095E-02 0.23502750E+02</pdfrwt>
<pdfrwt beam="1">  1       -1 0.14800989E-02 0.23502750E+02</pdfrwt>
<totfact> 0.27079414E+06</totfact>
</mgrwt>
</event>
<event>
 4    1  0.4261729E-001  0.4390407E+02  0.7818608E-02  0.1481302E+00
         -1   -1    0    0    0  501 -0.00000000000E+00  0.00000000000E+00  0.62677643052E+01  0.62677660450E+01  0.46700000000E-02 0. -1.
          1   -1    0    0  501    0  0.00000000000E+00 -0.00000000000E+00 -0.76884161173E+02  0.76884161315E+02  0.46700000000E-02 0.  1.
        -13    1    1    2    0    0  0.19274600187E+02 -0.93296129811E+01 -0.26160457226E+02  0.33807285982E+02  0.10570000000E+00 0. -1.
         13    1    1    2    0    0 -0.19274600187E+02  0.93296129811E+01 -0.44455939642E+02  0.49344641377E+02  0.10570000000E+00 0.  1.
<mgrwt>
<rscale>  0 0.43904072E+02</rscale>
<asrwt>0</asrwt>
<pdfrwt beam="2">  1        1 0.11828332E-01 0.43904072E+02</pdfrwt>
<pdfrwt beam="1">  1       -1 0.96427163E-03 0.43904072E+02</pdfrwt>
<totfact> 0.67720580E+05</totfact>
</mgrwt>
</event>
<event>
 4    1  0.4261729E-001  0.4412543E+02  0.7818608E-02  0.1479876E+00
          1   -1    0    0  501    0  0.00000000000E+00  0.00000000000E+00  0.23184267370E+01  0.23184314403E+01  0.46700000000E-02 0.  1.
         -1   -1    0    0    0  501 -0.00000000000E+00 -0.00000000000E+00 -0.20995398710E+03  0.20995398715E+03  0.46700000000E-02 0. -1.
        -13    1    1    2    0    0  0.17668100089E+02  0.13208286888E+02 -0.10556336797E+03  0.10784366664E+03  0.10570000000E+00 0.  1.
         13    1    1    2    0    0 -0.17668100089E+02 -0.13208286888E+02 -0.10207219239E+03  0.10442875196E+03  0.10570000000E+00 0. -1.
<mgrwt>
<rscale>  0 0.44125432E+02</rscale>
<asrwt>0</asrwt>
<pdfrwt beam="1">  1        1 0.35668157E-03 0.44125432E+02</pdfrwt>
<pdfrwt beam="2">  1       -1 0.32300599E-01 0.44125432E+02</pdfrwt>
<totfact> 0.43010878E+05</totfact>
</mgrwt>
</event>
<event>
 4    1  0.4261729E-001  0.3156138E+02  0.7818608E-02  0.1581444E+00
          1   -1    0    0  501    0  0.00000000000E+00  0.00000000000E+00  0.42627179293E+01  0.42627204874E+01  0.46700000000E-02 0. -1.
         -1   -1    0    0    0  501 -0.00000000000E+00 -0.00000000000E+00 -0.58420506468E+02  0.58420506655E+02  0.46700000000E-02 0.  1.
        -13    1    1    2    0    0 -0.13763440032E+02  0.37402069183E+01 -0.40490056908E+02  0.42928746898E+02  0.10570000000E+00 0.  1.
         13    1    1    2    0    0  0.13763440032E+02 -0.37402069183E+01 -0.13667731631E+02  0.19754480245E+02  0.10570000000E+00 0. -1.
<mgrwt>
<rscale>  0 0.31561383E+02</rscale>
<asrwt>0</asrwt>
<pdfrwt beam="1">  1        1 0.65580301E-03 0.31561383E+02</pdfrwt>
<pdfrwt beam="2">  1       -1 0.89877699E-02 0.31561383E+02</pdfrwt>
<totfact> 0.12158345E+06</totfact>
</mgrwt>
</event>
<event>
 4    1  0.4261729E-001  0.3139226E+02  0.7818608E-02  0.1583190E+00
         -1   -1    0    0    0  501 -0.00000000000E+00  0.00000000000E+00  0.44587968407E+01  0.44587992863E+01  0.46700000000E-02 0.  1.
          1   -1    0    0  501    0  0.00000000000E+00 -0.00000000000E+00 -0.55254451676E+02  0.55254451873E+02  0.46700000000E-02 0. -1.
        -13    1    1    2    0    0 -0.42003693712E+01  0.14926964305E+02 -0.20777518198E+02  0.25926314839E+02  0.10570000000E+00 0. -1.
         13    1    1    2    0    0  0.42003693712E+01 -0.14926964305E+02 -0.30018136637E+02  0.33786936320E+02  0.10570000000E+00 0.  1.
<mgrwt>
<rscale>  0 0.31392257E+02</rscale>
<asrwt>0</asrwt>
<pdfrwt beam="2">  1        1 0.85006846E-02 0.31392257E+02</pdfrwt>
<pdfrwt beam="1">  1       -1 0.68596898E-03 0.31392257E+02</pdfrwt>
<totfact> 0.14856142E+06</totfact>
</mgrwt>
</event>
<event>
 4    1  0.4261729E-001  0.2915143E+02  0.7818608E-02  0.1607662E+00
          1   -1    0    0  501    0  0.00000000000E+00  0.00000000000E+00  0.53841000884E+02  0.53841001087E+02  0.46700000000E-02 0.  1.
         -1   -1    0    0    0  501 -0.00000000000E+00 -0.00000000000E+00 -0.39459044955E+01  0.39459072589E+01  0.46700000000E-02 0. -1.
        -13    1    1    2    0    0  0.71236958621E+01  0.70509995311E+01  0.45924066596E+02  0.47005262496E+02  0.10570000000E+00 0.  1.
         13    1    1    2    0    0 -0.71236958621E+01 -0.70509995311E+01  0.39710297929E+01  0.10781645850E+02  0.10570000000E+00 0. -1.
<mgrwt>
<rscale>  0 0.29151434E+02</rscale>
<asrwt>0</asrwt>
<pdfrwt beam="1">  1        1 0.82832302E-02 0.29151434E+02</pdfrwt>
<pdfrwt beam="2">  1       -1 0.60706252E-03 0.29151434E+02</pdfrwt>
<totfact> 0.17675593E+06</totfact>
</mgrwt>
</event>
<event>
 4    1  0.4261729E-001  0.4083515E+02  0.7818608E-02  0.1502154E+00
         -1   -1    0    0    0  501 -0.00000000000E+00  0.00000000000E+00  0.63760192254E+01  0.63760209356E+01  0.46700000000E-02 0. -1.
          1   -1    0    0  501    0  0.00000000000E+00 -0.00000000000E+00 -0.65382065497E+02  0.65382065664E+02  0.46700000000E-02 0.  1.
        -13    1    1    2    0    0  0.13837734443E+02  0.11759438175E+02 -0.45902994091E+02  0.49364595812E+02  0.10570000000E+00 0. -1.
         13    1    1    2    0    0 -0.13837734443E+02 -0.11759438175E+02 -0.13103052181E+02  0.22393490788E+02  0.10570000000E+00 0.  1.
<mgrwt>
<rscale>  0 0.40835150E+02</rscale>
<asrwt>0</asrwt>
<pdfrwt beam="2">  1        1 0.10058779E-01 0.40835150E+02</pdfrwt>
<pdfrwt beam="1">  1       -1 0.98092622E-03 0.40835150E+02</pdfrwt>
<totfact> 0.79654135E+05</totfact>
</mgrwt>
</event>
<event>
 4    1  0.4261729E-001  0.3484670E+02  0.7818608E-02  0.1549966E+00
         -1   -1    0    0    0  501 -0.00000000000E+00  0.00000000000E+00  0.32303151987E+01  0.32303185744E+01  0.46700000000E-02 0.  1.
          1   -1    0    0  501    0  0.00000000000E+00 -0.00000000000E+00 -0.93976264321E+02  0.93976264438E+02  0.46700000000E-02 0. -1.
        -13    1    1    2    0    0 -0.14442817334E+02  0.43791653039E+00 -0.72529949774E+02  0.73955334697E+02  0.10570000000E+00 0. -1.
         13    1    1    2    0    0  0.14442817334E+02 -0.43791653039E+00 -0.18215999348E+02  0.23251248315E+02  0.10570000000E+00 0.  1.
<mgrwt>
<rscale>  0 0.34846700E+02</rscale>
<asrwt>0</asrwt>
<pdfrwt beam="2">  1        1 0.14457885E-01 0.34846700E+02</pdfrwt>
<pdfrwt beam="1">  1       -1 0.49697191E-03 0.34846700E+02</pdfrwt>
<totfact> 0.12210173E+06</totfact>
</mgrwt>
</event>
<event>
 4    1  0.4261729E-001  0.5899143E+02  0.7818608E-02  0.1402114E+00
         -1   -1    0    0    0  501 -0.00000000000E+00  0.00000000000E+00  0.12242722108E+02  0.12242722999E+02  0.46700000000E-02 0. -1.
          1   -1    0    0  501    0  0.00000000000E+00 -0.00000000000E+00 -0.71062390491E+02  0.71062390644E+02  0.46700000000E-02 0.  1.
        -13    1    1    2    0    0  0.12962478225E+02  0.74568880625E+01 -0.65311805173E+02  0.67002045407E+02  0.10570000000E+00 0.  1.
         13    1    1    2    0    0 -0.12962478225E+02 -0.74568880625E+01  0.64921367897E+01  0.16303068236E+02  0.10570000000E+00 0. -1.
<mgrwt>
<rscale>  0 0.58991428E+02</rscale>
<asrwt>0</asrwt>
<pdfrwt beam="2">  1        1 0.10932675E-01 0.58991428E+02</pdfrwt>
<pdfrwt beam="1">  1       -1 0.18834958E-02 0.58991428E+02</pdfrwt>
<totfact> 0.31664629E+05</totfact>
</mgrwt>
</event>
<event>
 4    1  0.4261729E-001  0.2853803E+02  0.7818608E-02  0.1614835E+00
          1   -1    0    0  501    0  0.00000000000E+00  0.00000000000E+00  0.29256423262E+02  0.29256423635E+02  0.46700000000E-02 0. -1.
         -1   -1    0    0    0  501 -0.00000000000E+00 -0.00000000000E+00 -0.69593169756E+01  0.69593185425E+01  0.46700000000E-02 0.  1.
        -13    1    1    2    0    0 -0.10099830481E+02  0.10072736645E+02  0.11600775554E+02  0.18386292862E+02  0.10570000000E+00 0. -1.
         13    1    1    2    0    0  0.10099830481E+02 -0.10072736645E+02  0.10696330732E+02  0.17829449315E+02  0.10570000000E+00 0.  1.
<mgrwt>
<rscale>  0 0.28538028E+02</rscale>
<asrwt>0</asrwt>
<pdfrwt beam="1">  1        1 0.45009884E-02 0.28538028E+02</pdfrwt>
<pdfrwt beam="2">  1       -1 0.10706643E-02 0.28538028E+02</pdfrwt>
<totfact> 0.17809820E+06</totfact>
</mgrwt>
</event>
<event>
 4    1  0.4261729E-001  0.2515792E+02  0.7818608E-02  0.1658744E+00
         -1   -1    0    0    0  501 -0.00000000000E+00  0.00000000000E+00  0.60112442511E+01  0.60112460651E+01  0.46700000000E-02 0. -1.
          1   -1    0    0  501    0  0.00000000000E+00 -0.00000000000E+00 -0.26322368474E+02  0.26322368889E+02  0.46700000000E-02 0.  1.
        -13    1    1    2    0    0 -0.99348766964E+01 -0.30824907555E+01 -0.19244894083E+02  0.21876486120E+02  0.10570000000E+00 0.  1.
         13    1    1    2    0    0  0.99348766964E+01  0.30824907555E+01 -0.10662301405E+01  0.10457128833E+02  0.10570000000E+00 0. -1.
<mgrwt>
<rscale>  0 0.25157919E+02</rscale>
<asrwt>0</asrwt>
<pdfrwt beam="2">  1        1 0.40495953E-02 0.25157919E+02</pdfrwt>
<pdfrwt beam="1">  1       -1 0.92480699E-03 0.25157919E+02</pdfrwt>
<totfact> 0.23806485E+06</totfact>
</mgrwt>
</event>
<event>
 4    1  0.4261729E-001  0.2502159E+02  0.7818608E-02  0.1660692E+00
          1   -1    0    0  501    0  0.00000000000E+00  0.00000000000E+00  0.72823648336E+02  0.72823648486E+02  0.46700000000E-02 0. -1.
         -1   -1    0    0    0  501 -0.00000000000E+00 -0.00000000000E+00 -0.21492997948E+01  0.21493048683E+01  0.46700000000E-02 0.  1.
        -13    1    1    2    0    0  0.37477047671E+01  0.97594811201E+01  0.14748198027E+02  0.18077977771E+02  0.10570000000E+00 0.  1.
         13    1    1    2    0    0 -0.37477047671E+01 -0.97594811201E+01  0.55926150514E+02  0.56894975583E+02  0.10570000000E+00 0. -1.
<mgrwt>
<rscale>  0 0.25021595E+02</rscale>
<asrwt>0</asrwt>
<pdfrwt beam="1">  1        1 0.11203639E-01 0.25021595E+02</pdfrwt>
<pdfrwt beam="2">  1       -1 0.33066191E-03 0.25021595E+02</pdfrwt>
<totfact> 0.25922383E+06</totfact>
</mgrwt>
</event>
<event>
 4    1  0.4261729E-001  0.5915933E+02  0.7818608E-02  0.1401394E+00
         -1   -1    0    0    0  501 -0.00000000000E+00  0.00000000000E+00  0.71854651673E+02  0.71854651824E+02  0.46700000000E-02 0.  1.
          1   -1    0    0  501    0  0.00000000000E+00 -0.00000000000E+00 -0.12176756720E+02  0.12176757616E+02  0.46700000000E-02 0. -1.
        -13    1    1    2    0    0  0.53057294931E+01 -0.23662722582E+02  0.53897038302E+02  0.59101413821E+02  0.10570000000E+00 0.  1.
         13    1    1    2    0    0 -0.53057294931E+01  0.23662722582E+02  0.57808566510E+01  0.24929995619E+02  0.10570000000E+00 0. -1.
<mgrwt>
<rscale>  0 0.59159333E+02</rscale>
<asrwt>0</asrwt>
<pdfrwt beam="2">  1        1 0.18733473E-02 0.59159333E+02</pdfrwt>
<pdfrwt beam="1">  1       -1 0.11054562E-01 0.59159333E+02</pdfrwt>
<totfact> 0.25746652E+05</totfact>
</mgrwt>
</event>
<event>
 4    1  0.4261729E-001  0.3275145E+02  0.7818608E-02  0.1569526E+00
          1   -1    0    0  501    0  0.00000000000E+00  0.00000000000E+00  0.87034243854E+02  0.87034243979E+02  0.46700000000E-02 0.  1.
         -1   -1    0    0    0  501 -0.00000000000E+00 -0.00000000000E+00 -0.30811336410E+01  0.30811371801E+01  0.46700000000E-02 0. -1.
        -13    1    1    2    0    0 -0.61743735608E+01 -0.12841349040E+02  0.64181973966E+02  0.65744658252E+02  0.10570000000E+00 0.  1.
         13    1    1    2    0    0  0.61743735608E+01  0.12841349040E+02  0.19771136247E+02  0.24370722907E+02  0.10570000000E+00 0. -1.
<mgrwt>
<rscale>  0 0.32751446E+02</rscale>
<asrwt>0</asrwt>
<pdfrwt beam="1">  1        1 0.13389883E-01 0.32751446E+02</pdfrwt>
<pdfrwt beam="2">  1       -1 0.47402088E-03 0.32751446E+02</pdfrwt>
<totfact> 0.14042676E+06</totfact>
</mgrwt>
</event>
<event>
 4    1  0.4261729E-001  0.2826514E+02  0.7818608E-02  0.1618097E+00
          1   -1    0    0  501    0  0.00000000000E+00  0.00000000000E+00  0.14804738543E+01  0.14804812198E+01  0.46700000000E-02 0.  1.
         -1   -1    0    0    0  501 -0.00000000000E+00 -0.00000000000E+00 -0.13490887923E+03  0.13490887932E+03  0.46700000000E-02 0. -1.
        -13    1    1    2    0    0  0.50146942715E+01 -0.13094743459E+02 -0.75208663357E+02  0.76504729797E+02  0.10570000000E+00 0.  1.
         13    1    1    2    0    0 -0.50146942715E+01  0.13094743459E+02 -0.58219742023E+02  0.59884630738E+02  0.10570000000E+00 0. -1.
<mgrwt>
<rscale>  0 0.28265143E+02</rscale>
<asrwt>0</asrwt>
<pdfrwt beam="1">  1        1 0.22776589E-03 0.28265143E+02</pdfrwt>
<pdfrwt beam="2">  1       -1 0.20755203E-01 0.28265143E+02</pdfrwt>
<totfact> 0.13829712E+06</totfact>
</mgrwt>
</event>
<event>
 4    1  0.4261729E-001  0.3266288E+02  0.7818608E-02  0.1570391E+00
          1   -1    0    0  501    0  0.00000000000E+00  0.00000000000E+00  0.89631966291E+02  0.89631966413E+02  0.46700000000E-02 0. -1.
         -1   -1    0    0    0  501 -0.00000000000E+00 -0.00000000000E+00 -0.29756760412E+01  0.29756797058E+01  0.46700000000E-02 0.  1.
        -13    1    1    2    0    0 -0.56681051401E+01 -0.15190713462E+02  0.48869245583E+02  0.51488829154E+02  0.10570000000E+00 0. -1.
         13    1    1    2    0    0  0.56681051401E+01  0.15190713462E+02  0.37787044667E+02  0.41118816964E+02  0.10570000000E+00 0.  1.
<mgrwt>
<rscale>  0 0.32662876E+02</rscale>
<asrwt>0</asrwt>
<pdfrwt beam="1">  1        1 0.13789533E-01 0.32662876E+02</pdfrwt>
<pdfrwt beam="2">  1       -1 0.45779663E-03 0.32662876E+02</pdfrwt>
<totfact> 0.14181313E+06</totfact>
</mgrwt>
</event>
<event>
 4    1  0.4261729E-001  0.2907292E+02  0.7818608E-02  0.1608568E+00
         -1   -1    0    0    0  501 -0.00000000000E+00  0.00000000000E+00  0.53636230386E+01  0.53636250716E+01  0.46700000000E-02 0.  1.
          1   -1    0    0  501    0  0.00000000000E+00 -0.00000000000E+00 -0.39396608721E+02  0.39396608998E+02  0.46700000000E-02 0. -1.
        -13    1    1    2    0    0 -0.13478422853E+02  0.42293573393E+01 -0.11740836681E+02  0.18368825890E+02  0.10570000000E+00 0.  1.
         13    1    1    2    0    0  0.13478422853E+02 -0.42293573393E+01 -0.22292149002E+02  0.26391408180E+02  0.10570000000E+00 0. -1.
<mgrwt>
<rscale>  0 0.29072916E+02</rscale>
<asrwt>0</asrwt>
<pdfrwt beam="2">  1        1 0.60610167E-02 0.29072916E+02</pdfrwt>
<pdfrwt beam="1">  1       -1 0.82517298E-03 0.29072916E+02</pdfrwt>
<totfact> 0.17373024E+06</totfact>
</mgrwt>
</event>
<event>
 4    1  0.4261729E-001  0.1458909E+03  0.7818608E-02  0.1205615E+00
          1   -1    0    0  501    0  0.00000000000E+00  0.00000000000E+00  0.18306134284E+02  0.18306134880E+02  0.46700000000E-02 0. -1.
         -1   -1    0    0    0  501 -0.00000000000E+00 -0.00000000000E+00 -0.29066977544E+03  0.29066977548E+03  0.46700000000E-02 0.  1.
        -13    1    1    2    0    0 -0.70702163233E+02  0.16735815403E+02 -0.14993084173E+03  0.16660777856E+03  0.10570000000E+00 0.  1.
         13    1    1    2    0    0  0.70702163233E+02 -0.16735815403E+02 -0.12243279943E+03  0.14236813180E+03  0.10570000000E+00 0. -1.
<mgrwt>
<rscale>  0 0.14589092E+03</rscale>
<asrwt>0</asrwt>
<pdfrwt beam="1">  1        1 0.28163286E-02 0.14589092E+03</pdfrwt>
<pdfrwt beam="2">  1       -1 0.44718424E-01 0.14589092E+03</pdfrwt>
<totfact> 0.17642317E+04</totfact>
</mgrwt>
</event>
<event>
 4    1  0.4261729E-001  0.3741994E+02  0.7818608E-02  0.1528104E+00
         -1   -1    0    0    0  501 -0.00000000000E+00  0.00000000000E+00  0.49922008759E+01  0.49922030602E+01  0.46700000000E-02 0. -1.
          1   -1    0    0  501    0  0.00000000000E+00 -0.00000000000E+00 -0.70121945025E+02  0.70121945180E+02  0.46700000000E-02 0.  1.
        -13    1    1    2    0    0  0.17008527180E+02 -0.44615008954E+01 -0.19734162491E+02  0.26431861999E+02  0.10570000000E+00 0. -1.
         13    1    1    2    0    0 -0.17008527180E+02  0.44615008954E+01 -0.45395581658E+02  0.48682286241E+02  0.10570000000E+00 0.  1.
<mgrwt>
<rscale>  0 0.37419937E+02</rscale>
<asrwt>0</asrwt>
<pdfrwt beam="2">  1        1 0.10787991E-01 0.37419937E+02</pdfrwt>
<pdfrwt beam="1">  1       -1 0.76803113E-03 0.37419937E+02</pdfrwt>
<totfact> 0.99430622E+05</totfact>
</mgrwt>
</event>
<event>
 4    1  0.4261729E-001  0.3004575E+02  0.7818608E-02  0.1597583E+00
         -1   -1    0    0    0  501 -0.00000000000E+00  0.00000000000E+00  0.61785484893E+02  0.61785485069E+02  0.46700000000E-02 0.  1.
          1   -1    0    0  501    0  0.00000000000E+00 -0.00000000000E+00 -0.36527463508E+01  0.36527493361E+01  0.46700000000E-02 0. -1.
        -13    1    1    2    0    0 -0.45087019059E+01 -0.11755862627E+02  0.46913220027E+02  0.48573553348E+02  0.10570000000E+00 0.  1.
         13    1    1    2    0    0  0.45087019059E+01  0.11755862627E+02  0.11219518515E+02  0.16864681058E+02  0.10570000000E+00 0. -1.
<mgrwt>
<rscale>  0 0.30045752E+02</rscale>
<asrwt>0</asrwt>
<pdfrwt beam="2">  1        1 0.56196119E-03 0.30045752E+02</pdfrwt>
<pdfrwt beam="1">  1       -1 0.95054599E-02 0.30045752E+02</pdfrwt>
<totfact> 0.13556860E+06</totfact>
</mgrwt>
</event>
<event>
 4    1  0.4261729E-001  0.4904733E+02  0.7818608E-02  0.1450549E+00
          1   -1    0    0  501    0  0.00000000000E+00  0.00000000000E+00  0.10770605495E+02  0.10770606508E+02  0.46700000000E-02 0.  1.
         -1   -1    0    0    0  501 -0.00000000000E+00 -0.00000000000E+00 -0.55838102282E+02  0.55838102477E+02  0.46700000000E-02 0. -1.
        -13    1    1    2    0    0  0.10359181326E+02 -0.20051730725E+02 -0.95067683459E+01  0.24490291131E+02  0.10570000000E+00 0.  1.
         13    1    1    2    0    0 -0.10359181326E+02  0.20051730725E+02 -0.35560728441E+02  0.42118417854E+02  0.10570000000E+00 0. -1.
<mgrwt>
<rscale>  0 0.49047333E+02</rscale>
<asrwt>0</asrwt>
<pdfrwt beam="1">  1        1 0.16570164E-02 0.49047333E+02</pdfrwt>
<pdfrwt beam="2">  1       -1 0.85904772E-02 0.49047333E+02</pdfrwt>
<totfact> 0.42312813E+05</totfact>
</mgrwt>
</event>
<event>
 4    1  0.4261729E-001  0.7513707E+02  0.7818608E-02  0.1343447E+00
         -1   -1    0    0    0  501 -0.00000000000E+00  0.00000000000E+00  0.17385718699E+02  0.17385719326E+02  0.46700000000E-02 0.  1.
          1   -1    0    0  501    0  0.00000000000E+00 -0.00000000000E+00 -0.81181273524E+02  0.81181273658E+02  0.46700000000E-02 0. -1.
        -13    1    1    2    0    0 -0.32534992102E+01 -0.34939738194E+02 -0.14297103659E+02  0.37891805284E+02  0.10570000000E+00 0.  1.
         13    1    1    2    0    0  0.32534992102E+01  0.34939738194E+02 -0.49498451166E+02  0.60675187701E+02  0.10570000000E+00 0. -1.
<mgrwt>
<rscale>  0 0.75137070E+02</rscale>
<asrwt>0</asrwt>
<pdfrwt beam="2">  1        1 0.12489426E-01 0.75137070E+02</pdfrwt>
<pdfrwt beam="1">  1       -1 0.26747261E-02 0.75137070E+02</pdfrwt>
<totfact> 0.17048614E+05</totfact>
</mgrwt>
</event>
<event>
 4    1  0.4261729E-001  0.2790991E+02  0.7818608E-02  0.1622412E+00
         -1   -1    0    0    0  501 -0.00000000000E+00  0.00000000000E+00  0.52677393330E+02  0.52677393537E+02  0.46700000000E-02 0.  1.
          1   -1    0    0  501    0  0.00000000000E+00 -0.00000000000E+00 -0.36968536212E+01  0.36968565708E+01  0.46700000000E-02 0. -1.
        -13    1    1    2    0    0  0.10492171732E+02  0.78606986698E+01  0.14834283031E+02  0.19797559869E+02  0.10570000000E+00 0. -1.
         13    1    1    2    0    0 -0.10492171732E+02 -0.78606986698E+01  0.34146256678E+02  0.36576690239E+02  0.10570000000E+00 0.  1.
<mgrwt>
<rscale>  0 0.27909905E+02</rscale>
<asrwt>0</asrwt>
<pdfrwt beam="2">  1        1 0.56874699E-03 0.27909905E+02</pdfrwt>
<pdfrwt beam="1">  1       -1 0.81042141E-02 0.27909905E+02</pdfrwt>
<totfact> 0.16374855E+06</totfact>
</mgrwt>
</event>
<event>
 4    1  0.4261729E-001  0.2333539E+02  0.7818608E-02  0.1686131E+00
          1   -1    0    0  501    0  0.00000000000E+00  0.00000000000E+00  0.17205666570E+01  0.17205729947E+01  0.46700000000E-02 0. -1.
         -1   -1    0    0    0  501 -0.00000000000E+00 -0.00000000000E+00 -0.79122074386E+02  0.79122074524E+02  0.46700000000E-02 0.  1.
        -13    1    1    2    0    0 -0.10932756268E+02 -0.13920577786E+01 -0.25435793328E+02  0.27720998164E+02  0.10570000000E+00 0.  1.
         13    1    1    2    0    0  0.10932756268E+02  0.13920577786E+01 -0.51965714401E+02  0.53121649355E+02  0.10570000000E+00 0. -1.
<mgrwt>
<rscale>  0 0.23335386E+02</rscale>
<asrwt>0</asrwt>
<pdfrwt beam="1">  1        1 0.26470312E-03 0.23335386E+02</pdfrwt>
<pdfrwt beam="2">  1       -1 0.12172625E-01 0.23335386E+02</pdfrwt>
<totfact> 0.23454402E+06</totfact>
</mgrwt>
</event>
<event>
 4    1  0.4261729E-001  0.2425571E+02  0.7818608E-02  0.1671928E+00
          1   -1    0    0  501    0  0.00000000000E+00  0.00000000000E+00  0.36779212394E+01  0.36779242043E+01  0.46700000000E-02 0. -1.
         -1   -1    0    0    0  501 -0.00000000000E+00 -0.00000000000E+00 -0.39991300577E+02  0.39991300850E+02  0.46700000000E-02 0.  1.
        -13    1    1    2    0    0  0.11848704125E+02 -0.16041869192E+01 -0.14507423577E+02  0.18800045650E+02  0.10570000000E+00 0. -1.
         13    1    1    2    0    0 -0.11848704125E+02  0.16041869192E+01 -0.21805955760E+02  0.24869179404E+02  0.10570000000E+00 0.  1.
<mgrwt>
<rscale>  0 0.24255715E+02</rscale>
<asrwt>0</asrwt>
<pdfrwt beam="1">  1        1 0.56583431E-03 0.24255715E+02</pdfrwt>
<pdfrwt beam="2">  1       -1 0.61525077E-02 0.24255715E+02</pdfrwt>
<totfact> 0.23180968E+06</totfact>
</mgrwt>
</event>
<event>
 4    1  0.4261729E-001  0.2115078E+02  0.7818608E-02  0.1723367E+00
          1   -1    0    0  501    0  0.00000000000E+00  0.00000000000E+00  0.20902531954E+01  0.20902584122E+01  0.46700000000E-02 0. -1.
         -1   -1    0    0    0  501 -0.00000000000E+00 -0.00000000000E+00 -0.53504884810E+02  0.53504885014E+02  0.46700000000E-02 0.  1.
        -13    1    1    2    0    0  0.73390556062E+01  0.75342321535E+01 -0.22826311102E+02  0.25133205970E+02  0.10570000000E+00 0. -1.
         13    1    1    2    0    0 -0.73390556062E+01 -0.75342321535E+01 -0.28588320513E+02  0.30461937456E+02  0.10570000000E+00 0.  1.
<mgrwt>
<rscale>  0 0.21150783E+02</rscale>
<asrwt>0</asrwt>
<pdfrwt beam="1">  1        1 0.32157787E-03 0.21150783E+02</pdfrwt>
<pdfrwt beam="2">  1       -1 0.82315201E-02 0.21150783E+02</pdfrwt>
<totfact> 0.30650361E+06</totfact>
</mgrwt>
</event>
<event>
 4    1  0.4261729E-001  0.3534629E+02  0.7818608E-02  0.1545547E+00
         -1   -1    0    0    0  501 -0.00000000000E+00  0.00000000000E+00  0.11933891869E+03  0.11933891878E+03  0.46700000000E-02 0. -1.
          1   -1    0    0  501    0  0.00000000000E+00 -0.00000000000E+00 -0.26172502770E+01  0.26172544434E+01  0.46700000000E-02 0.  1.
        -13    1    1    2    0    0 -0.16071480776E+02 -0.16144523764E+01  0.33616942559E+02  0.37296232387E+02  0.10570000000E+00 0.  1.
         13    1    1    2    0    0  0.16071480776E+02  0.16144523764E+01  0.83104725853E+02  0.84659940836E+02  0.10570000000E+00 0. -1.
<mgrwt>
<rscale>  0 0.35346291E+02</rscale>
<asrwt>0</asrwt>
<pdfrwt beam="2">  1        1 0.40265424E-03 0.35346291E+02</pdfrwt>
<pdfrwt beam="1">  1       -1 0.18359833E-01 0.35346291E+02</pdfrwt>
<totfact> 0.83815775E+05</totfact>
</mgrwt>
</event>
<event>
 4    1  0.4261729E-001  0.2285864E+02  0.7818608E-02  0.1693812E+00
          1   -1    0    0  501    0  0.00000000000E+00  0.00000000000E+00  0.10644287456E+02  0.10644288481E+02  0.46700000000E-02 0.  1.
         -1   -1    0    0    0  501 -0.00000000000E+00 -0.00000000000E+00 -0.12272243501E+02  0.12272244389E+02  0.46700000000E-02 0. -1.
        -13    1    1    2    0    0  0.10635872797E+02  0.36018373004E+01  0.13181702913E+01  0.11306801824E+02  0.10570000000E+00 0.  1.
         13    1    1    2    0    0 -0.10635872797E+02 -0.36018373004E+01 -0.29461263358E+01  0.11609731046E+02  0.10570000000E+00 0. -1.
<mgrwt>
<rscale>  0 0.22858636E+02</rscale>
<asrwt>0</asrwt>
<pdfrwt beam="1">  1        1 0.16375828E-02 0.22858636E+02</pdfrwt>
<pdfrwt beam="2">  1       -1 0.18880376E-02 0.22858636E+02</pdfrwt>
<totfact> 0.28495105E+06</totfact>
</mgrwt>
</event>
<event>
 4    1  0.4261729E-001  0.2596992E+02  0.7818608E-02  0.1647449E+00
          1   -1    0    0  501    0  0.00000000000E+00  0.00000000000E+00  0.41281815745E+02  0.41281816010E+02  0.46700000000E-02 0. -1.
         -1   -1    0    0    0  501 -0.00000000000E+00 -0.00000000000E+00 -0.40843443539E+01  0.40843470237E+01  0.46700000000E-02 0.  1.
        -13    1    1    2    0    0  0.66867989308E+01  0.10226072603E+02  0.10921987059E+02  0.16388618448E+02  0.10570000000E+00 0.  1.
         13    1    1    2    0    0 -0.66867989308E+01 -0.10226072603E+02  0.26275484332E+02  0.28977544586E+02  0.10570000000E+00 0. -1.
<mgrwt>
<rscale>  0 0.25969922E+02</rscale>
<asrwt>0</asrwt>
<pdfrwt beam="1">  1        1 0.63510488E-02 0.25969922E+02</pdfrwt>
<pdfrwt beam="2">  1       -1 0.62836090E-03 0.25969922E+02</pdfrwt>
<totfact> 0.22716393E+06</totfact>
</mgrwt>
</event>
<event>
 4    1  0.4261729E-001  0.4545953E+02  0.7818608E-02  0.1471493E+00
          1   -1    0    0  501    0  0.00000000000E+00  0.00000000000E+00  0.19727232015E+02  0.19727232568E+02  0.46700000000E-02 0.  1.
         -1   -1    0    0    0  501 -0.00000000000E+00 -0.00000000000E+00 -0.26189294941E+02  0.26189295357E+02  0.46700000000E-02 0. -1.
        -13    1    1    2    0    0  0.33655642193E+01 -0.20352991288E+02 -0.12869489705E+02  0.24314732460E+02  0.10570000000E+00 0.  1.
         13    1    1    2    0    0 -0.33655642193E+01  0.20352991288E+02  0.64074267784E+01  0.21601795464E+02  0.10570000000E+00 0. -1.
<mgrwt>
<rscale>  0 0.45459535E+02</rscale>
<asrwt>0</asrwt>
<pdfrwt beam="1">  1        1 0.30349588E-02 0.45459535E+02</pdfrwt>
<pdfrwt beam="2">  1       -1 0.40291224E-02 0.45459535E+02</pdfrwt>
<totfact> 0.54830631E+05</totfact>
</mgrwt>
</event>
<event>
 4    1  0.4261729E-001  0.3994183E+02  0.7818608E-02  0.1508640E+00
         -1   -1    0    0    0  501 -0.00000000000E+00  0.00000000000E+00  0.87559134752E+01  0.87559147206E+01  0.46700000000E-02 0. -1.
          1   -1    0    0  501    0  0.00000000000E+00 -0.00000000000E+00 -0.45550630606E+02  0.45550630845E+02  0.46700000000E-02 0.  1.
        -13    1    1    2    0    0  0.10085840222E+02  0.12146766173E+02 -0.35024947161E+02  0.38419086371E+02  0.10570000000E+00 0.  1.
         13    1    1    2    0    0 -0.10085840222E+02 -0.12146766173E+02 -0.17697699697E+01  0.15887459195E+02  0.10570000000E+00 0. -1.
<mgrwt>
<rscale>  0 0.39941829E+02</rscale>
<asrwt>0</asrwt>
<pdfrwt beam="2">  1        1 0.70077893E-02 0.39941829E+02</pdfrwt>
<pdfrwt beam="1">  1       -1 0.13470637E-02 0.39941829E+02</pdfrwt>
<totfact> 0.81340497E+05</totfact>
</mgrwt>
</event>
<event>
 4    1  0.4261729E-001  0.2163609E+02  0.7818608E-02  0.1714623E+00
          1   -1    0    0  501    0  0.00000000000E+00  0.00000000000E+00  0.27755260541E+02  0.27755260934E+02  0.46700000000E-02 0. -1.
         -1   -1    0    0    0  501 -0.00000000000E+00 -0.00000000000E+00 -0.42164999583E+01  0.42165025445E+01  0.46700000000E-02 0.  1.
        -13    1    1    2    0    0 -0.50122072701E+01  0.89607651459E+01  0.67361948148E+01  0.12280269818E+02  0.10570000000E+00 0.  1.
         13    1    1    2    0    0  0.50122072701E+01 -0.89607651459E+01  0.16802565768E+02  0.19691493661E+02  0.10570000000E+00 0. -1.
<mgrwt>
<rscale>  0 0.21636090E+02</rscale>
<asrwt>0</asrwt>
<pdfrwt beam="1">  1        1 0.42700404E-02 0.21636090E+02</pdfrwt>
<pdfrwt beam="2">  1       -1 0.64869252E-03 0.21636090E+02</pdfrwt>
<totfact> 0.33756131E+06</totfact>
</mgrwt>
</event>
<event>
 4    1  0.4261729E-001  0.3768593E+02  0.7818608E-02  0.1525965E+00
          1   -1    0    0  501    0  0.00000000000E+00  0.00000000000E+00  0.52252547503E+01  0.52252568372E+01  0.46700000000E-02 0.  1.
         -1   -1    0    0    0  501 -0.00000000000E+00 -0.00000000000E+00 -0.67950215919E+02  0.67950216080E+02  0.46700000000E-02 0. -1.
        -13    1    1    2    0    0  0.61891086527E+01 -0.17304911110E+02 -0.23290653960E+02  0.29668682964E+02  0.10570000000E+00 0.  1.
         13    1    1    2    0    0 -0.61891086527E+01  0.17304911110E+02 -0.39434307209E+02  0.43506789953E+02  0.10570000000E+00 0. -1.
<mgrwt>
<rscale>  0 0.37685927E+02</rscale>
<asrwt>0</asrwt>
<pdfrwt beam="1">  1        1 0.80388557E-03 0.37685927E+02</pdfrwt>
<pdfrwt beam="2">  1       -1 0.10453879E-01 0.37685927E+02</pdfrwt>
<totfact> 0.78384477E+05</totfact>
</mgrwt>
</event>
<event>
 4    1  0.4261729E-001  0.2389210E+02  0.7818608E-02  0.1677445E+00
         -1   -1    0    0    0  501 -0.00000000000E+00  0.00000000000E+00  0.89465720752E+01  0.89465732941E+01  0.46700000000E-02 0. -1.
          1   -1    0    0  501    0  0.00000000000E+00 -0.00000000000E+00 -0.15951153279E+02  0.15951153962E+02  0.46700000000E-02 0.  1.
        -13    1    1    2    0    0  0.53547969544E+00  0.11029705773E+02 -0.82499058262E+01  0.13784529973E+02  0.10570000000E+00 0.  1.
         13    1    1    2    0    0 -0.53547969544E+00 -0.11029705773E+02  0.12453246228E+01  0.11113197283E+02  0.10570000000E+00 0. -1.
<mgrwt>
<rscale>  0 0.23892105E+02</rscale>
<asrwt>0</asrwt>
<pdfrwt beam="2">  1        1 0.24540237E-02 0.23892105E+02</pdfrwt>
<pdfrwt beam="1">  1       -1 0.13763959E-02 0.23892105E+02</pdfrwt>
<totfact> 0.26191959E+06</totfact>
</mgrwt>
</event>
<event>
 4    1  0.4261729E-001  0.2963309E+02  0.7818608E-02  0.1602180E+00
          1   -1    0    0  501    0  0.00000000000E+00  0.00000000000E+00  0.38638622478E+02  0.38638622760E+02  0.46700000000E-02 0. -1.
         -1   -1    0    0    0  501 -0.00000000000E+00 -0.00000000000E+00 -0.56816212219E+01  0.56816231411E+01  0.46700000000E-02 0.  1.
        -13    1    1    2    0    0  0.15051477825E+01  0.11024629043E+02  0.31110579695E+02  0.33040690925E+02  0.10570000000E+00 0. -1.
         13    1    1    2    0    0 -0.15051477825E+01 -0.11024629043E+02  0.18464215615E+01  0.11279554976E+02  0.10570000000E+00 0.  1.
<mgrwt>
<rscale>  0 0.29633094E+02</rscale>
<asrwt>0</asrwt>
<pdfrwt beam="1">  1        1 0.59444034E-02 0.29633094E+02</pdfrwt>
<pdfrwt beam="2">  1       -1 0.87409577E-03 0.29633094E+02</pdfrwt>
<totfact> 0.16581779E+06</totfact>
</mgrwt>
</event>
<event>
 4    1  0.4261729E-001  0.3598207E+02  0.7818608E-02  0.1540049E+00
          1   -1    0    0  501    0  0.00000000000E+00  0.00000000000E+00  0.68761073909E+02  0.68761074067E+02  0.46700000000E-02 0. -1.
         -1   -1    0    0    0  501 -0.00000000000E+00 -0.00000000000E+00 -0.47072734245E+01  0.47072757410E+01  0.46700000000E-02 0.  1.
        -13    1    1    2    0    0  0.30479147235E+01 -0.12415339436E+02  0.57872926004E+02  0.59268180116E+02  0.10570000000E+00 0. -1.
         13    1    1    2    0    0 -0.30479147235E+01  0.12415339436E+02  0.61808744800E+01  0.14200169692E+02  0.10570000000E+00 0.  1.
<mgrwt>
<rscale>  0 0.35982066E+02</rscale>
<asrwt>0</asrwt>
<pdfrwt beam="1">  1        1 0.10578627E-01 0.35982066E+02</pdfrwt>
<pdfrwt beam="2">  1       -1 0.72419608E-03 0.35982066E+02</pdfrwt>
<totfact> 0.10917189E+06</totfact>
</mgrwt>
</event>
<event>
 4    1  0.4261729E-001  0.2523702E+02  0.7818608E-02  0.1657621E+00
          1   -1    0    0  501    0  0.00000000000E+00  0.00000000000E+00  0.64846636052E+02  0.64846636220E+02  0.46700000000E-02 0.  1.
         -1   -1    0    0    0  501 -0.00000000000E+00 -0.00000000000E+00 -0.24554333928E+01  0.24554378338E+01  0.46700000000E-02 0. -1.
        -13    1    1    2    0    0 -0.41959290803E+00 -0.11819506477E+02  0.42923090673E+02  0.44522799518E+02  0.10570000000E+00 0.  1.
         13    1    1    2    0    0  0.41959290803E+00  0.11819506477E+02  0.19468111986E+02  0.22779274535E+02  0.10570000000E+00 0. -1.
<mgrwt>
<rscale>  0 0.25237017E+02</rscale>
<asrwt>0</asrwt>
<pdfrwt beam="1">  1        1 0.99764059E-02 0.25237017E+02</pdfrwt>
<pdfrwt beam="2">  1       -1 0.37775934E-03 0.25237017E+02</pdfrwt>
<totfact> 0.25144831E+06</totfact>
</mgrwt>
</event>
<event>
 4    1  0.4261729E-001  0.3201161E+02  0.7818608E-02  0.1576861E+00
          1   -1    0    0  501    0  0.00000000000E+00  0.00000000000E+00  0.73979218032E+02  0.73979218180E+02  0.46700000000E-02 0.  1.
         -1   -1    0    0    0  501 -0.00000000000E+00 -0.00000000000E+00 -0.34629416479E+01  0.34629447968E+01  0.46700000000E-02 0. -1.
        -13    1    1    2    0    0  0.10773634513E+02 -0.45336643361E+01  0.61709226086E+02  0.62806568681E+02  0.10570000000E+00 0.  1.
         13    1    1    2    0    0 -0.10773634513E+02  0.45336643361E+01  0.88070502987E+01  0.14635594295E+02  0.10570000000E+00 0. -1.
<mgrwt>
<rscale>  0 0.32011613E+02</rscale>
<asrwt>0</asrwt>
<pdfrwt beam="1">  1        1 0.11381418E-01 0.32011613E+02</pdfrwt>
<pdfrwt beam="2">  1       -1 0.53276053E-03 0.32011613E+02</pdfrwt>
<totfact> 0.14573208E+06</totfact>
</mgrwt>
</event>
<event>
 4    1  0.4261729E-001  0.4364040E+02  0.7818608E-02  0.1483012E+00
          1   -1    0    0  501    0  0.00000000000E+00  0.00000000000E+00  0.11925394257E+02  0.11925395171E+02  0.46700000000E-02 0. -1.
         -1   -1    0    0    0  501 -0.00000000000E+00 -0.00000000000E+00 -0.39924979210E+02  0.39924979483E+02  0.46700000000E-02 0.  1.
        -13    1    1    2    0    0 -0.10830741151E+02  0.57068259856E+01  0.74602155623E+01  0.14336624618E+02  0.10570000000E+00 0. -1.
         13    1    1    2    0    0  0.10830741151E+02 -0.57068259856E+01 -0.35459800515E+02  0.37513750036E+02  0.10570000000E+00 0.  1.
<mgrwt>
<rscale>  0 0.43640401E+02</rscale>
<asrwt>0</asrwt>
<pdfrwt beam="1">  1        1 0.18346762E-02 0.43640401E+02</pdfrwt>
<pdfrwt beam="2">  1       -1 0.61423045E-02 0.43640401E+02</pdfrwt>
<totfact> 0.58297311E+05</totfact>
</mgrwt>
</event>
<event>
 4    1  0.4261729E-001  0.2319805E+02  0.7818608E-02  0.1688320E+00
          1   -1    0    0  501    0  0.00000000000E+00  0.00000000000E+00  0.76695712704E+01  0.76695726922E+01  0.46700000000E-02 0. -1.
         -1   -1    0    0    0  501 -0.00000000000E+00 -0.00000000000E+00 -0.17541698745E+02  0.17541699366E+02  0.46700000000E-02 0.  1.
        -13    1    1    2    0    0 -0.94947728738E+01 -0.66613161093E+01 -0.48837425508E+01  0.12585148312E+02  0.10570000000E+00 0. -1.
         13    1    1    2    0    0  0.94947728738E+01  0.66613161093E+01 -0.49883849234E+01  0.12626123747E+02  0.10570000000E+00 0.  1.
<mgrwt>
<rscale>  0 0.23198046E+02</rscale>
<asrwt>0</asrwt>
<pdfrwt beam="1">  1        1 0.11799342E-02 0.23198046E+02</pdfrwt>
<pdfrwt beam="2">  1       -1 0.26987230E-02 0.23198046E+02</pdfrwt>
<totfact> 0.27094506E+06</totfact>
</mgrwt>
</event>
<event>
 4    1  0.4261729E-001  0.4257526E+02  0.7818608E-02  0.1490072E+00
          1   -1    0    0  501    0  0.00000000000E+00  0.00000000000E+00  0.77833798371E+02  0.77833798511E+02  0.46700000000E-02 0.  1.
         -1   -1    0    0    0  501 -0.00000000000E+00 -0.00000000000E+00 -0.58221903887E+01  0.58221922616E+01  0.46700000000E-02 0. -1.
        -13    1    1    2    0    0 -0.15701311244E+02 -0.99454836892E+01  0.15613596084E+02  0.24274253351E+02  0.10570000000E+00 0. -1.
         13    1    1    2    0    0  0.15701311244E+02  0.99454836892E+01  0.56398011899E+02  0.59381737422E+02  0.10570000000E+00 0.  1.
<mgrwt>
<rscale>  0 0.42575264E+02</rscale>
<asrwt>0</asrwt>
<pdfrwt beam="1">  1        1 0.11974430E-01 0.42575264E+02</pdfrwt>
<pdfrwt beam="2">  1       -1 0.89572181E-03 0.42575264E+02</pdfrwt>
<totfact> 0.73201721E+05</totfact>
</mgrwt>
</event>
<event>
 4    1  0.4261729E-001  0.2796227E+02  0.7818608E-02  0.1621771E+00
          1   -1    0    0  501    0  0.00000000000E+00  0.00000000000E+00  0.35773673720E+01  0.35773704201E+01  0.46700000000E-02 0.  1.
         -1   -1    0    0    0  501 -0.00000000000E+00 -0.00000000000E+00 -0.54641318173E+02  0.54641318373E+02  0.46700000000E-02 0. -1.
        -13    1    1    2    0    0 -0.51876714024E+01  0.12979129392E+02 -0.24903017129E+02  0.28557681436E+02  0.10570000000E+00 0. -1.
         13    1    1    2    0    0  0.51876714024E+01 -0.12979129392E+02 -0.26160933672E+02  0.29661007357E+02  0.10570000000E+00 0.  1.
<mgrwt>
<rscale>  0 0.27962272E+02</rscale>
<asrwt>0</asrwt>
<pdfrwt beam="1">  1        1 0.55036450E-03 0.27962272E+02</pdfrwt>
<pdfrwt beam="2">  1       -1 0.84063563E-02 0.27962272E+02</pdfrwt>
<totfact> 0.16241037E+06</totfact>
</mgrwt>
</event>
<event>
 4    1  0.4261729E-001  0.6550392E+02  0.7818608E-02  0.1376086E+00
          1   -1    0    0  501    0  0.00000000000E+00  0.00000000000E+00  0.23716577159E+02  0.23716577619E+02  0.46700000000E-02 0. -1.
         -1   -1    0    0    0  501 -0.00000000000E+00 -0.00000000000E+00 -0.45229579908E+02  0.45229580149E+02  0.46700000000E-02 0.  1.
        -13    1    1    2    0    0  0.92867991026E+01 -0.30532777241E+02 -0.30086635688E+01  0.32055551042E+02  0.10570000000E+00 0. -1.
         13    1    1    2    0    0 -0.92867991026E+01  0.30532777241E+02 -0.18504339180E+02  0.36890606726E+02  0.10570000000E+00 0.  1.
<mgrwt>
<rscale>  0 0.65503919E+02</rscale>
<asrwt>0</asrwt>
<pdfrwt beam="1">  1        1 0.36487042E-02 0.65503919E+02</pdfrwt>
<pdfrwt beam="2">  1       -1 0.69583969E-02 0.65503919E+02</pdfrwt>
<totfact> 0.21175081E+05</totfact>
</mgrwt>
</event>
<event>
 4    1  0.4261729E-001  0.3310491E+02  0.7818608E-02  0.1566103E+00
         -1   -1    0    0    0  501 -0.00000000000E+00  0.00000000000E+00  0.14708769226E+01  0.14708843361E+01  0.46700000000E-02 0.  1.
          1   -1    0    0  501    0  0.00000000000E+00 -0.00000000000E+00 -0.18627188276E+03  0.18627188281E+03  0.46700000000E-02 0. -1.
        -13    1    1    2    0    0  0.19420687971E+01  0.16435964200E+02 -0.93789554075E+02  0.95238669544E+02  0.10570000000E+00 0. -1.
         13    1    1    2    0    0 -0.19420687971E+01 -0.16435964200E+02 -0.91011451758E+02  0.92504097606E+02  0.10570000000E+00 0.  1.
<mgrwt>
<rscale>  0 0.33104907E+02</rscale>
<asrwt>0</asrwt>
<pdfrwt beam="2">  1        1 0.28657195E-01 0.33104907E+02</pdfrwt>
<pdfrwt beam="1">  1       -1 0.22628948E-03 0.33104907E+02</pdfrwt>
<totfact> 0.15194495E+06</totfact>
</mgrwt>
</event>
<event>
 4    1  0.4261729E-001  0.2473422E+02  0.7818608E-02  0.1664849E+00
         -1   -1    0    0    0  501 -0.00000000000E+00  0.00000000000E+00  0.25675895228E+02  0.25675895653E+02  0.46700000000E-02 0. -1.
          1   -1    0    0  501    0  0.00000000000E+00 -0.00000000000E+00 -0.59567686834E+01  0.59567705140E+01  0.46700000000E-02 0.  1.
        -13    1    1    2    0    0  0.11555056341E+02  0.27632642504E+01  0.14248879543E+02  0.18552538832E+02  0.10570000000E+00 0. -1.
         13    1    1    2    0    0 -0.11555056341E+02 -0.27632642504E+01  0.54702470014E+01  0.13080127335E+02  0.10570000000E+00 0.  1.
<mgrwt>
<rscale>  0 0.24734220E+02</rscale>
<asrwt>0</asrwt>
<pdfrwt beam="2">  1        1 0.91642612E-03 0.24734220E+02</pdfrwt>
<pdfrwt beam="1">  1       -1 0.39501379E-02 0.24734220E+02</pdfrwt>
<totfact> 0.22928030E+06</totfact>
</mgrwt>
</event>
<event>
 4    1  0.4261729E-001  0.2525930E+02  0.7818608E-02  0.1657305E+00
         -1   -1    0    0    0  501 -0.00000000000E+00  0.00000000000E+00  0.82649039077E+01  0.82649052271E+01  0.46700000000E-02 0. -1.
          1   -1    0    0  501    0  0.00000000000E+00 -0.00000000000E+00 -0.19299442105E+02  0.19299442670E+02  0.46700000000E-02 0.  1.
        -13    1    1    2    0    0 -0.92991047684E+01 -0.47961554501E+01 -0.13235186496E+02  0.16871804606E+02  0.10570000000E+00 0.  1.
         13    1    1    2    0    0  0.92991047684E+01  0.47961554501E+01  0.22006482990E+01  0.10692543291E+02  0.10570000000E+00 0. -1.
<mgrwt>
<rscale>  0 0.25259300E+02</rscale>
<asrwt>0</asrwt>
<pdfrwt beam="2">  1        1 0.29691451E-02 0.25259300E+02</pdfrwt>
<pdfrwt beam="1">  1       -1 0.12715238E-02 0.25259300E+02</pdfrwt>
<totfact> 0.23213325E+06</totfact>
</mgrwt>
</event>
<event>
 4    1  0.4261729E-001  0.2672243E+02  0.7818608E-02  0.1637427E+00
          1   -1    0    0  501    0  0.00000000000E+00  0.00000000000E+00  0.48662034710E+02  0.48662034934E+02  0.46700000000E-02 0. -1.
         -1   -1    0    0    0  501 -0.00000000000E+00 -0.00000000000E+00 -0.36686104382E+01  0.36686134106E+01  0.46700000000E-02 0.  1.
        -13    1    1    2    0    0  0.86441439551E+01 -0.63079270504E+01  0.68303065444E+01  0.12695488505E+02  0.10570000000E+00 0.  1.
         13    1    1    2    0    0 -0.86441439551E+01  0.63079270504E+01  0.38163117728E+02  0.39635159840E+02  0.10570000000E+00 0. -1.
<mgrwt>
<rscale>  0 0.26722435E+02</rscale>
<asrwt>0</asrwt>
<pdfrwt beam="1">  1        1 0.74864669E-02 0.26722435E+02</pdfrwt>
<pdfrwt beam="2">  1       -1 0.56440187E-03 0.26722435E+02</pdfrwt>
<totfact> 0.21506109E+06</totfact>
</mgrwt>
</event>
<event>
 4    1  0.4261729E-001  0.7434294E+02  0.7818608E-02  0.1345918E+00
         -1   -1    0    0    0  501 -0.00000000000E+00  0.00000000000E+00  0.11034618844E+02  0.11034619832E+02  0.46700000000E-02 0. -1.
          1   -1    0    0  501    0  0.00000000000E+00 -0.00000000000E+00 -0.12521666372E+03  0.12521666381E+03  0.46700000000E-02 0.  1.
        -13    1    1    2    0    0 -0.18433464218E+02 -0.19365324618E+02 -0.10442039907E+03  0.10778886452E+03  0.10570000000E+00 0.  1.
         13    1    1    2    0    0  0.18433464218E+02  0.19365324618E+02 -0.97616458058E+01  0.28462419117E+02  0.10570000000E+00 0. -1.
<mgrwt>
<rscale>  0 0.74342941E+02</rscale>
<asrwt>0</asrwt>
<pdfrwt beam="2">  1        1 0.19264101E-01 0.74342941E+02</pdfrwt>
<pdfrwt beam="1">  1       -1 0.16976338E-02 0.74342941E+02</pdfrwt>
<totfact> 0.18738006E+05</totfact>
</mgrwt>
</event>
<event>
 4    1  0.4261729E-001  0.4398300E+02  0.7818608E-02  0.1480792E+00
         -1   -1    0    0    0  501 -0.00000000000E+00  0.00000000000E+00  0.20427214886E+02  0.20427215419E+02  0.46700000000E-02 0. -1.
          1   -1    0    0  501    0  0.00000000000E+00 -0.00000000000E+00 -0.23675578940E+02  0.23675579400E+02  0.46700000000E-02 0.  1.
        -13    1    1    2    0    0 -0.54293992495E+01  0.15655956526E+02  0.12872982887E+02  0.20983617701E+02  0.10570000000E+00 0. -1.
         13    1    1    2    0    0  0.54293992495E+01 -0.15655956526E+02 -0.16121346941E+02  0.23119177118E+02  0.10570000000E+00 0.  1.
<mgrwt>
<rscale>  0 0.43983004E+02</rscale>
<asrwt>0</asrwt>
<pdfrwt beam="2">  1        1 0.36423968E-02 0.43983004E+02</pdfrwt>
<pdfrwt beam="1">  1       -1 0.31426485E-02 0.43983004E+02</pdfrwt>
<totfact> 0.60583959E+05</totfact>
</mgrwt>
</event>
<event>
 4    1  0.4261729E-001  0.3229077E+02  0.7818608E-02  0.1574065E+00
          1   -1    0    0  501    0  0.00000000000E+00  0.00000000000E+00  0.62079846304E+01  0.62079863869E+01  0.46700000000E-02 0.  1.
         -1   -1    0    0    0  501 -0.00000000000E+00 -0.00000000000E+00 -0.41990019247E+02  0.41990019507E+02  0.46700000000E-02 0. -1.
        -13    1    1    2    0    0  0.74376655779E+01  0.13957069647E+02 -0.22737707984E+02  0.27697169516E+02  0.10570000000E+00 0. -1.
         13    1    1    2    0    0 -0.74376655779E+01 -0.13957069647E+02 -0.13044326633E+02  0.20500836378E+02  0.10570000000E+00 0.  1.
<mgrwt>
<rscale>  0 0.32290769E+02</rscale>
<asrwt>0</asrwt>
<pdfrwt beam="1">  1        1 0.95507474E-03 0.32290769E+02</pdfrwt>
<pdfrwt beam="2">  1       -1 0.64600029E-02 0.32290769E+02</pdfrwt>
<totfact> 0.11915128E+06</totfact>
</mgrwt>
</event>
<event>
 4    1  0.4261729E-001  0.9561277E+02  0.7818608E-02  0.1289802E+00
         -1   -1    0    0    0  501 -0.00000000000E+00  0.00000000000E+00  0.84485727826E+01  0.84485740733E+01  0.46700000000E-02 0.  1.
          1   -1    0    0  501    0  0.00000000000E+00 -0.00000000000E+00 -0.27051314864E+03  0.27051314868E+03  0.46700000000E-02 0. -1.
        -13    1    1    2    0    0 -0.14438484468E+02 -0.45555820894E+02 -0.13476454676E+03  0.14298705147E+03  0.10570000000E+00 0.  1.
         13    1    1    2    0    0  0.14438484468E+02  0.45555820894E+02 -0.12730002909E+03  0.13597467128E+03  0.10570000000E+00 0. -1.
<mgrwt>
<rscale>  0 0.95612765E+02</rscale>
<asrwt>0</asrwt>
<pdfrwt beam="2">  1        1 0.41617401E-01 0.95612765E+02</pdfrwt>
<pdfrwt beam="1">  1       -1 0.12997807E-02 0.95612765E+02</pdfrwt>
<totfact> 0.11059364E+05</totfact>
</mgrwt>
</event>
<event>
 4    1  0.4261729E-001  0.2688145E+02  0.7818608E-02  0.1635361E+00
         -1   -1    0    0    0  501 -0.00000000000E+00  0.00000000000E+00  0.42125941752E+01  0.42125967638E+01  0.46700000000E-02 0. -1.
          1   -1    0    0  501    0  0.00000000000E+00 -0.00000000000E+00 -0.42884023984E+02  0.42884024239E+02  0.46700000000E-02 0.  1.
        -13    1    1    2    0    0 -0.92935313729E+01  0.68581702572E+01 -0.72941957170E+01  0.13660918282E+02  0.10570000000E+00 0. -1.
         13    1    1    2    0    0  0.92935313729E+01 -0.68581702572E+01 -0.31377234092E+02  0.33435702721E+02  0.10570000000E+00 0.  1.
<mgrwt>
<rscale>  0 0.26881448E+02</rscale>
<asrwt>0</asrwt>
<pdfrwt beam="2">  1        1 0.65975421E-02 0.26881448E+02</pdfrwt>
<pdfrwt beam="1">  1       -1 0.64809166E-03 0.26881448E+02</pdfrwt>
<totfact> 0.21014947E+06</totfact>
</mgrwt>
</event>
<event>
 4    1  0.4261729E-001  0.4728761E+02  0.7818608E-02  0.1460546E+00
          1   -1    0    0  501    0  0.00000000000E+00  0.00000000000E+00  0.14893966467E+02  0.14893967199E+02  0.46700000000E-02 0.  1.
         -1   -1    0    0    0  501 -0.00000000000E+00 -0.00000000000E+00 -0.37533952209E+02  0.37533952500E+02  0.46700000000E-02 0. -1.
        -13    1    1    2    0    0  0.40413172418E+01  0.17519011605E+02  0.57039362787E+01  0.18862504452E+02  0.10570000000E+00 0.  1.
         13    1    1    2    0    0 -0.40413172418E+01 -0.17519011605E+02 -0.28343922021E+02  0.33565415246E+02  0.10570000000E+00 0. -1.
<mgrwt>
<rscale>  0 0.47287607E+02</rscale>
<asrwt>0</asrwt>
<pdfrwt beam="1">  1        1 0.22913795E-02 0.47287607E+02</pdfrwt>
<pdfrwt beam="2">  1       -1 0.57744542E-02 0.47287607E+02</pdfrwt>
<totfact> 0.48246334E+05</totfact>
</mgrwt>
</event>
<event>
 4    1  0.4261729E-001  0.4163676E+02  0.7818608E-02  0.1496501E+00
          1   -1    0    0  501    0  0.00000000000E+00  0.00000000000E+00  0.54728332508E+02  0.54728332707E+02  0.46700000000E-02 0. -1.
         -1   -1    0    0    0  501 -0.00000000000E+00 -0.00000000000E+00 -0.79192059321E+01  0.79192073091E+01  0.46700000000E-02 0.  1.
        -13    1    1    2    0    0  0.18688046715E+02  0.11470322131E+00  0.96031981400E+01  0.21011635678E+02  0.10570000000E+00 0. -1.
         13    1    1    2    0    0 -0.18688046715E+02 -0.11470322131E+00  0.37205928436E+02  0.41635904339E+02  0.10570000000E+00 0.  1.
<mgrwt>
<rscale>  0 0.41636762E+02</rscale>
<asrwt>0</asrwt>
<pdfrwt beam="1">  1        1 0.84197438E-02 0.41636762E+02</pdfrwt>
<pdfrwt beam="2">  1       -1 0.12183395E-02 0.41636762E+02</pdfrwt>
<totfact> 0.74593033E+05</totfact>
</mgrwt>
</event>
<event>
 4    1  0.4261729E-001  0.2246413E+02  0.7818608E-02  0.1700347E+00
         -1   -1    0    0    0  501 -0.00000000000E+00  0.00000000000E+00  0.12105547167E+02  0.12105548068E+02  0.46700000000E-02 0.  1.
          1   -1    0    0  501    0  0.00000000000E+00 -0.00000000000E+00 -0.10421605362E+02  0.10421606408E+02  0.46700000000E-02 0. -1.
        -13    1    1    2    0    0  0.28531378289E+01 -0.10194281875E+02 -0.29214648848E+01  0.10982254230E+02  0.10570000000E+00 0. -1.
         13    1    1    2    0    0 -0.28531378289E+01  0.10194281875E+02  0.46054066900E+01  0.11544900246E+02  0.10570000000E+00 0.  1.
<mgrwt>
<rscale>  0 0.22464128E+02</rscale>
<asrwt>0</asrwt>
<pdfrwt beam="2">  1        1 0.16033241E-02 0.22464128E+02</pdfrwt>
<pdfrwt beam="1">  1       -1 0.18623920E-02 0.22464128E+02</pdfrwt>
<totfact> 0.29640885E+06</totfact>
</mgrwt>
</event>
<event>
 4    1  0.4261729E-001  0.2398920E+02  0.7818608E-02  0.1675960E+00
          1   -1    0    0  501    0  0.00000000000E+00  0.00000000000E+00  0.11257265609E+02  0.11257266578E+02  0.46700000000E-02 0. -1.
         -1   -1    0    0    0  501 -0.00000000000E+00 -0.00000000000E+00 -0.12780231047E+02  0.12780231901E+02  0.46700000000E-02 0.  1.
        -13    1    1    2    0    0  0.96953356163E+01  0.37485530492E+01  0.52345529149E+01  0.11638853010E+02  0.10570000000E+00 0. -1.
         13    1    1    2    0    0 -0.96953356163E+01 -0.37485530492E+01 -0.67575183531E+01  0.12398645469E+02  0.10570000000E+00 0.  1.
<mgrwt>
<rscale>  0 0.23989204E+02</rscale>
<asrwt>0</asrwt>
<pdfrwt beam="1">  1        1 0.17318872E-02 0.23989204E+02</pdfrwt>
<pdfrwt beam="2">  1       -1 0.19661895E-02 0.23989204E+02</pdfrwt>
<totfact> 0.25529268E+06</totfact>
</mgrwt>
</event>
<event>
 4    1  0.4261729E-001  0.3463463E+02  0.7818608E-02  0.1551869E+00
         -1   -1    0    0    0  501 -0.00000000000E+00  0.00000000000E+00  0.18113420521E+02  0.18113421123E+02  0.46700000000E-02 0.  1.
          1   -1    0    0  501    0  0.00000000000E+00 -0.00000000000E+00 -0.16556193551E+02  0.16556194210E+02  0.46700000000E-02 0. -1.
        -13    1    1    2    0    0 -0.32372956692E+01  0.16865448668E+02  0.30067785370E+01  0.17434888347E+02  0.10570000000E+00 0. -1.
         13    1    1    2    0    0  0.32372956692E+01 -0.16865448668E+02 -0.14495515670E+01  0.17234726985E+02  0.10570000000E+00 0.  1.
<mgrwt>
<rscale>  0 0.34634625E+02</rscale>
<asrwt>0</asrwt>
<pdfrwt beam="2">  1        1 0.25471068E-02 0.34634625E+02</pdfrwt>
<pdfrwt beam="1">  1       -1 0.27866801E-02 0.34634625E+02</pdfrwt>
<totfact> 0.10766264E+06</totfact>
</mgrwt>
</event>
<event>
 4    1  0.4261729E-001  0.2371518E+02  0.7818608E-02  0.1680173E+00
         -1   -1    0    0    0  501 -0.00000000000E+00  0.00000000000E+00  0.27398784492E+01  0.27398824291E+01  0.46700000000E-02 0. -1.
          1   -1    0    0  501    0  0.00000000000E+00 -0.00000000000E+00 -0.51316982321E+02  0.51316982534E+02  0.46700000000E-02 0.  1.
        -13    1    1    2    0    0  0.10451860247E+02  0.11197780106E+01 -0.36793402466E+02  0.38265662453E+02  0.10570000000E+00 0.  1.
         13    1    1    2    0    0 -0.10451860247E+02 -0.11197780106E+01 -0.11783701406E+02  0.15791202510E+02  0.10570000000E+00 0. -1.
<mgrwt>
<rscale>  0 0.23715177E+02</rscale>
<asrwt>0</asrwt>
<pdfrwt beam="2">  1        1 0.78949200E-02 0.23715177E+02</pdfrwt>
<pdfrwt beam="1">  1       -1 0.42152012E-03 0.23715177E+02</pdfrwt>
<totfact> 0.28454626E+06</totfact>
</mgrwt>
</event>
<event>
 4    1  0.4261729E-001  0.2168927E+02  0.7818608E-02  0.1713682E+00
          1   -1    0    0  501    0  0.00000000000E+00  0.00000000000E+00  0.97695409208E+01  0.97695420370E+01  0.46700000000E-02 0.  1.
         -1   -1    0    0    0  501 -0.00000000000E+00 -0.00000000000E+00 -0.12038035263E+02  0.12038036169E+02  0.46700000000E-02 0. -1.
        -13    1    1    2    0    0  0.75441735704E+01 -0.74391496388E+01 -0.34575711918E+01  0.11145468732E+02  0.10570000000E+00 0. -1.
         13    1    1    2    0    0 -0.75441735704E+01  0.74391496388E+01  0.11890768492E+01  0.10662109475E+02  0.10570000000E+00 0.  1.
<mgrwt>
<rscale>  0 0.21689269E+02</rscale>
<asrwt>0</asrwt>
<pdfrwt beam="1">  1        1 0.15030064E-02 0.21689269E+02</pdfrwt>
<pdfrwt beam="2">  1       -1 0.18520056E-02 0.21689269E+02</pdfrwt>
<totfact> 0.32053249E+06</totfact>
</mgrwt>
</event>
<event>
 4    1  0.4261729E-001  0.5250685E+02  0.7818608E-02  0.1432271E+00
          1   -1    0    0  501    0  0.00000000000E+00  0.00000000000E+00  0.69300343615E+02  0.69300343773E+02  0.46700000000E-02 0. -1.
         -1   -1    0    0    0  501 -0.00000000000E+00 -0.00000000000E+00 -0.99457281064E+01  0.99457292028E+01  0.46700000000E-02 0.  1.
        -13    1    1    2    0    0 -0.12949050052E+02  0.13404121737E+02  0.57583490098E+02  0.60524522973E+02  0.10570000000E+00 0. -1.
         13    1    1    2    0    0  0.12949050052E+02 -0.13404121737E+02  0.17711254111E+01  0.18721550002E+02  0.10570000000E+00 0.  1.
<mgrwt>
<rscale>  0 0.52506854E+02</rscale>
<asrwt>0</asrwt>
<pdfrwt beam="1">  1        1 0.10661592E-01 0.52506854E+02</pdfrwt>
<pdfrwt beam="2">  1       -1 0.15301121E-02 0.52506854E+02</pdfrwt>
<totfact> 0.42610605E+05</totfact>
</mgrwt>
</event>
<event>
 4    1  0.4261729E-001  0.3365037E+02  0.7818608E-02  0.1560923E+00
         -1   -1    0    0    0  501 -0.00000000000E+00  0.00000000000E+00  0.77676139994E+02  0.77676140135E+02  0.46700000000E-02 0.  1.
          1   -1    0    0  501    0  0.00000000000E+00 -0.00000000000E+00 -0.36444479479E+01  0.36444509400E+01  0.46700000000E-02 0. -1.
        -13    1    1    2    0    0 -0.45484762716E+00  0.15923389536E+02  0.50100164902E+02  0.52571845282E+02  0.10570000000E+00 0. -1.
         13    1    1    2    0    0  0.45484762716E+00 -0.15923389536E+02  0.23931527145E+02  0.28748745793E+02  0.10570000000E+00 0.  1.
<mgrwt>
<rscale>  0 0.33650366E+02</rscale>
<asrwt>0</asrwt>
<pdfrwt beam="2">  1        1 0.56068455E-03 0.33650366E+02</pdfrwt>
<pdfrwt beam="1">  1       -1 0.11950175E-01 0.33650366E+02</pdfrwt>
<totfact> 0.10089443E+06</totfact>
</mgrwt>
</event>
<event>
 4    1  0.4261729E-001  0.2458737E+02  0.7818608E-02  0.1667000E+00
         -1   -1    0    0    0  501 -0.00000000000E+00  0.00000000000E+00  0.36732501155E+02  0.36732501452E+02  0.46700000000E-02 0. -1.
          1   -1    0    0  501    0  0.00000000000E+00 -0.00000000000E+00 -0.41144662926E+01  0.41144689429E+01  0.46700000000E-02 0.  1.
        -13    1    1    2    0    0  0.10168935292E+02  0.50533240567E+01  0.24133046561E+02  0.26671303639E+02  0.10570000000E+00 0. -1.
         13    1    1    2    0    0 -0.10168935292E+02 -0.50533240567E+01  0.84849883013E+01  0.14175666756E+02  0.10570000000E+00 0.  1.
<mgrwt>
<rscale>  0 0.24587371E+02</rscale>
<asrwt>0</asrwt>
<pdfrwt beam="2">  1        1 0.63299505E-03 0.24587371E+02</pdfrwt>
<pdfrwt beam="1">  1       -1 0.56511542E-02 0.24587371E+02</pdfrwt>
<totfact> 0.22639054E+06</totfact>
</mgrwt>
</event>
<event>
 4    1  0.4261729E-001  0.3663873E+02  0.7818608E-02  0.1534512E+00
          1   -1    0    0  501    0  0.00000000000E+00  0.00000000000E+00  0.90909148442E+01  0.90909160437E+01  0.46700000000E-02 0. -1.
         -1   -1    0    0    0  501 -0.00000000000E+00 -0.00000000000E+00 -0.36915875116E+02  0.36915875412E+02  0.46700000000E-02 0.  1.
        -13    1    1    2    0    0  0.80976160251E+01  0.15274756382E+02 -0.21519331737E+02  0.27604028306E+02  0.10570000000E+00 0.  1.
         13    1    1    2    0    0 -0.80976160251E+01 -0.15274756382E+02 -0.63056285354E+01  0.18402763150E+02  0.10570000000E+00 0. -1.
<mgrwt>
<rscale>  0 0.36638729E+02</rscale>
<asrwt>0</asrwt>
<pdfrwt beam="1">  1        1 0.13986024E-02 0.36638729E+02</pdfrwt>
<pdfrwt beam="2">  1       -1 0.56793655E-02 0.36638729E+02</pdfrwt>
<totfact> 0.89379223E+05</totfact>
</mgrwt>
</event>
<event>
 4    1  0.4261729E-001  0.2307944E+02  0.7818608E-02  0.1690226E+00
          1   -1    0    0  501    0  0.00000000000E+00  0.00000000000E+00  0.30702980708E+01  0.30703016224E+01  0.46700000000E-02 0. -1.
         -1   -1    0    0    0  501 -0.00000000000E+00 -0.00000000000E+00 -0.43372014427E+02  0.43372014679E+02  0.46700000000E-02 0.  1.
        -13    1    1    2    0    0  0.65502673157E+00  0.11502643968E+02 -0.18856021655E+02  0.22097524826E+02  0.10570000000E+00 0. -1.
         13    1    1    2    0    0 -0.65502673157E+00 -0.11502643968E+02 -0.21445694701E+02  0.24344791475E+02  0.10570000000E+00 0.  1.
<mgrwt>
<rscale>  0 0.23079437E+02</rscale>
<asrwt>0</asrwt>
<pdfrwt beam="1">  1        1 0.47235387E-03 0.23079437E+02</pdfrwt>
<pdfrwt beam="2">  1       -1 0.66726175E-02 0.23079437E+02</pdfrwt>
<totfact> 0.25746516E+06</totfact>
</mgrwt>
</event>
<event>
 4    1  0.4261729E-001  0.5480865E+02  0.7818608E-02  0.1421006E+00
         -1   -1    0    0    0  501 -0.00000000000E+00  0.00000000000E+00  0.14257707910E+02  0.14257708675E+02  0.46700000000E-02 0.  1.
          1   -1    0    0  501    0  0.00000000000E+00 -0.00000000000E+00 -0.52673049377E+02  0.52673049584E+02  0.46700000000E-02 0. -1.
        -13    1    1    2    0    0  0.24547918460E-01 -0.15667543231E+02 -0.46664029784E+02  0.49224133936E+02  0.10570000000E+00 0. -1.
         13    1    1    2    0    0 -0.24547918460E-01  0.15667543231E+02  0.82486883168E+01  0.17706624324E+02  0.10570000000E+00 0.  1.
<mgrwt>
<rscale>  0 0.54808648E+02</rscale>
<asrwt>0</asrwt>
<pdfrwt beam="2">  1        1 0.81035461E-02 0.54808648E+02</pdfrwt>
<pdfrwt beam="1">  1       -1 0.21934936E-02 0.54808648E+02</pdfrwt>
<totfact> 0.37021960E+05</totfact>
</mgrwt>
</event>
<event>
 4    1  0.4261729E-001  0.2631805E+02  0.7818608E-02  0.1642761E+00
          1   -1    0    0  501    0  0.00000000000E+00  0.00000000000E+00  0.45110217864E+01  0.45110242037E+01  0.46700000000E-02 0. -1.
         -1   -1    0    0    0  501 -0.00000000000E+00 -0.00000000000E+00 -0.38385960578E+02  0.38385960862E+02  0.46700000000E-02 0.  1.
        -13    1    1    2    0    0 -0.13051145844E+01 -0.12608419946E+02 -0.22694018183E+02  0.25994330370E+02  0.10570000000E+00 0.  1.
         13    1    1    2    0    0  0.13051145844E+01  0.12608419946E+02 -0.11180920609E+02  0.16902654696E+02  0.10570000000E+00 0. -1.
<mgrwt>
<rscale>  0 0.26318052E+02</rscale>
<asrwt>0</asrwt>
<pdfrwt beam="1">  1        1 0.69400359E-03 0.26318052E+02</pdfrwt>
<pdfrwt beam="2">  1       -1 0.59055324E-02 0.26318052E+02</pdfrwt>
<totfact> 0.19311886E+06</totfact>
</mgrwt>
</event>
<event>
 4    1  0.4261729E-001  0.3775215E+02  0.7818608E-02  0.1525436E+00
          1   -1    0    0  501    0  0.00000000000E+00  0.00000000000E+00  0.61459675102E+02  0.61459675280E+02  0.46700000000E-02 0.  1.
         -1   -1    0    0    0  501 -0.00000000000E+00 -0.00000000000E+00 -0.57973956109E+01  0.57973974918E+01  0.46700000000E-02 0. -1.
        -13    1    1    2    0    0 -0.80887725701E+01  0.15147356742E+02  0.41793742932E+02  0.45184054474E+02  0.10570000000E+00 0.  1.
         13    1    1    2    0    0  0.80887725701E+01 -0.15147356742E+02  0.13868536560E+02  0.22073018297E+02  0.10570000000E+00 0. -1.
<mgrwt>
<rscale>  0 0.37752145E+02</rscale>
<asrwt>0</asrwt>
<pdfrwt beam="1">  1        1 0.94553346E-02 0.37752145E+02</pdfrwt>
<pdfrwt beam="2">  1       -1 0.89190719E-03 0.37752145E+02</pdfrwt>
<totfact> 0.96029638E+05</totfact>
</mgrwt>
</event>
<event>
 4    1  0.4261729E-001  0.2307940E+02  0.7818608E-02  0.1690226E+00
         -1   -1    0    0    0  501 -0.00000000000E+00  0.00000000000E+00  0.94681511237E+01  0.94681522754E+01  0.46700000000E-02 0. -1.
          1   -1    0    0  501    0  0.00000000000E+00 -0.00000000000E+00 -0.14064482875E+02  0.14064483650E+02  0.46700000000E-02 0.  1.
        -13    1    1    2    0    0 -0.10509457266E+02 -0.51456626064E+00 -0.71282842669E+01  0.12709723818E+02  0.10570000000E+00 0.  1.
         13    1    1    2    0    0  0.10509457266E+02  0.51456626064E+00  0.25319525158E+01  0.10822912107E+02  0.10570000000E+00 0. -1.
<mgrwt>
<rscale>  0 0.23079400E+02</rscale>
<asrwt>0</asrwt>
<pdfrwt beam="2">  1        1 0.21637667E-02 0.23079400E+02</pdfrwt>
<pdfrwt beam="1">  1       -1 0.14566388E-02 0.23079400E+02</pdfrwt>
<totfact> 0.28218299E+06</totfact>
</mgrwt>
</event>
<event>
 4    1  0.4261729E-001  0.2886495E+02  0.7818608E-02  0.1610985E+00
         -1   -1    0    0    0  501 -0.00000000000E+00  0.00000000000E+00  0.90133237540E+01  0.90133249639E+01  0.46700000000E-02 0.  1.
          1   -1    0    0  501    0  0.00000000000E+00 -0.00000000000E+00 -0.23109817819E+02  0.23109818291E+02  0.46700000000E-02 0. -1.
        -13    1    1    2    0    0 -0.56688265111E+01 -0.12154400029E+02 -0.12981050902E+02  0.18665044578E+02  0.10570000000E+00 0. -1.
         13    1    1    2    0    0  0.56688265111E+01  0.12154400029E+02 -0.11154431628E+01  0.13458098677E+02  0.10570000000E+00 0.  1.
<mgrwt>
<rscale>  0 0.28864947E+02</rscale>
<asrwt>0</asrwt>
<pdfrwt beam="2">  1        1 0.35553567E-02 0.28864947E+02</pdfrwt>
<pdfrwt beam="1">  1       -1 0.13866653E-02 0.28864947E+02</pdfrwt>
<totfact> 0.17099488E+06</totfact>
</mgrwt>
</event>
<event>
 4    1  0.4261729E-001  0.2336304E+02  0.7818608E-02  0.1685692E+00
          1   -1    0    0  501    0  0.00000000000E+00  0.00000000000E+00  0.14282388113E+01  0.14282464462E+01  0.46700000000E-02 0. -1.
         -1   -1    0    0    0  501 -0.00000000000E+00 -0.00000000000E+00 -0.95542495920E+02  0.95542496034E+02  0.46700000000E-02 0.  1.
        -13    1    1    2    0    0  0.20536570571E+01  0.11490313152E+02 -0.48922133480E+02  0.50295438366E+02  0.10570000000E+00 0.  1.
         13    1    1    2    0    0 -0.20536570571E+01 -0.11490313152E+02 -0.45192123628E+02  0.46675304114E+02  0.10570000000E+00 0. -1.
<mgrwt>
<rscale>  0 0.23363037E+02</rscale>
<asrwt>0</asrwt>
<pdfrwt beam="1">  1        1 0.21972972E-03 0.23363037E+02</pdfrwt>
<pdfrwt beam="2">  1       -1 0.14698841E-01 0.23363037E+02</pdfrwt>
<totfact> 0.22738733E+06</totfact>
</mgrwt>
</event>
<event>
 4    1  0.4261729E-001  0.3897835E+02  0.7818608E-02  0.1515867E+00
         -1   -1    0    0    0  501 -0.00000000000E+00  0.00000000000E+00  0.72531507749E+01  0.72531522783E+01  0.46700000000E-02 0.  1.
          1   -1    0    0  501    0  0.00000000000E+00 -0.00000000000E+00 -0.52367288330E+02  0.52367288538E+02  0.46700000000E-02 0. -1.
        -13    1    1    2    0    0  0.18399022409E+02 -0.11555657656E+01 -0.32225814701E+02  0.37126455035E+02  0.10570000000E+00 0. -1.
         13    1    1    2    0    0 -0.18399022409E+02  0.11555657656E+01 -0.12888322854E+02  0.22493985781E+02  0.10570000000E+00 0.  1.
<mgrwt>
<rscale>  0 0.38978347E+02</rscale>
<asrwt>0</asrwt>
<pdfrwt beam="2">  1        1 0.80565058E-02 0.38978347E+02</pdfrwt>
<pdfrwt beam="1">  1       -1 0.11158695E-02 0.38978347E+02</pdfrwt>
<totfact> 0.87461653E+05</totfact>
</mgrwt>
</event>
<event>
 4    1  0.4261729E-001  0.7805282E+02  0.7818608E-02  0.1334670E+00
         -1   -1    0    0    0  501 -0.00000000000E+00  0.00000000000E+00  0.25655966356E+02  0.25655966781E+02  0.46700000000E-02 0.  1.
          1   -1    0    0  501    0  0.00000000000E+00 -0.00000000000E+00 -0.59364773106E+02  0.59364773289E+02  0.46700000000E-02 0. -1.
        -13    1    1    2    0    0 -0.12505173109E+02  0.20225154903E+02  0.16853470129E+02  0.29145958094E+02  0.10570000000E+00 0.  1.
         13    1    1    2    0    0  0.12505173109E+02 -0.20225154903E+02 -0.50562276878E+02  0.55874781977E+02  0.10570000000E+00 0. -1.
<mgrwt>
<rscale>  0 0.78052819E+02</rscale>
<asrwt>0</asrwt>
<pdfrwt beam="2">  1        1 0.91330420E-02 0.78052819E+02</pdfrwt>
<pdfrwt beam="1">  1       -1 0.39470718E-02 0.78052819E+02</pdfrwt>
<totfact> 0.14733834E+05</totfact>
</mgrwt>
</event>
<event>
 4    1  0.4261729E-001  0.2605585E+02  0.7818608E-02  0.1646284E+00
          1   -1    0    0  501    0  0.00000000000E+00  0.00000000000E+00  0.86660977735E+01  0.86660990318E+01  0.46700000000E-02 0.  1.
         -1   -1    0    0    0  501 -0.00000000000E+00 -0.00000000000E+00 -0.19585150873E+02  0.19585151430E+02  0.46700000000E-02 0. -1.
        -13    1    1    2    0    0 -0.66333492446E+01  0.11207740599E+02 -0.51150909193E+01  0.13992501533E+02  0.10570000000E+00 0.  1.
         13    1    1    2    0    0  0.66333492446E+01 -0.11207740599E+02 -0.58039621807E+01  0.14258748929E+02  0.10570000000E+00 0. -1.
<mgrwt>
<rscale>  0 0.26055852E+02</rscale>
<asrwt>0</asrwt>
<pdfrwt beam="1">  1        1 0.13332460E-02 0.26055852E+02</pdfrwt>
<pdfrwt beam="2">  1       -1 0.30131002E-02 0.26055852E+02</pdfrwt>
<totfact> 0.20705791E+06</totfact>
</mgrwt>
</event>
<event>
 4    1  0.4261729E-001  0.2570762E+02  0.7818608E-02  0.1651041E+00
          1   -1    0    0  501    0  0.00000000000E+00  0.00000000000E+00  0.71181171129E+01  0.71181186449E+01  0.46700000000E-02 0. -1.
         -1   -1    0    0    0  501 -0.00000000000E+00 -0.00000000000E+00 -0.23211253240E+02  0.23211253710E+02  0.46700000000E-02 0.  1.
        -13    1    1    2    0    0 -0.49699697518E+01 -0.90742323699E+01  0.95130375725E+00  0.10390305278E+02  0.10570000000E+00 0. -1.
         13    1    1    2    0    0  0.49699697518E+01  0.90742323699E+01 -0.17044439884E+02  0.19939067077E+02  0.10570000000E+00 0.  1.
<mgrwt>
<rscale>  0 0.25707621E+02</rscale>
<asrwt>0</asrwt>
<pdfrwt beam="1">  1        1 0.10950951E-02 0.25707621E+02</pdfrwt>
<pdfrwt beam="2">  1       -1 0.35709622E-02 0.25707621E+02</pdfrwt>
<totfact> 0.21134832E+06</totfact>
</mgrwt>
</event>
<event>
 4    1  0.4261729E-001  0.3857465E+02  0.7818608E-02  0.1518970E+00
         -1   -1    0    0    0  501 -0.00000000000E+00  0.00000000000E+00  0.80878707772E+01  0.80878721255E+01  0.46700000000E-02 0. -1.
          1   -1    0    0  501    0  0.00000000000E+00 -0.00000000000E+00 -0.45994909050E+02  0.45994909287E+02  0.46700000000E-02 0.  1.
        -13    1    1    2    0    0  0.16393755596E+02 -0.90244162728E+00 -0.47645883390E+01  0.17096259766E+02  0.10570000000E+00 0. -1.
         13    1    1    2    0    0 -0.16393755596E+02  0.90244162728E+00 -0.33142449934E+02  0.36986521647E+02  0.10570000000E+00 0.  1.
<mgrwt>
<rscale>  0 0.38574651E+02</rscale>
<asrwt>0</asrwt>
<pdfrwt beam="2">  1        1 0.70761398E-02 0.38574651E+02</pdfrwt>
<pdfrwt beam="1">  1       -1 0.12442880E-02 0.38574651E+02</pdfrwt>
<totfact> 0.88725848E+05</totfact>
</mgrwt>
</event>
<event>
 4    1  0.4261729E-001  0.2370743E+02  0.7818608E-02  0.1680293E+00
          1   -1    0    0  501    0  0.00000000000E+00  0.00000000000E+00  0.54862903700E+02  0.54862903899E+02  0.46700000000E-02 0. -1.
         -1   -1    0    0    0  501 -0.00000000000E+00 -0.00000000000E+00 -0.25611191205E+01  0.25611233782E+01  0.46700000000E-02 0.  1.
        -13    1    1    2    0    0 -0.90050659600E+01  0.51126439340E+01  0.40121951876E+02  0.41436849974E+02  0.10570000000E+00 0. -1.
         13    1    1    2    0    0  0.90050659600E+01 -0.51126439340E+01  0.12179832703E+02  0.15987177303E+02  0.10570000000E+00 0.  1.
<mgrwt>
<rscale>  0 0.23707430E+02</rscale>
<asrwt>0</asrwt>
<pdfrwt beam="1">  1        1 0.84404466E-02 0.23707430E+02</pdfrwt>
<pdfrwt beam="2">  1       -1 0.39401869E-03 0.23707430E+02</pdfrwt>
<totfact> 0.28622965E+06</totfact>
</mgrwt>
</event>
<event>
 4    1  0.4261729E-001  0.4352940E+02  0.7818608E-02  0.1483737E+00
         -1   -1    0    0    0  501 -0.00000000000E+00  0.00000000000E+00  0.98608029818E+02  0.98608029928E+02  0.46700000000E-02 0. -1.
          1   -1    0    0  501    0  0.00000000000E+00 -0.00000000000E+00 -0.48038887987E+01  0.48038910686E+01  0.46700000000E-02 0.  1.
        -13    1    1    2    0    0  0.81749933895E+01  0.15465203456E+02  0.16138351485E+02  0.23800432685E+02  0.10570000000E+00 0.  1.
         13    1    1    2    0    0 -0.81749933895E+01 -0.15465203456E+02  0.77665789534E+02  0.79611488312E+02  0.10570000000E+00 0. -1.
<mgrwt>
<rscale>  0 0.43529398E+02</rscale>
<asrwt>0</asrwt>
<pdfrwt beam="2">  1        1 0.73906002E-03 0.43529398E+02</pdfrwt>
<pdfrwt beam="1">  1       -1 0.15170466E-01 0.43529398E+02</pdfrwt>
<totfact> 0.52437219E+05</totfact>
</mgrwt>
</event>
<event>
 4    1  0.4261729E-001  0.2042326E+02  0.7818608E-02  0.1737040E+00
          1   -1    0    0  501    0  0.00000000000E+00  0.00000000000E+00  0.11283228452E+01  0.11283325094E+01  0.46700000000E-02 0.  1.
         -1   -1    0    0    0  501 -0.00000000000E+00 -0.00000000000E+00 -0.92417673750E+02  0.92417673868E+02  0.46700000000E-02 0. -1.
        -13    1    1    2    0    0  0.95168598656E+01  0.37006843560E+01 -0.45754149220E+02  0.46879836068E+02  0.10570000000E+00 0. -1.
         13    1    1    2    0    0 -0.95168598656E+01 -0.37006843560E+01 -0.45535201685E+02  0.46666170310E+02  0.10570000000E+00 0.  1.
<mgrwt>
<rscale>  0 0.20423264E+02</rscale>
<asrwt>0</asrwt>
<pdfrwt beam="1">  1        1 0.17358896E-03 0.20423264E+02</pdfrwt>
<pdfrwt beam="2">  1       -1 0.14218098E-01 0.20423264E+02</pdfrwt>
<totfact> 0.30831307E+06</totfact>
</mgrwt>
</event>
<event>
 4    1  0.4261729E-001  0.2461364E+02  0.7818608E-02  0.1666614E+00
         -1   -1    0    0    0  501 -0.00000000000E+00  0.00000000000E+00  0.17662122451E+02  0.17662123068E+02  0.46700000000E-02 0.  1.
          1   -1    0    0  501    0  0.00000000000E+00 -0.00000000000E+00 -0.85752900422E+01  0.85752913138E+01  0.46700000000E-02 0. -1.
        -13    1    1    2    0    0  0.10211862277E+01 -0.11097867694E+02 -0.10202127344E+01  0.11191849498E+02  0.10570000000E+00 0. -1.
         13    1    1    2    0    0 -0.10211862277E+01  0.11097867694E+02  0.10107045143E+02  0.15045564884E+02  0.10570000000E+00 0.  1.
<mgrwt>
<rscale>  0 0.24613642E+02</rscale>
<asrwt>0</asrwt>
<pdfrwt beam="2">  1        1 0.13192755E-02 0.24613642E+02</pdfrwt>
<pdfrwt beam="1">  1       -1 0.27172497E-02 0.24613642E+02</pdfrwt>
<totfact> 0.23702884E+06</totfact>
</mgrwt>
</event>
<event>
 4    1  0.4261729E-001  0.4109335E+02  0.7818608E-02  0.1500316E+00
          1   -1    0    0  501    0  0.00000000000E+00  0.00000000000E+00  0.67845287656E+02  0.67845287817E+02  0.46700000000E-02 0. -1.
         -1   -1    0    0    0  501 -0.00000000000E+00 -0.00000000000E+00 -0.62224781295E+01  0.62224798820E+01  0.46700000000E-02 0.  1.
        -13    1    1    2    0    0  0.15195612714E+02 -0.46426938665E+01  0.54290980703E+02  0.56568392325E+02  0.10570000000E+00 0. -1.
         13    1    1    2    0    0 -0.15195612714E+02  0.46426938665E+01  0.73318288237E+01  0.17499375374E+02  0.10570000000E+00 0.  1.
<mgrwt>
<rscale>  0 0.41093352E+02</rscale>
<asrwt>0</asrwt>
<pdfrwt beam="1">  1        1 0.10437737E-01 0.41093352E+02</pdfrwt>
<pdfrwt beam="2">  1       -1 0.95730448E-03 0.41093352E+02</pdfrwt>
<totfact> 0.78723670E+05</totfact>
</mgrwt>
</event>
<event>
 4    1  0.4261729E-001  0.4289342E+02  0.7818608E-02  0.1487938E+00
          1   -1    0    0  501    0  0.00000000000E+00  0.00000000000E+00  0.15130499351E+02  0.15130500071E+02  0.46700000000E-02 0. -1.
         -1   -1    0    0    0  501 -0.00000000000E+00 -0.00000000000E+00 -0.30399611691E+02  0.30399612050E+02  0.46700000000E-02 0.  1.
        -13    1    1    2    0    0  0.97059370907E+01 -0.11627002090E+02  0.84829535276E+01  0.17359840594E+02  0.10570000000E+00 0. -1.
         13    1    1    2    0    0 -0.97059370907E+01  0.11627002090E+02 -0.23752065868E+02  0.28170271527E+02  0.10570000000E+00 0.  1.
<mgrwt>
<rscale>  0 0.42893418E+02</rscale>
<asrwt>0</asrwt>
<pdfrwt beam="1">  1        1 0.23277692E-02 0.42893418E+02</pdfrwt>
<pdfrwt beam="2">  1       -1 0.46768634E-02 0.42893418E+02</pdfrwt>
<totfact> 0.62293230E+05</totfact>
</mgrwt>
</event>
<event>
 4    1  0.4261729E-001  0.6662746E+02  0.7818608E-02  0.1371952E+00
          1   -1    0    0  501    0  0.00000000000E+00  0.00000000000E+00  0.20609625248E+03  0.20609625254E+03  0.46700000000E-02 0. -1.
         -1   -1    0    0    0  501 -0.00000000000E+00 -0.00000000000E+00 -0.53848846445E+01  0.53848866695E+01  0.46700000000E-02 0.  1.
        -13    1    1    2    0    0 -0.28964409381E+02  0.12867653424E+02  0.67787656870E+02  0.74831083861E+02  0.10570000000E+00 0. -1.
         13    1    1    2    0    0  0.28964409381E+02 -0.12867653424E+02  0.13292371097E+03  0.13665005535E+03  0.10570000000E+00 0.  1.
<mgrwt>
<rscale>  0 0.66627465E+02</rscale>
<asrwt>0</asrwt>
<pdfrwt beam="1">  1        1 0.31707112E-01 0.66627465E+02</pdfrwt>
<pdfrwt beam="2">  1       -1 0.82844405E-03 0.66627465E+02</pdfrwt>
<totfact> 0.27205406E+05</totfact>
</mgrwt>
</event>
<event>
 4    1  0.4261729E-001  0.8509953E+02  0.7818608E-02  0.1315172E+00
          1   -1    0    0  501    0  0.00000000000E+00  0.00000000000E+00  0.11223424076E+03  0.11223424085E+03  0.46700000000E-02 0.  1.
         -1   -1    0    0    0  501 -0.00000000000E+00 -0.00000000000E+00 -0.16131284488E+02  0.16131285164E+02  0.46700000000E-02 0. -1.
        -13    1    1    2    0    0  0.61349864265E+01 -0.27592776469E+02  0.96024620635E+02  0.10009864291E+03  0.10570000000E+00 0.  1.
         13    1    1    2    0    0 -0.61349864265E+01  0.27592776469E+02  0.78335634407E-01  0.28266883109E+02  0.10570000000E+00 0. -1.
<mgrwt>
<rscale>  0 0.85099530E+02</rscale>
<asrwt>0</asrwt>
<pdfrwt beam="1">  1        1 0.17266807E-01 0.85099530E+02</pdfrwt>
<pdfrwt beam="2">  1       -1 0.24817361E-02 0.85099530E+02</pdfrwt>
<totfact> 0.12833601E+05</totfact>
</mgrwt>
</event>
<event>
 4    1  0.4261729E-001  0.3135942E+02  0.7818608E-02  0.1583531E+00
          1   -1    0    0  501    0  0.00000000000E+00  0.00000000000E+00  0.35628214943E+01  0.35628245550E+01  0.46700000000E-02 0. -1.
         -1   -1    0    0    0  501 -0.00000000000E+00 -0.00000000000E+00 -0.69005191980E+02  0.69005192138E+02  0.46700000000E-02 0.  1.
        -13    1    1    2    0    0  0.53941928968E+01  0.12671933617E+02 -0.15378454041E+02  0.20644205962E+02  0.10570000000E+00 0. -1.
         13    1    1    2    0    0 -0.53941928968E+01 -0.12671933617E+02 -0.50063916445E+02  0.51923810732E+02  0.10570000000E+00 0.  1.
<mgrwt>
<rscale>  0 0.31359420E+02</rscale>
<asrwt>0</asrwt>
<pdfrwt beam="1">  1        1 0.54812668E-03 0.31359420E+02</pdfrwt>
<pdfrwt beam="2">  1       -1 0.10616183E-01 0.31359420E+02</pdfrwt>
<totfact> 0.12100661E+06</totfact>
</mgrwt>
</event>
<event>
 4    1  0.4261729E-001  0.2430931E+02  0.7818608E-02  0.1671125E+00
         -1   -1    0    0    0  501 -0.00000000000E+00  0.00000000000E+00  0.46257168923E+02  0.46257169159E+02  0.46700000000E-02 0.  1.
          1   -1    0    0  501    0  0.00000000000E+00 -0.00000000000E+00 -0.31937882427E+01  0.31937916569E+01  0.46700000000E-02 0. -1.
        -13    1    1    2    0    0  0.11370266907E+02 -0.92100735525E+00  0.30064177162E+02  0.32155825988E+02  0.10570000000E+00 0.  1.
         13    1    1    2    0    0 -0.11370266907E+02  0.92100735525E+00  0.12999203519E+02  0.17295134827E+02  0.10570000000E+00 0. -1.
<mgrwt>
<rscale>  0 0.24309314E+02</rscale>
<asrwt>0</asrwt>
<pdfrwt beam="2">  1        1 0.49135234E-03 0.24309314E+02</pdfrwt>
<pdfrwt beam="1">  1       -1 0.71164876E-02 0.24309314E+02</pdfrwt>
<totfact> 0.22761739E+06</totfact>
</mgrwt>
</event>
<event>
 4    1  0.4261729E-001  0.3793124E+02  0.7818608E-02  0.1524012E+00
         -1   -1    0    0    0  501 -0.00000000000E+00  0.00000000000E+00  0.27813825306E+02  0.27813825698E+02  0.46700000000E-02 0. -1.
          1   -1    0    0  501    0  0.00000000000E+00 -0.00000000000E+00 -0.12932227569E+02  0.12932228412E+02  0.46700000000E-02 0.  1.
        -13    1    1    2    0    0 -0.90630491158E+01 -0.15875442806E+02  0.12866883171E+02  0.22354784691E+02  0.10570000000E+00 0. -1.
         13    1    1    2    0    0  0.90630491158E+01  0.15875442806E+02  0.20147145661E+01  0.18391269419E+02  0.10570000000E+00 0.  1.
<mgrwt>
<rscale>  0 0.37931240E+02</rscale>
<asrwt>0</asrwt>
<pdfrwt beam="2">  1        1 0.19895736E-02 0.37931240E+02</pdfrwt>
<pdfrwt beam="1">  1       -1 0.42790501E-02 0.37931240E+02</pdfrwt>
<totfact> 0.84225599E+05</totfact>
</mgrwt>
</event>
<event>
 4    1  0.4261729E-001  0.2106476E+02  0.7818608E-02  0.1724947E+00
          1   -1    0    0  501    0  0.00000000000E+00  0.00000000000E+00  0.80493132023E+02  0.80493132158E+02  0.46700000000E-02 0.  1.
         -1   -1    0    0    0  501 -0.00000000000E+00 -0.00000000000E+00 -0.13781390365E+01  0.13781469489E+01  0.46700000000E-02 0. -1.
        -13    1    1    2    0    0  0.21905430917E+01 -0.10286270531E+02  0.37379434798E+02  0.38830904687E+02  0.10570000000E+00 0. -1.
         13    1    1    2    0    0 -0.21905430917E+01  0.10286270531E+02  0.41735558188E+02  0.43040374420E+02  0.10570000000E+00 0.  1.
<mgrwt>
<rscale>  0 0.21064763E+02</rscale>
<asrwt>0</asrwt>
<pdfrwt beam="1">  1        1 0.12383561E-01 0.21064763E+02</pdfrwt>
<pdfrwt beam="2">  1       -1 0.21202198E-03 0.21064763E+02</pdfrwt>
<totfact> 0.38662075E+06</totfact>
</mgrwt>
</event>
<event>
 4    1  0.4261729E-001  0.3440079E+02  0.7818608E-02  0.1553987E+00
          1   -1    0    0  501    0  0.00000000000E+00  0.00000000000E+00  0.93928407299E+02  0.93928407415E+02  0.46700000000E-02 0. -1.
         -1   -1    0    0    0  501 -0.00000000000E+00 -0.00000000000E+00 -0.31497754452E+01  0.31497789072E+01  0.46700000000E-02 0.  1.
        -13    1    1    2    0    0 -0.82079566644E+01  0.13220456116E+02  0.66067173362E+02  0.67875132273E+02  0.10570000000E+00 0. -1.
         13    1    1    2    0    0  0.82079566644E+01 -0.13220456116E+02  0.24711458492E+02  0.29203054050E+02  0.10570000000E+00 0.  1.
<mgrwt>
<rscale>  0 0.34400789E+02</rscale>
<asrwt>0</asrwt>
<pdfrwt beam="1">  1        1 0.14450524E-01 0.34400789E+02</pdfrwt>
<pdfrwt beam="2">  1       -1 0.48458111E-03 0.34400789E+02</pdfrwt>
<totfact> 0.12593612E+06</totfact>
</mgrwt>
</event>
<event>
 4    1  0.4261729E-001  0.2130912E+02  0.7818608E-02  0.1720482E+00
         -1   -1    0    0    0  501 -0.00000000000E+00  0.00000000000E+00  0.21207976741E+01  0.21208028157E+01  0.46700000000E-02 0.  1.
          1   -1    0    0  501    0  0.00000000000E+00 -0.00000000000E+00 -0.53526787324E+02  0.53526787528E+02  0.46700000000E-02 0. -1.
        -13    1    1    2    0    0  0.62957973231E+01  0.85715616828E+01 -0.24051932263E+02  0.26298580792E+02  0.10570000000E+00 0.  1.
         13    1    1    2    0    0 -0.62957973231E+01 -0.85715616828E+01 -0.27354057388E+02  0.29349009552E+02  0.10570000000E+00 0. -1.
<mgrwt>
<rscale>  0 0.21309119E+02</rscale>
<asrwt>0</asrwt>
<pdfrwt beam="2">  1        1 0.82348898E-02 0.21309119E+02</pdfrwt>
<pdfrwt beam="1">  1       -1 0.32627702E-03 0.21309119E+02</pdfrwt>
<totfact> 0.36381214E+06</totfact>
</mgrwt>
</event>
<event>
 4    1  0.4261729E-001  0.4547431E+02  0.7818608E-02  0.1471402E+00
         -1   -1    0    0    0  501 -0.00000000000E+00  0.00000000000E+00  0.80214439956E+02  0.80214440092E+02  0.46700000000E-02 0.  1.
          1   -1    0    0  501    0  0.00000000000E+00 -0.00000000000E+00 -0.64449502028E+01  0.64449518947E+01  0.46700000000E-02 0. -1.
        -13    1    1    2    0    0 -0.21516754081E+02  0.21892195767E+01  0.23517314220E+02  0.31950565397E+02  0.10570000000E+00 0. -1.
         13    1    1    2    0    0  0.21516754081E+02 -0.21892195767E+01  0.50252175533E+02  0.54708826590E+02  0.10570000000E+00 0.  1.
<mgrwt>
<rscale>  0 0.45474307E+02</rscale>
<asrwt>0</asrwt>
<pdfrwt beam="2">  1        1 0.99153094E-03 0.45474307E+02</pdfrwt>
<pdfrwt beam="1">  1       -1 0.12340683E-01 0.45474307E+02</pdfrwt>
<totfact> 0.48626472E+05</totfact>
</mgrwt>
</event>
<event>
 4    1  0.4261729E-001  0.1097776E+03  0.7818608E-02  0.1260982E+00
         -1   -1    0    0    0  501 -0.00000000000E+00  0.00000000000E+00  0.77697578762E+02  0.77697578903E+02  0.46700000000E-02 0. -1.
          1   -1    0    0  501    0  0.00000000000E+00 -0.00000000000E+00 -0.38775755113E+02  0.38775755395E+02  0.46700000000E-02 0.  1.
        -13    1    1    2    0    0  0.45821515527E+01  0.19389887881E+02  0.73725374591E+02  0.76370189838E+02  0.10570000000E+00 0. -1.
         13    1    1    2    0    0 -0.45821515527E+01 -0.19389887881E+02 -0.34803550942E+02  0.40103144459E+02  0.10570000000E+00 0.  1.
<mgrwt>
<rscale>  0 0.10977764E+03</rscale>
<asrwt>0</asrwt>
<pdfrwt beam="2">  1        1 0.59655010E-02 0.10977764E+03</pdfrwt>
<pdfrwt beam="1">  1       -1 0.11953473E-01 0.10977764E+03</pdfrwt>
<totfact> 0.52875686E+04</totfact>
</mgrwt>
</event>
<event>
 4    1  0.4261729E-001  0.2444731E+02  0.7818608E-02  0.1669070E+00
          1   -1    0    0  501    0  0.00000000000E+00  0.00000000000E+00  0.22889770161E+01  0.22889817800E+01  0.46700000000E-02 0.  1.
         -1   -1    0    0    0  501 -0.00000000000E+00 -0.00000000000E+00 -0.65277031635E+02  0.65277031802E+02  0.46700000000E-02 0. -1.
        -13    1    1    2    0    0 -0.67824637286E+01  0.10131347776E+02 -0.33904346200E+02  0.36030013680E+02  0.10570000000E+00 0. -1.
         13    1    1    2    0    0  0.67824637286E+01 -0.10131347776E+02 -0.29083708418E+02  0.31535999902E+02  0.10570000000E+00 0.  1.
<mgrwt>
<rscale>  0 0.24447314E+02</rscale>
<asrwt>0</asrwt>
<pdfrwt beam="1">  1        1 0.35215074E-03 0.24447314E+02</pdfrwt>
<pdfrwt beam="2">  1       -1 0.10042619E-01 0.24447314E+02</pdfrwt>
<totfact> 0.21650937E+06</totfact>
</mgrwt>
</event>
<event>
 4    1  0.4261729E-001  0.3363330E+02  0.7818608E-02  0.1561083E+00
         -1   -1    0    0    0  501 -0.00000000000E+00  0.00000000000E+00  0.21352136346E+01  0.21352187415E+01  0.46700000000E-02 0.  1.
          1   -1    0    0  501    0  0.00000000000E+00 -0.00000000000E+00 -0.13244548764E+03  0.13244548772E+03  0.46700000000E-02 0. -1.
        -13    1    1    2    0    0 -0.16150265758E+02  0.18264435992E+01 -0.82422335172E+02  0.84009639256E+02  0.10570000000E+00 0. -1.
         13    1    1    2    0    0  0.16150265758E+02 -0.18264435992E+01 -0.47887938829E+02  0.50571067203E+02  0.10570000000E+00 0.  1.
<mgrwt>
<rscale>  0 0.33633303E+02</rscale>
<asrwt>0</asrwt>
<pdfrwt beam="2">  1        1 0.20376223E-01 0.33633303E+02</pdfrwt>
<pdfrwt beam="1">  1       -1 0.32849491E-03 0.33633303E+02</pdfrwt>
<totfact> 0.13900328E+06</totfact>
</mgrwt>
</event>
<event>
 4    1  0.4261729E-001  0.3849789E+02  0.7818608E-02  0.1519566E+00
         -1   -1    0    0    0  501 -0.00000000000E+00  0.00000000000E+00  0.21276411564E+01  0.21276462815E+01  0.46700000000E-02 0.  1.
          1   -1    0    0  501    0  0.00000000000E+00 -0.00000000000E+00 -0.17414661466E+03  0.17414661472E+03  0.46700000000E-02 0. -1.
        -13    1    1    2    0    0  0.15246320263E+01 -0.18660649745E+02 -0.10646932625E+03  0.10810306636E+03  0.10570000000E+00 0.  1.
         13    1    1    2    0    0 -0.15246320263E+01  0.18660649745E+02 -0.65549647254E+02  0.68171194645E+02  0.10570000000E+00 0. -1.
<mgrwt>
<rscale>  0 0.38497894E+02</rscale>
<asrwt>0</asrwt>
<pdfrwt beam="2">  1        1 0.26791776E-01 0.38497894E+02</pdfrwt>
<pdfrwt beam="1">  1       -1 0.32732995E-03 0.38497894E+02</pdfrwt>
<totfact> 0.10463103E+06</totfact>
</mgrwt>
</event>
<event>
 4    1  0.4261729E-001  0.4442091E+02  0.7818608E-02  0.1477989E+00
          1   -1    0    0  501    0  0.00000000000E+00  0.00000000000E+00  0.59639806355E+01  0.59639824639E+01  0.46700000000E-02 0. -1.
         -1   -1    0    0    0  501 -0.00000000000E+00 -0.00000000000E+00 -0.82713927963E+02  0.82713928095E+02  0.46700000000E-02 0.  1.
        -13    1    1    2    0    0  0.66743774191E+01 -0.16983393669E+02 -0.13098960843E+02  0.22462789722E+02  0.10570000000E+00 0. -1.
         13    1    1    2    0    0 -0.66743774191E+01  0.16983393669E+02 -0.63650986485E+02  0.66215120837E+02  0.10570000000E+00 0.  1.
<mgrwt>
<rscale>  0 0.44420912E+02</rscale>
<asrwt>0</asrwt>
<pdfrwt beam="1">  1        1 0.91753569E-03 0.44420912E+02</pdfrwt>
<pdfrwt beam="2">  1       -1 0.12725219E-01 0.44420912E+02</pdfrwt>
<totfact> 0.51269989E+05</totfact>
</mgrwt>
</event>
<event>
 4    1  0.4261729E-001  0.2838932E+02  0.7818608E-02  0.1616607E+00
         -1   -1    0    0    0  501 -0.00000000000E+00  0.00000000000E+00  0.48472069990E+02  0.48472070215E+02  0.46700000000E-02 0. -1.
          1   -1    0    0  501    0  0.00000000000E+00 -0.00000000000E+00 -0.41567914994E+01  0.41567941227E+01  0.46700000000E-02 0.  1.
        -13    1    1    2    0    0 -0.11022185636E+02 -0.40883309839E+01  0.74113676664E+01  0.13897574235E+02  0.10570000000E+00 0.  1.
         13    1    1    2    0    0  0.11022185636E+02  0.40883309839E+01  0.36903910824E+02  0.38731290103E+02  0.10570000000E+00 0. -1.
<mgrwt>
<rscale>  0 0.28389319E+02</rscale>
<asrwt>0</asrwt>
<pdfrwt beam="2">  1        1 0.63950656E-03 0.28389319E+02</pdfrwt>
<pdfrwt beam="1">  1       -1 0.74572423E-02 0.28389319E+02</pdfrwt>
<totfact> 0.15876290E+06</totfact>
</mgrwt>
</event>
<event>
 4    1  0.4261729E-001  0.2838703E+02  0.7818608E-02  0.1616634E+00
         -1   -1    0    0    0  501 -0.00000000000E+00  0.00000000000E+00  0.11429608276E+03  0.11429608285E+03  0.46700000000E-02 0.  1.
          1   -1    0    0  501    0  0.00000000000E+00 -0.00000000000E+00 -0.17625759096E+01  0.17625820963E+01  0.46700000000E-02 0. -1.
        -13    1    1    2    0    0  0.13171586500E+02  0.45436255344E+01  0.45213219809E+02  0.47311538148E+02  0.10570000000E+00 0. -1.
         13    1    1    2    0    0 -0.13171586500E+02 -0.45436255344E+01  0.67320287037E+02  0.68747126799E+02  0.10570000000E+00 0.  1.
<mgrwt>
<rscale>  0 0.28387031E+02</rscale>
<asrwt>0</asrwt>
<pdfrwt beam="2">  1        1 0.27116597E-03 0.28387031E+02</pdfrwt>
<pdfrwt beam="1">  1       -1 0.17584016E-01 0.28387031E+02</pdfrwt>
<totfact> 0.14139339E+06</totfact>
</mgrwt>
</event>
<event>
 4    1  0.4261729E-001  0.2153904E+02  0.7818608E-02  0.1716348E+00
          1   -1    0    0  501    0  0.00000000000E+00  0.00000000000E+00  0.23762953624E+02  0.23762954083E+02  0.46700000000E-02 0.  1.
         -1   -1    0    0    0  501 -0.00000000000E+00 -0.00000000000E+00 -0.48808132171E+01  0.48808154512E+01  0.46700000000E-02 0. -1.
        -13    1    1    2    0    0  0.43585475671E+01  0.90548421873E+01  0.42932658559E+01  0.10928422033E+02  0.10570000000E+00 0. -1.
         13    1    1    2    0    0 -0.43585475671E+01 -0.90548421873E+01  0.14588874551E+02  0.17715347501E+02  0.10570000000E+00 0.  1.
<mgrwt>
<rscale>  0 0.21539041E+02</rscale>
<asrwt>0</asrwt>
<pdfrwt beam="1">  1        1 0.36558392E-02 0.21539041E+02</pdfrwt>
<pdfrwt beam="2">  1       -1 0.75089455E-03 0.21539041E+02</pdfrwt>
<totfact> 0.33844011E+06</totfact>
</mgrwt>
</event>
<event>
 4    1  0.4261729E-001  0.1176447E+03  0.7818608E-02  0.1247034E+00
         -1   -1    0    0    0  501 -0.00000000000E+00  0.00000000000E+00  0.28984376169E+02  0.28984376545E+02  0.46700000000E-02 0.  1.
          1   -1    0    0  501    0  0.00000000000E+00 -0.00000000000E+00 -0.11937707087E+03  0.11937707096E+03  0.46700000000E-02 0. -1.
        -13    1    1    2    0    0  0.41398463809E+02 -0.21834023618E+02 -0.26336783839E+00  0.46804251177E+02  0.10570000000E+00 0.  1.
         13    1    1    2    0    0 -0.41398463809E+02  0.21834023618E+02 -0.90129326862E+02  0.10155719633E+03  0.10570000000E+00 0. -1.
<mgrwt>
<rscale>  0 0.11764472E+03</rscale>
<asrwt>0</asrwt>
<pdfrwt beam="2">  1        1 0.18365703E-01 0.11764472E+03</pdfrwt>
<pdfrwt beam="1">  1       -1 0.44591349E-02 0.11764472E+03</pdfrwt>
<totfact> 0.53283128E+04</totfact>
</mgrwt>
</event>
<event>
 4    1  0.4261729E-001  0.3326746E+02  0.7818608E-02  0.1564547E+00
          1   -1    0    0  501    0  0.00000000000E+00  0.00000000000E+00  0.11844716502E+03  0.11844716512E+03  0.46700000000E-02 0.  1.
         -1   -1    0    0    0  501 -0.00000000000E+00 -0.00000000000E+00 -0.23358997572E+01  0.23359044254E+01  0.46700000000E-02 0. -1.
        -13    1    1    2    0    0  0.10905883276E+02  0.12554774801E+02  0.56856090494E+02  0.59238390078E+02  0.10570000000E+00 0. -1.
         13    1    1    2    0    0 -0.10905883276E+02 -0.12554774801E+02  0.59255174773E+02  0.61544679463E+02  0.10570000000E+00 0.  1.
<mgrwt>
<rscale>  0 0.33267461E+02</rscale>
<asrwt>0</asrwt>
<pdfrwt beam="1">  1        1 0.18222639E-01 0.33267461E+02</pdfrwt>
<pdfrwt beam="2">  1       -1 0.35936961E-03 0.33267461E+02</pdfrwt>
<totfact> 0.14051031E+06</totfact>
</mgrwt>
</event>
<event>
 4    1  0.4261729E-001  0.2903746E+02  0.7818608E-02  0.1608979E+00
          1   -1    0    0  501    0  0.00000000000E+00  0.00000000000E+00  0.13217966170E+02  0.13217966995E+02  0.46700000000E-02 0. -1.
         -1   -1    0    0    0  501 -0.00000000000E+00 -0.00000000000E+00 -0.15947502933E+02  0.15947503617E+02  0.46700000000E-02 0.  1.
        -13    1    1    2    0    0 -0.74435411175E+01  0.12019695048E+02 -0.46812982848E+01  0.14893122558E+02  0.10570000000E+00 0.  1.
         13    1    1    2    0    0  0.74435411175E+01 -0.12019695048E+02  0.19517615221E+01  0.14272348053E+02  0.10570000000E+00 0. -1.
<mgrwt>
<rscale>  0 0.29037464E+02</rscale>
<asrwt>0</asrwt>
<pdfrwt beam="1">  1        1 0.20335334E-02 0.29037464E+02</pdfrwt>
<pdfrwt beam="2">  1       -1 0.24534621E-02 0.29037464E+02</pdfrwt>
<totfact> 0.16344610E+06</totfact>
</mgrwt>
</event>
<event>
 4    1  0.4261729E-001  0.2954978E+02  0.7818608E-02  0.1603119E+00
          1   -1    0    0  501    0  0.00000000000E+00  0.00000000000E+00  0.32321948672E+02  0.32321949009E+02  0.46700000000E-02 0. -1.
         -1   -1    0    0    0  501 -0.00000000000E+00 -0.00000000000E+00 -0.67538425654E+01  0.67538441800E+01  0.46700000000E-02 0.  1.
        -13    1    1    2    0    0 -0.29942264194E+00 -0.11287641968E+02  0.25383812838E+02  0.27782182092E+02  0.10570000000E+00 0. -1.
         13    1    1    2    0    0  0.29942264194E+00  0.11287641968E+02  0.18429326812E+00  0.11293611097E+02  0.10570000000E+00 0.  1.
<mgrwt>
<rscale>  0 0.29549781E+02</rscale>
<asrwt>0</asrwt>
<pdfrwt beam="1">  1        1 0.49726075E-02 0.29549781E+02</pdfrwt>
<pdfrwt beam="2">  1       -1 0.10390529E-02 0.29549781E+02</pdfrwt>
<totfact> 0.16497034E+06</totfact>
</mgrwt>
</event>
<event>
 4    1  0.4261729E-001  0.3253291E+02  0.7818608E-02  0.1571668E+00
          1   -1    0    0  501    0  0.00000000000E+00  0.00000000000E+00  0.27618414891E+02  0.27618415286E+02  0.46700000000E-02 0. -1.
         -1   -1    0    0    0  501 -0.00000000000E+00 -0.00000000000E+00 -0.95804747162E+01  0.95804758544E+01  0.46700000000E-02 0.  1.
        -13    1    1    2    0    0  0.92885777210E+01  0.11984871656E+02  0.15751739764E+02  0.21864201398E+02  0.10570000000E+00 0. -1.
         13    1    1    2    0    0 -0.92885777210E+01 -0.11984871656E+02  0.22862004115E+01  0.15334689743E+02  0.10570000000E+00 0.  1.
<mgrwt>
<rscale>  0 0.32532910E+02</rscale>
<asrwt>0</asrwt>
<pdfrwt beam="1">  1        1 0.42489870E-02 0.32532910E+02</pdfrwt>
<pdfrwt beam="2">  1       -1 0.14739193E-02 0.32532910E+02</pdfrwt>
<totfact> 0.12962031E+06</totfact>
</mgrwt>
</event>
<event>
 4    1  0.4261729E-001  0.4709490E+02  0.7818608E-02  0.1461672E+00
          1   -1    0    0  501    0  0.00000000000E+00  0.00000000000E+00  0.21999932401E+02  0.21999932897E+02  0.46700000000E-02 0. -1.
         -1   -1    0    0    0  501 -0.00000000000E+00 -0.00000000000E+00 -0.25203822921E+02  0.25203823354E+02  0.46700000000E-02 0.  1.
        -13    1    1    2    0    0  0.18872088540E+02  0.12468563940E+02  0.49592097947E+01  0.23156548682E+02  0.10570000000E+00 0. -1.
         13    1    1    2    0    0 -0.18872088540E+02 -0.12468563940E+02 -0.81631003150E+01  0.24047207568E+02  0.10570000000E+00 0.  1.
<mgrwt>
<rscale>  0 0.47094901E+02</rscale>
<asrwt>0</asrwt>
<pdfrwt beam="1">  1        1 0.33846050E-02 0.47094901E+02</pdfrwt>
<pdfrwt beam="2">  1       -1 0.38775113E-02 0.47094901E+02</pdfrwt>
<totfact> 0.50511056E+05</totfact>
</mgrwt>
</event>
<event>
 4    1  0.4261729E-001  0.2854270E+02  0.7818608E-02  0.1614779E+00
          1   -1    0    0  501    0  0.00000000000E+00  0.00000000000E+00  0.18613115037E+02  0.18613115623E+02  0.46700000000E-02 0.  1.
         -1   -1    0    0    0  501 -0.00000000000E+00 -0.00000000000E+00 -0.10942361453E+02  0.10942362450E+02  0.46700000000E-02 0. -1.
        -13    1    1    2    0    0  0.19662314653E+01  0.14099536442E+02  0.28012983119E+01  0.14509356938E+02  0.10570000000E+00 0.  1.
         13    1    1    2    0    0 -0.19662314653E+01 -0.14099536442E+02  0.48694552719E+01  0.15046121134E+02  0.10570000000E+00 0. -1.
<mgrwt>
<rscale>  0 0.28542702E+02</rscale>
<asrwt>0</asrwt>
<pdfrwt beam="1">  1        1 0.28635563E-02 0.28542702E+02</pdfrwt>
<pdfrwt beam="2">  1       -1 0.16834404E-02 0.28542702E+02</pdfrwt>
<totfact> 0.17355827E+06</totfact>
</mgrwt>
</event>
<event>
 4    1  0.4261729E-001  0.2468922E+02  0.7818608E-02  0.1665506E+00
         -1   -1    0    0    0  501 -0.00000000000E+00  0.00000000000E+00  0.25600013438E+02  0.25600013864E+02  0.46700000000E-02 0. -1.
          1   -1    0    0  501    0  0.00000000000E+00 -0.00000000000E+00 -0.59527057430E+01  0.59527075748E+01  0.46700000000E-02 0.  1.
        -13    1    1    2    0    0 -0.11648442090E+02 -0.35151073994E+01  0.12484841261E+02  0.17433433883E+02  0.10570000000E+00 0. -1.
         13    1    1    2    0    0  0.11648442090E+02  0.35151073994E+01  0.71624664340E+01  0.14119287555E+02  0.10570000000E+00 0.  1.
<mgrwt>
<rscale>  0 0.24689219E+02</rscale>
<asrwt>0</asrwt>
<pdfrwt beam="2">  1        1 0.91580107E-03 0.24689219E+02</pdfrwt>
<pdfrwt beam="1">  1       -1 0.39384637E-02 0.24689219E+02</pdfrwt>
<totfact> 0.23027535E+06</totfact>
</mgrwt>
</event>
<event>
 4    1  0.4261729E-001  0.3008471E+02  0.7818608E-02  0.1597154E+00
         -1   -1    0    0    0  501 -0.00000000000E+00  0.00000000000E+00  0.14892001881E+02  0.14892002613E+02  0.46700000000E-02 0. -1.
          1   -1    0    0  501    0  0.00000000000E+00 -0.00000000000E+00 -0.15194228894E+02  0.15194229611E+02  0.46700000000E-02 0.  1.
        -13    1    1    2    0    0  0.12055382345E+02 -0.28747792953E+01  0.83736778926E+01  0.14957481520E+02  0.10570000000E+00 0. -1.
         13    1    1    2    0    0 -0.12055382345E+02  0.28747792953E+01 -0.86759049053E+01  0.15128750705E+02  0.10570000000E+00 0.  1.
<mgrwt>
<rscale>  0 0.30084714E+02</rscale>
<asrwt>0</asrwt>
<pdfrwt beam="2">  1        1 0.23375738E-02 0.30084714E+02</pdfrwt>
<pdfrwt beam="1">  1       -1 0.22910773E-02 0.30084714E+02</pdfrwt>
<totfact> 0.15121578E+06</totfact>
</mgrwt>
</event>
<event>
 4    1  0.4261729E-001  0.3343279E+02  0.7818608E-02  0.1562975E+00
          1   -1    0    0  501    0  0.00000000000E+00  0.00000000000E+00  0.13740988084E+02  0.13740988878E+02  0.46700000000E-02 0.  1.
         -1   -1    0    0    0  501 -0.00000000000E+00 -0.00000000000E+00 -0.20336080369E+02  0.20336080905E+02  0.46700000000E-02 0. -1.
        -13    1    1    2    0    0  0.32997631719E+01 -0.12286147959E+02  0.77552621994E+01  0.14899433980E+02  0.10570000000E+00 0.  1.
         13    1    1    2    0    0 -0.32997631719E+01  0.12286147959E+02 -0.14350354484E+02  0.19177635803E+02  0.10570000000E+00 0. -1.
<mgrwt>
<rscale>  0 0.33432790E+02</rscale>
<asrwt>0</asrwt>
<pdfrwt beam="1">  1        1 0.21139983E-02 0.33432790E+02</pdfrwt>
<pdfrwt beam="2">  1       -1 0.31286278E-02 0.33432790E+02</pdfrwt>
<totfact> 0.11606401E+06</totfact>
</mgrwt>
</event>
<event>
 4    1  0.4261729E-001  0.3857388E+02  0.7818608E-02  0.1518976E+00
          1   -1    0    0  501    0  0.00000000000E+00  0.00000000000E+00  0.11089174640E+02  0.11089175623E+02  0.46700000000E-02 0.  1.
         -1   -1    0    0    0  501 -0.00000000000E+00 -0.00000000000E+00 -0.33544964542E+02  0.33544964867E+02  0.46700000000E-02 0. -1.
        -13    1    1    2    0    0 -0.13081229535E+02 -0.13978929184E+02 -0.85276403915E+01  0.20958550771E+02  0.10570000000E+00 0. -1.
         13    1    1    2    0    0  0.13081229535E+02  0.13978929184E+02 -0.13928149511E+02  0.23675589720E+02  0.10570000000E+00 0.  1.
<mgrwt>
<rscale>  0 0.38573877E+02</rscale>
<asrwt>0</asrwt>
<pdfrwt beam="1">  1        1 0.17060270E-02 0.38573877E+02</pdfrwt>
<pdfrwt beam="2">  1       -1 0.51607638E-02 0.38573877E+02</pdfrwt>
<totfact> 0.79693151E+05</totfact>
</mgrwt>
</event>
<event>
 4    1  0.4261729E-001  0.2218328E+02  0.7818608E-02  0.1705101E+00
          1   -1    0    0  501    0  0.00000000000E+00  0.00000000000E+00  0.13199791115E+01  0.13199873725E+01  0.46700000000E-02 0.  1.
         -1   -1    0    0    0  501 -0.00000000000E+00 -0.00000000000E+00 -0.93201549442E+02  0.93201549559E+02  0.46700000000E-02 0. -1.
        -13    1    1    2    0    0  0.89868717704E+01  0.54818565317E+01 -0.31058765361E+02  0.32794400338E+02  0.10570000000E+00 0.  1.
         13    1    1    2    0    0 -0.89868717704E+01 -0.54818565317E+01 -0.60822804969E+02  0.61727136594E+02  0.10570000000E+00 0. -1.
<mgrwt>
<rscale>  0 0.22183281E+02</rscale>
<asrwt>0</asrwt>
<pdfrwt beam="1">  1        1 0.20307443E-03 0.22183281E+02</pdfrwt>
<pdfrwt beam="2">  1       -1 0.14338695E-01 0.22183281E+02</pdfrwt>
<totfact> 0.25637786E+06</totfact>
</mgrwt>
</event>
<event>
 4    1  0.4261729E-001  0.2330176E+02  0.7818608E-02  0.1686665E+00
          1   -1    0    0  501    0  0.00000000000E+00  0.00000000000E+00  0.24576864384E+01  0.24576908753E+01  0.46700000000E-02 0.  1.
         -1   -1    0    0    0  501 -0.00000000000E+00 -0.00000000000E+00 -0.55231974724E+02  0.55231974921E+02  0.46700000000E-02 0. -1.
        -13    1    1    2    0    0 -0.68876592603E+01  0.93617584668E+01 -0.24391941158E+02  0.27019628747E+02  0.10570000000E+00 0.  1.
         13    1    1    2    0    0  0.68876592603E+01 -0.93617584668E+01 -0.28382347128E+02  0.30670037050E+02  0.10570000000E+00 0. -1.
<mgrwt>
<rscale>  0 0.23301760E+02</rscale>
<asrwt>0</asrwt>
<pdfrwt beam="1">  1        1 0.37810600E-03 0.23301760E+02</pdfrwt>
<pdfrwt beam="2">  1       -1 0.84972263E-02 0.23301760E+02</pdfrwt>
<totfact> 0.24597739E+06</totfact>
</mgrwt>
</event>
<event>
 4    1  0.4261729E-001  0.3417399E+02  0.7818608E-02  0.1556060E+00
          1   -1    0    0  501    0  0.00000000000E+00  0.00000000000E+00  0.21275584045E+02  0.21275584558E+02  0.46700000000E-02 0.  1.
         -1   -1    0    0    0  501 -0.00000000000E+00 -0.00000000000E+00 -0.13723026013E+02  0.13723026808E+02  0.46700000000E-02 0. -1.
        -13    1    1    2    0    0 -0.11149483667E+02 -0.10846554820E+02 -0.34650886193E+01  0.15936647990E+02  0.10570000000E+00 0. -1.
         13    1    1    2    0    0  0.11149483667E+02  0.10846554820E+02  0.11017646652E+02  0.19061963376E+02  0.10570000000E+00 0.  1.
<mgrwt>
<rscale>  0 0.34173991E+02</rscale>
<asrwt>0</asrwt>
<pdfrwt beam="1">  1        1 0.32731669E-02 0.34173991E+02</pdfrwt>
<pdfrwt beam="2">  1       -1 0.21112349E-02 0.34173991E+02</pdfrwt>
<totfact> 0.11308193E+06</totfact>
</mgrwt>
</event>
<event>
 4    1  0.4261729E-001  0.2099733E+02  0.7818608E-02  0.1726193E+00
          1   -1    0    0  501    0  0.00000000000E+00  0.00000000000E+00  0.20767283413E+02  0.20767283938E+02  0.46700000000E-02 0.  1.
         -1   -1    0    0    0  501 -0.00000000000E+00 -0.00000000000E+00 -0.53074770863E+01  0.53074791408E+01  0.46700000000E-02 0. -1.
        -13    1    1    2    0    0  0.10426177202E+01  0.10200242508E+02  0.49313438120E+01  0.11378107189E+02  0.10570000000E+00 0. -1.
         13    1    1    2    0    0 -0.10426177202E+01 -0.10200242508E+02  0.10528462515E+02  0.14696655890E+02  0.10570000000E+00 0.  1.
<mgrwt>
<rscale>  0 0.20997325E+02</rscale>
<asrwt>0</asrwt>
<pdfrwt beam="1">  1        1 0.31949669E-02 0.20997325E+02</pdfrwt>
<pdfrwt beam="2">  1       -1 0.81653513E-03 0.20997325E+02</pdfrwt>
<totfact> 0.35636974E+06</totfact>
</mgrwt>
</event>
<event>
 4    1  0.4261729E-001  0.2825221E+02  0.7818608E-02  0.1618253E+00
          1   -1    0    0  501    0  0.00000000000E+00  0.00000000000E+00  0.39025366050E+01  0.39025393992E+01  0.46700000000E-02 0. -1.
         -1   -1    0    0    0  501 -0.00000000000E+00 -0.00000000000E+00 -0.51132567203E+02  0.51132567416E+02  0.46700000000E-02 0.  1.
        -13    1    1    2    0    0 -0.12361899900E+02 -0.37604462629E+01 -0.12496409984E+02  0.17975788167E+02  0.10570000000E+00 0. -1.
         13    1    1    2    0    0  0.12361899900E+02  0.37604462629E+01 -0.34733620614E+02  0.37059318649E+02  0.10570000000E+00 0.  1.
<mgrwt>
<rscale>  0 0.28252207E+02</rscale>
<asrwt>0</asrwt>
<pdfrwt beam="1">  1        1 0.60039051E-03 0.28252207E+02</pdfrwt>
<pdfrwt beam="2">  1       -1 0.78665486E-02 0.28252207E+02</pdfrwt>
<totfact> 0.15968953E+06</totfact>
</mgrwt>
</event>
<event>
 4    1  0.4261729E-001  0.6321898E+02  0.7818608E-02  0.1384799E+00
         -1   -1    0    0    0  501 -0.00000000000E+00  0.00000000000E+00  0.11652350257E+02  0.11652351193E+02  0.46700000000E-02 0.  1.
          1   -1    0    0  501    0  0.00000000000E+00 -0.00000000000E+00 -0.85747491633E+02  0.85747491760E+02  0.46700000000E-02 0. -1.
        -13    1    1    2    0    0  0.21332928244E+02  0.48716686399E+01 -0.72191210771E+02  0.75434800111E+02  0.10570000000E+00 0. -1.
         13    1    1    2    0    0 -0.21332928244E+02 -0.48716686399E+01 -0.19039306051E+01  0.21965042842E+02  0.10570000000E+00 0.  1.
<mgrwt>
<rscale>  0 0.63218980E+02</rscale>
<asrwt>0</asrwt>
<pdfrwt beam="2">  1        1 0.13191921E-01 0.63218980E+02</pdfrwt>
<pdfrwt beam="1">  1       -1 0.17926694E-02 0.63218980E+02</pdfrwt>
<totfact> 0.27097119E+05</totfact>
</mgrwt>
</event>
<event>
 4    1  0.4261729E-001  0.2670312E+02  0.7818608E-02  0.1637679E+00
         -1   -1    0    0    0  501 -0.00000000000E+00  0.00000000000E+00  0.35336691617E+01  0.35336722476E+01  0.46700000000E-02 0. -1.
          1   -1    0    0  501    0  0.00000000000E+00 -0.00000000000E+00 -0.50447285496E+02  0.50447285712E+02  0.46700000000E-02 0.  1.
        -13    1    1    2    0    0 -0.84367462402E+01 -0.10189325368E+02 -0.27102222552E+02  0.30158625273E+02  0.10570000000E+00 0.  1.
         13    1    1    2    0    0  0.84367462402E+01  0.10189325368E+02 -0.19811393782E+02  0.23822332687E+02  0.10570000000E+00 0. -1.
<mgrwt>
<rscale>  0 0.26703116E+02</rscale>
<asrwt>0</asrwt>
<pdfrwt beam="2">  1        1 0.77611206E-02 0.26703116E+02</pdfrwt>
<pdfrwt beam="1">  1       -1 0.54364170E-03 0.26703116E+02</pdfrwt>
<totfact> 0.21601996E+06</totfact>
</mgrwt>
</event>
<event>
 4    1  0.4261729E-001  0.2478519E+02  0.7818608E-02  0.1664107E+00
          1   -1    0    0  501    0  0.00000000000E+00  0.00000000000E+00  0.69356825726E+01  0.69356841449E+01  0.46700000000E-02 0.  1.
         -1   -1    0    0    0  501 -0.00000000000E+00 -0.00000000000E+00 -0.22142943775E+02  0.22142944268E+02  0.46700000000E-02 0. -1.
        -13    1    1    2    0    0 -0.87919142499E+01 -0.82785331165E+01 -0.43410038220E+01  0.12833057056E+02  0.10570000000E+00 0.  1.
         13    1    1    2    0    0  0.87919142499E+01  0.82785331165E+01 -0.10866257381E+02  0.16245571356E+02  0.10570000000E+00 0. -1.
<mgrwt>
<rscale>  0 0.24785194E+02</rscale>
<asrwt>0</asrwt>
<pdfrwt beam="1">  1        1 0.10670283E-02 0.24785194E+02</pdfrwt>
<pdfrwt beam="2">  1       -1 0.34066069E-02 0.24785194E+02</pdfrwt>
<totfact> 0.23034043E+06</totfact>
</mgrwt>
</event>
<event>
 4    1  0.4261729E-001  0.2955966E+02  0.7818608E-02  0.1603008E+00
          1   -1    0    0  501    0  0.00000000000E+00  0.00000000000E+00  0.90426259159E+01  0.90426271218E+01  0.46700000000E-02 0.  1.
         -1   -1    0    0    0  501 -0.00000000000E+00 -0.00000000000E+00 -0.24157072728E+02  0.24157073179E+02  0.46700000000E-02 0. -1.
        -13    1    1    2    0    0  0.12486775362E+02 -0.68816499512E+01 -0.11929631869E+02  0.18590426407E+02  0.10570000000E+00 0. -1.
         13    1    1    2    0    0 -0.12486775362E+02  0.68816499512E+01 -0.31848149428E+01  0.14609273894E+02  0.10570000000E+00 0.  1.
<mgrwt>
<rscale>  0 0.29559662E+02</rscale>
<asrwt>0</asrwt>
<pdfrwt beam="1">  1        1 0.13911734E-02 0.29559662E+02</pdfrwt>
<pdfrwt beam="2">  1       -1 0.37164728E-02 0.29559662E+02</pdfrwt>
<totfact> 0.15293569E+06</totfact>
</mgrwt>
</event>
<event>
 4    1  0.4261729E-001  0.3566575E+02  0.7818608E-02  0.1542767E+00
         -1   -1    0    0    0  501 -0.00000000000E+00  0.00000000000E+00  0.61980820235E+02  0.61980820411E+02  0.46700000000E-02 0. -1.
          1   -1    0    0  501    0  0.00000000000E+00 -0.00000000000E+00 -0.51308015649E+01  0.51308036902E+01  0.46700000000E-02 0.  1.
        -13    1    1    2    0    0 -0.52814707171E+01  0.15640451524E+02  0.15734800352E+02  0.22805981045E+02  0.10570000000E+00 0. -1.
         13    1    1    2    0    0  0.52814707171E+01 -0.15640451524E+02  0.41115218318E+02  0.44305643056E+02  0.10570000000E+00 0.  1.
<mgrwt>
<rscale>  0 0.35665746E+02</rscale>
<asrwt>0</asrwt>
<pdfrwt beam="2">  1        1 0.78935426E-03 0.35665746E+02</pdfrwt>
<pdfrwt beam="1">  1       -1 0.95355110E-02 0.35665746E+02</pdfrwt>
<totfact> 0.90437331E+05</totfact>
</mgrwt>
</event>
<event>
 4    1  0.4261729E-001  0.2631926E+02  0.7818608E-02  0.1642745E+00
         -1   -1    0    0    0  501 -0.00000000000E+00  0.00000000000E+00  0.36599129439E+02  0.36599129737E+02  0.46700000000E-02 0.  1.
          1   -1    0    0  501    0  0.00000000000E+00 -0.00000000000E+00 -0.47316921969E+01  0.47316945014E+01  0.46700000000E-02 0. -1.
        -13    1    1    2    0    0  0.93023210379E+01  0.77516452060E+01  0.78431394735E+01  0.14427307073E+02  0.10570000000E+00 0. -1.
         13    1    1    2    0    0 -0.93023210379E+01 -0.77516452060E+01  0.24024297768E+02  0.26903517165E+02  0.10570000000E+00 0.  1.
<mgrwt>
<rscale>  0 0.26319261E+02</rscale>
<asrwt>0</asrwt>
<pdfrwt beam="2">  1        1 0.72795288E-03 0.26319261E+02</pdfrwt>
<pdfrwt beam="1">  1       -1 0.56306352E-02 0.26319261E+02</pdfrwt>
<totfact> 0.19386655E+06</totfact>
</mgrwt>
</event>
<event>
 4    1  0.4261729E-001  0.2169546E+02  0.7818608E-02  0.1713573E+00
          1   -1    0    0  501    0  0.00000000000E+00  0.00000000000E+00  0.11811019369E+02  0.11811020292E+02  0.46700000000E-02 0. -1.
         -1   -1    0    0    0  501 -0.00000000000E+00 -0.00000000000E+00 -0.99630056751E+01  0.99630067696E+01  0.46700000000E-02 0.  1.
        -13    1    1    2    0    0  0.10628219193E+02  0.18976346069E+01  0.19775903128E+01  0.10976433677E+02  0.10570000000E+00 0. -1.
         13    1    1    2    0    0 -0.10628219193E+02 -0.18976346069E+01 -0.12957661914E+00  0.10797593385E+02  0.10570000000E+00 0.  1.
<mgrwt>
<rscale>  0 0.21695463E+02</rscale>
<asrwt>0</asrwt>
<pdfrwt beam="1">  1        1 0.18170800E-02 0.21695463E+02</pdfrwt>
<pdfrwt beam="2">  1       -1 0.15327703E-02 0.21695463E+02</pdfrwt>
<totfact> 0.32295858E+06</totfact>
</mgrwt>
</event>
<event>
 4    1  0.4261729E-001  0.1456349E+03  0.7818608E-02  0.1205942E+00
         -1   -1    0    0    0  501 -0.00000000000E+00  0.00000000000E+00  0.18765926907E+03  0.18765926912E+03  0.46700000000E-02 0.  1.
          1   -1    0    0  501    0  0.00000000000E+00 -0.00000000000E+00 -0.28255380423E+02  0.28255380809E+02  0.46700000000E-02 0. -1.
        -13    1    1    2    0    0 -0.47226617443E+02  0.46862252807E+02  0.35823029427E+02  0.75562720590E+02  0.10570000000E+00 0.  1.
         13    1    1    2    0    0  0.47226617443E+02 -0.46862252807E+02  0.12358085922E+03  0.14035192934E+03  0.10570000000E+00 0. -1.
<mgrwt>
<rscale>  0 0.14563494E+03</rscale>
<asrwt>0</asrwt>
<pdfrwt beam="2">  1        1 0.43469817E-02 0.14563494E+03</pdfrwt>
<pdfrwt beam="1">  1       -1 0.28870657E-01 0.14563494E+03</pdfrwt>
<totfact> 0.20612762E+04</totfact>
</mgrwt>
</event>
<event>
 4    1  0.4261729E-001  0.2310604E+02  0.7818608E-02  0.1689797E+00
         -1   -1    0    0    0  501 -0.00000000000E+00  0.00000000000E+00  0.17192106864E+01  0.17192170291E+01  0.46700000000E-02 0.  1.
          1   -1    0    0  501    0  0.00000000000E+00 -0.00000000000E+00 -0.77635612939E+02  0.77635613080E+02  0.46700000000E-02 0. -1.
        -13    1    1    2    0    0 -0.86060519014E+01  0.75408981259E+01 -0.32493562735E+02  0.34449558279E+02  0.10570000000E+00 0.  1.
         13    1    1    2    0    0  0.86060519014E+01 -0.75408981259E+01 -0.43422839517E+02  0.44905271830E+02  0.10570000000E+00 0. -1.
<mgrwt>
<rscale>  0 0.23106037E+02</rscale>
<asrwt>0</asrwt>
<pdfrwt beam="2">  1        1 0.11943938E-01 0.23106037E+02</pdfrwt>
<pdfrwt beam="1">  1       -1 0.26449451E-03 0.23106037E+02</pdfrwt>
<totfact> 0.31286479E+06</totfact>
</mgrwt>
</event>
<event>
 4    1  0.4261729E-001  0.9098495E+02  0.7818608E-02  0.1300484E+00
         -1   -1    0    0    0  501 -0.00000000000E+00  0.00000000000E+00  0.25279181710E+03  0.25279181714E+03  0.46700000000E-02 0.  1.
          1   -1    0    0  501    0  0.00000000000E+00 -0.00000000000E+00 -0.81868351669E+01  0.81868364988E+01  0.46700000000E-02 0. -1.
        -13    1    1    2    0    0 -0.33880406084E+02 -0.59243218944E+01  0.20770940808E+03  0.21053785618E+03  0.10570000000E+00 0.  1.
         13    1    1    2    0    0  0.33880406084E+02  0.59243218944E+01  0.36895573850E+02  0.50440797462E+02  0.10570000000E+00 0. -1.
<mgrwt>
<rscale>  0 0.90984946E+02</rscale>
<asrwt>0</asrwt>
<pdfrwt beam="2">  1        1 0.12595131E-02 0.90984946E+02</pdfrwt>
<pdfrwt beam="1">  1       -1 0.38891051E-01 0.90984946E+02</pdfrwt>
<totfact> 0.64876762E+04</totfact>
</mgrwt>
</event>
<event>
 4    1  0.4261729E-001  0.3185366E+02  0.7818608E-02  0.1578459E+00
         -1   -1    0    0    0  501 -0.00000000000E+00  0.00000000000E+00  0.68282380463E+01  0.68282396433E+01  0.46700000000E-02 0. -1.
          1   -1    0    0  501    0  0.00000000000E+00 -0.00000000000E+00 -0.37149231419E+02  0.37149231712E+02  0.46700000000E-02 0.  1.
        -13    1    1    2    0    0 -0.13542685775E+02 -0.79697881395E+01 -0.11578671099E+02  0.19519186917E+02  0.10570000000E+00 0.  1.
         13    1    1    2    0    0  0.13542685775E+02  0.79697881395E+01 -0.18742322273E+02  0.24458284438E+02  0.10570000000E+00 0. -1.
<mgrwt>
<rscale>  0 0.31853655E+02</rscale>
<asrwt>0</asrwt>
<pdfrwt beam="2">  1        1 0.57152664E-02 0.31853655E+02</pdfrwt>
<pdfrwt beam="1">  1       -1 0.10504983E-02 0.31853655E+02</pdfrwt>
<totfact> 0.13911174E+06</totfact>
</mgrwt>
</event>
<event>
 4    1  0.4261729E-001  0.7701299E+02  0.7818608E-02  0.1337748E+00
         -1   -1    0    0    0  501 -0.00000000000E+00  0.00000000000E+00  0.32691254447E+03  0.32691254450E+03  0.46700000000E-02 0.  1.
          1   -1    0    0  501    0  0.00000000000E+00 -0.00000000000E+00 -0.45356164803E+01  0.45356188844E+01  0.46700000000E-02 0. -1.
        -13    1    1    2    0    0 -0.19328517930E+02  0.32591927011E+02  0.13171018555E+03  0.13705257918E+03  0.10570000000E+00 0. -1.
         13    1    1    2    0    0  0.19328517930E+02 -0.32591927011E+02  0.19066674244E+03  0.19439558420E+03  0.10570000000E+00 0.  1.
<mgrwt>
<rscale>  0 0.77012994E+02</rscale>
<asrwt>0</asrwt>
<pdfrwt beam="2">  1        1 0.69778711E-03 0.77012994E+02</pdfrwt>
<pdfrwt beam="1">  1       -1 0.50294255E-01 0.77012994E+02</pdfrwt>
<totfact> 0.90736111E+04</totfact>
</mgrwt>
</event>
<event>
 4    1  0.4261729E-001  0.3293918E+02  0.7818608E-02  0.1567702E+00
          1   -1    0    0  501    0  0.00000000000E+00  0.00000000000E+00  0.18684378387E+02  0.18684378971E+02  0.46700000000E-02 0.  1.
         -1   -1    0    0    0  501 -0.00000000000E+00 -0.00000000000E+00 -0.14517334975E+02  0.14517335726E+02  0.46700000000E-02 0. -1.
        -13    1    1    2    0    0  0.12909708543E+02 -0.93411313883E+01  0.62782913620E+01  0.17127329774E+02  0.10570000000E+00 0.  1.
         13    1    1    2    0    0 -0.12909708543E+02  0.93411313883E+01 -0.21112479499E+01  0.16074384923E+02  0.10570000000E+00 0. -1.
<mgrwt>
<rscale>  0 0.32939180E+02</rscale>
<asrwt>0</asrwt>
<pdfrwt beam="1">  1        1 0.28745199E-02 0.32939180E+02</pdfrwt>
<pdfrwt beam="2">  1       -1 0.22334362E-02 0.32939180E+02</pdfrwt>
<totfact> 0.12275216E+06</totfact>
</mgrwt>
</event>
<event>
 4    1  0.4261729E-001  0.2834709E+02  0.7818608E-02  0.1617112E+00
          1   -1    0    0  501    0  0.00000000000E+00  0.00000000000E+00  0.41096791779E+02  0.41096792045E+02  0.46700000000E-02 0. -1.
         -1   -1    0    0    0  501 -0.00000000000E+00 -0.00000000000E+00 -0.48882001772E+01  0.48882024080E+01  0.46700000000E-02 0.  1.
        -13    1    1    2    0    0  0.10491302688E+02 -0.88831262599E+01  0.12508048432E+02  0.18586011200E+02  0.10570000000E+00 0.  1.
         13    1    1    2    0    0 -0.10491302688E+02  0.88831262599E+01  0.23700543170E+02  0.27398983253E+02  0.10570000000E+00 0. -1.
<mgrwt>
<rscale>  0 0.28347092E+02</rscale>
<asrwt>0</asrwt>
<pdfrwt beam="1">  1        1 0.63225840E-02 0.28347092E+02</pdfrwt>
<pdfrwt beam="2">  1       -1 0.75203094E-03 0.28347092E+02</pdfrwt>
<totfact> 0.18496592E+06</totfact>
</mgrwt>
</event>
<event>
 4    1  0.4261729E-001  0.4655958E+02  0.7818608E-02  0.1464834E+00
         -1   -1    0    0    0  501 -0.00000000000E+00  0.00000000000E+00  0.90156918184E+02  0.90156918305E+02  0.46700000000E-02 0. -1.
          1   -1    0    0  501    0  0.00000000000E+00 -0.00000000000E+00 -0.60111685229E+01  0.60111703369E+01  0.46700000000E-02 0.  1.
        -13    1    1    2    0    0 -0.11556861955E+02 -0.12959732073E+02  0.10046429042E+02  0.20061346481E+02  0.10570000000E+00 0.  1.
         13    1    1    2    0    0  0.11556861955E+02  0.12959732073E+02  0.74099320619E+02  0.76106742161E+02  0.10570000000E+00 0. -1.
<mgrwt>
<rscale>  0 0.46559576E+02</rscale>
<asrwt>0</asrwt>
<pdfrwt beam="2">  1        1 0.92479527E-03 0.46559576E+02</pdfrwt>
<pdfrwt beam="1">  1       -1 0.13870296E-01 0.46559576E+02</pdfrwt>
<totfact> 0.45107112E+05</totfact>
</mgrwt>
</event>
<event>
 4    1  0.4261729E-001  0.4852673E+02  0.7818608E-02  0.1453454E+00
          1   -1    0    0  501    0  0.00000000000E+00  0.00000000000E+00  0.11613186628E+02  0.11613187567E+02  0.46700000000E-02 0. -1.
         -1   -1    0    0    0  501 -0.00000000000E+00 -0.00000000000E+00 -0.50693307009E+02  0.50693307224E+02  0.46700000000E-02 0.  1.
        -13    1    1    2    0    0 -0.23040622615E+02 -0.76021160282E+01 -0.19292285540E+02  0.30997837222E+02  0.10570000000E+00 0. -1.
         13    1    1    2    0    0  0.23040622615E+02  0.76021160282E+01 -0.19787834840E+02  0.31308657568E+02  0.10570000000E+00 0.  1.
<mgrwt>
<rscale>  0 0.48526730E+02</rscale>
<asrwt>0</asrwt>
<pdfrwt beam="1">  1        1 0.17866442E-02 0.48526730E+02</pdfrwt>
<pdfrwt beam="2">  1       -1 0.77989703E-02 0.48526730E+02</pdfrwt>
<totfact> 0.43913406E+05</totfact>
</mgrwt>
</event>
<event>
 4    1  0.4261729E-001  0.2597009E+02  0.7818608E-02  0.1647447E+00
          1   -1    0    0  501    0  0.00000000000E+00  0.00000000000E+00  0.54848311544E+02  0.54848311743E+02  0.46700000000E-02 0. -1.
         -1   -1    0    0    0  501 -0.00000000000E+00 -0.00000000000E+00 -0.30741373353E+01  0.30741408825E+01  0.46700000000E-02 0.  1.
        -13    1    1    2    0    0 -0.21422933584E+01 -0.10857171454E+02  0.41035859520E+02  0.42502006210E+02  0.10570000000E+00 0.  1.
         13    1    1    2    0    0  0.21422933584E+01  0.10857171454E+02  0.10738314689E+02  0.15420446416E+02  0.10570000000E+00 0. -1.
<mgrwt>
<rscale>  0 0.25970087E+02</rscale>
<asrwt>0</asrwt>
<pdfrwt beam="1">  1        1 0.84382015E-02 0.25970087E+02</pdfrwt>
<pdfrwt beam="2">  1       -1 0.47294452E-03 0.25970087E+02</pdfrwt>
<totfact> 0.23200389E+06</totfact>
</mgrwt>
</event>
<event>
 4    1  0.4261729E-001  0.2444015E+02  0.7818608E-02  0.1669176E+00
          1   -1    0    0  501    0  0.00000000000E+00  0.00000000000E+00  0.91631567998E+02  0.91631568117E+02  0.46700000000E-02 0.  1.
         -1   -1    0    0    0  501 -0.00000000000E+00 -0.00000000000E+00 -0.16296776303E+01  0.16296843215E+01  0.46700000000E-02 0. -1.
        -13    1    1    2    0    0  0.17772731729E+00  0.12150495053E+02  0.40094956644E+02  0.41896095735E+02  0.10570000000E+00 0. -1.
         13    1    1    2    0    0 -0.17772731729E+00 -0.12150495053E+02  0.49906933724E+02  0.51365156704E+02  0.10570000000E+00 0.  1.
<mgrwt>
<rscale>  0 0.24440150E+02</rscale>
<asrwt>0</asrwt>
<pdfrwt beam="1">  1        1 0.14097167E-01 0.24440150E+02</pdfrwt>
<pdfrwt beam="2">  1       -1 0.25072012E-03 0.24440150E+02</pdfrwt>
<totfact> 0.28008340E+06</totfact>
</mgrwt>
</event>
<event>
 4    1  0.4261729E-001  0.3524308E+02  0.7818608E-02  0.1546452E+00
          1   -1    0    0  501    0  0.00000000000E+00  0.00000000000E+00  0.26493722544E+01  0.26493763703E+01  0.46700000000E-02 0. -1.
         -1   -1    0    0    0  501 -0.00000000000E+00 -0.00000000000E+00 -0.11720452358E+03  0.11720452368E+03  0.46700000000E-02 0.  1.
        -13    1    1    2    0    0 -0.17051931953E+02 -0.37019921808E+01 -0.65631567398E+02  0.67911611239E+02  0.10570000000E+00 0. -1.
         13    1    1    2    0    0  0.17051931953E+02  0.37019921808E+01 -0.48923583931E+02  0.51942288808E+02  0.10570000000E+00 0.  1.
<mgrwt>
<rscale>  0 0.35243080E+02</rscale>
<asrwt>0</asrwt>
<pdfrwt beam="1">  1        1 0.40759614E-03 0.35243080E+02</pdfrwt>
<pdfrwt beam="2">  1       -1 0.18031462E-01 0.35243080E+02</pdfrwt>
<totfact> 0.84683534E+05</totfact>
</mgrwt>
</event>
<event>
 4    1  0.4261729E-001  0.2642860E+02  0.7818608E-02  0.1641291E+00
         -1   -1    0    0    0  501 -0.00000000000E+00  0.00000000000E+00  0.17354798939E+02  0.17354799567E+02  0.46700000000E-02 0. -1.
          1   -1    0    0  501    0  0.00000000000E+00 -0.00000000000E+00 -0.10061638903E+02  0.10061639987E+02  0.46700000000E-02 0.  1.
        -13    1    1    2    0    0 -0.42337175959E+01  0.12491459994E+02  0.44801267601E+01  0.13929954980E+02  0.10570000000E+00 0.  1.
         13    1    1    2    0    0  0.42337175959E+01 -0.12491459994E+02  0.28130332758E+01  0.13486484574E+02  0.10570000000E+00 0. -1.
<mgrwt>
<rscale>  0 0.26428601E+02</rscale>
<asrwt>0</asrwt>
<pdfrwt beam="2">  1        1 0.15479446E-02 0.26428601E+02</pdfrwt>
<pdfrwt beam="1">  1       -1 0.26699692E-02 0.26428601E+02</pdfrwt>
<totfact> 0.20182488E+06</totfact>
</mgrwt>
</event>
<event>
 4    1  0.4261729E-001  0.2800101E+02  0.7818608E-02  0.1621298E+00
          1   -1    0    0  501    0  0.00000000000E+00  0.00000000000E+00  0.99200260171E+01  0.99200271164E+01  0.46700000000E-02 0. -1.
         -1   -1    0    0    0  501 -0.00000000000E+00 -0.00000000000E+00 -0.19759431918E+02  0.19759432470E+02  0.46700000000E-02 0.  1.
        -13    1    1    2    0    0 -0.27588068338E+01  0.11109372154E+02  0.36241025479E+01  0.12007266823E+02  0.10570000000E+00 0. -1.
         13    1    1    2    0    0  0.27588068338E+01 -0.11109372154E+02 -0.13463508449E+02  0.17672192763E+02  0.10570000000E+00 0.  1.
<mgrwt>
<rscale>  0 0.28001007E+02</rscale>
<asrwt>0</asrwt>
<pdfrwt beam="1">  1        1 0.15261580E-02 0.28001007E+02</pdfrwt>
<pdfrwt beam="2">  1       -1 0.30399127E-02 0.28001007E+02</pdfrwt>
<totfact> 0.17549762E+06</totfact>
</mgrwt>
</event>
<event>
 4    1  0.4261729E-001  0.2303970E+02  0.7818608E-02  0.1690867E+00
          1   -1    0    0  501    0  0.00000000000E+00  0.00000000000E+00  0.26457921151E+02  0.26457921563E+02  0.46700000000E-02 0. -1.
         -1   -1    0    0    0  501 -0.00000000000E+00 -0.00000000000E+00 -0.50157709480E+01  0.50157731220E+01  0.46700000000E-02 0.  1.
        -13    1    1    2    0    0 -0.26048063572E+01 -0.10947285331E+02  0.73560998824E+01  0.13444383595E+02  0.10570000000E+00 0.  1.
         13    1    1    2    0    0  0.26048063572E+01  0.10947285331E+02  0.14086050321E+02  0.18029311090E+02  0.10570000000E+00 0. -1.
<mgrwt>
<rscale>  0 0.23039697E+02</rscale>
<asrwt>0</asrwt>
<pdfrwt beam="1">  1        1 0.40704496E-02 0.23039697E+02</pdfrwt>
<pdfrwt beam="2">  1       -1 0.77165726E-03 0.23039697E+02</pdfrwt>
<totfact> 0.29177067E+06</totfact>
</mgrwt>
</event>
<event>
 4    1  0.4261729E-001  0.2266862E+02  0.7818608E-02  0.1696939E+00
         -1   -1    0    0    0  501 -0.00000000000E+00  0.00000000000E+00  0.24116712231E+02  0.24116712683E+02  0.46700000000E-02 0.  1.
          1   -1    0    0  501    0  0.00000000000E+00 -0.00000000000E+00 -0.53268679173E+01  0.53268699643E+01  0.46700000000E-02 0. -1.
        -13    1    1    2    0    0 -0.20551957292E-01  0.10470527289E+02  0.37597073808E+01  0.11125598239E+02  0.10570000000E+00 0. -1.
         13    1    1    2    0    0  0.20551957292E-01 -0.10470527289E+02  0.15030136933E+02  0.18317984409E+02  0.10570000000E+00 0.  1.
<mgrwt>
<rscale>  0 0.22668619E+02</rscale>
<asrwt>0</asrwt>
<pdfrwt beam="2">  1        1 0.81951833E-03 0.22668619E+02</pdfrwt>
<pdfrwt beam="1">  1       -1 0.37102636E-02 0.22668619E+02</pdfrwt>
<totfact> 0.28021548E+06</totfact>
</mgrwt>
</event>
<event>
 4    1  0.4261729E-001  0.4267976E+02  0.7818608E-02  0.1489369E+00
          1   -1    0    0  501    0  0.00000000000E+00  0.00000000000E+00  0.87849686632E+01  0.87849699044E+01  0.46700000000E-02 0.  1.
         -1   -1    0    0    0  501 -0.00000000000E+00 -0.00000000000E+00 -0.51837444810E+02  0.51837445020E+02  0.46700000000E-02 0. -1.
        -13    1    1    2    0    0  0.13329855034E+02 -0.11335317592E+02 -0.41761124243E+01  0.17989595537E+02  0.10570000000E+00 0.  1.
         13    1    1    2    0    0 -0.13329855034E+02  0.11335317592E+02 -0.38876363722E+02  0.42632819387E+02  0.10570000000E+00 0. -1.
<mgrwt>
<rscale>  0 0.42679755E+02</rscale>
<asrwt>0</asrwt>
<pdfrwt beam="1">  1        1 0.13515338E-02 0.42679755E+02</pdfrwt>
<pdfrwt beam="2">  1       -1 0.79749914E-02 0.42679755E+02</pdfrwt>
<totfact> 0.59921549E+05</totfact>
</mgrwt>
</event>
<event>
 4    1  0.4261729E-001  0.2387736E+02  0.7818608E-02  0.1677671E+00
          1   -1    0    0  501    0  0.00000000000E+00  0.00000000000E+00  0.46650296785E+01  0.46650320160E+01  0.46700000000E-02 0.  1.
         -1   -1    0    0    0  501 -0.00000000000E+00 -0.00000000000E+00 -0.30553295844E+02  0.30553296201E+02  0.46700000000E-02 0. -1.
        -13    1    1    2    0    0  0.10926406801E+02 -0.48098129988E+01 -0.12966991559E+02  0.17625966902E+02  0.10570000000E+00 0. -1.
         13    1    1    2    0    0 -0.10926406801E+02  0.48098129988E+01 -0.12921274607E+02  0.17592361315E+02  0.10570000000E+00 0.  1.
<mgrwt>
<rscale>  0 0.23877360E+02</rscale>
<asrwt>0</asrwt>
<pdfrwt beam="1">  1        1 0.71769710E-03 0.23877360E+02</pdfrwt>
<pdfrwt beam="2">  1       -1 0.47005071E-02 0.23877360E+02</pdfrwt>
<totfact> 0.24537930E+06</totfact>
</mgrwt>
</event>
<event>
 4    1  0.4261729E-001  0.2781354E+02  0.7818608E-02  0.1623596E+00
          1   -1    0    0  501    0  0.00000000000E+00  0.00000000000E+00  0.12937432012E+03  0.12937432021E+03  0.46700000000E-02 0.  1.
         -1   -1    0    0    0  501 -0.00000000000E+00 -0.00000000000E+00 -0.14948693340E+01  0.14948766286E+01  0.46700000000E-02 0. -1.
        -13    1    1    2    0    0  0.63071437967E+01  0.12306705620E+02  0.57037372976E+02  0.58689932311E+02  0.10570000000E+00 0.  1.
         13    1    1    2    0    0 -0.63071437967E+01 -0.12306705620E+02  0.70842077813E+02  0.72179264525E+02  0.10570000000E+00 0. -1.
<mgrwt>
<rscale>  0 0.27813535E+02</rscale>
<asrwt>0</asrwt>
<pdfrwt beam="1">  1        1 0.19903737E-01 0.27813535E+02</pdfrwt>
<pdfrwt beam="2">  1       -1 0.22998052E-03 0.27813535E+02</pdfrwt>
<totfact> 0.21680711E+06</totfact>
</mgrwt>
</event>
<event>
 4    1  0.4261729E-001  0.2935917E+02  0.7818608E-02  0.1605282E+00
         -1   -1    0    0    0  501 -0.00000000000E+00  0.00000000000E+00  0.46853912356E+01  0.46853935629E+01  0.46700000000E-02 0.  1.
          1   -1    0    0  501    0  0.00000000000E+00 -0.00000000000E+00 -0.45991921668E+02  0.45991921906E+02  0.46700000000E-02 0. -1.
        -13    1    1    2    0    0  0.19763970910E+01 -0.13693693889E+02 -0.29119265951E+02  0.32239203151E+02  0.10570000000E+00 0. -1.
         13    1    1    2    0    0 -0.19763970910E+01  0.13693693889E+02 -0.12187264482E+02  0.18438112317E+02  0.10570000000E+00 0.  1.
<mgrwt>
<rscale>  0 0.29359170E+02</rscale>
<asrwt>0</asrwt>
<pdfrwt beam="2">  1        1 0.70756801E-02 0.29359170E+02</pdfrwt>
<pdfrwt beam="1">  1       -1 0.72082965E-03 0.29359170E+02</pdfrwt>
<totfact> 0.17166208E+06</totfact>
</mgrwt>
</event>
<event>
 4    1  0.4261729E-001  0.2075210E+02  0.7818608E-02  0.1730772E+00
          1   -1    0    0  501    0  0.00000000000E+00  0.00000000000E+00  0.40967010130E+01  0.40967036748E+01  0.46700000000E-02 0. -1.
         -1   -1    0    0    0  501 -0.00000000000E+00 -0.00000000000E+00 -0.26280265920E+02  0.26280266335E+02  0.46700000000E-02 0.  1.
        -13    1    1    2    0    0 -0.74265912126E+01 -0.68917581470E+01 -0.78183993753E+01  0.12798012685E+02  0.10570000000E+00 0. -1.
         13    1    1    2    0    0  0.74265912126E+01  0.68917581470E+01 -0.14365165532E+02  0.17578957325E+02  0.10570000000E+00 0.  1.
<mgrwt>
<rscale>  0 0.20752102E+02</rscale>
<asrwt>0</asrwt>
<pdfrwt beam="1">  1        1 0.63026195E-03 0.20752102E+02</pdfrwt>
<pdfrwt beam="2">  1       -1 0.40431180E-02 0.20752102E+02</pdfrwt>
<totfact> 0.33933464E+06</totfact>
</mgrwt>
</event>
<event>
 4    1  0.4261729E-001  0.6456058E+02  0.7818608E-02  0.1379632E+00
         -1   -1    0    0    0  501 -0.00000000000E+00  0.00000000000E+00  0.13550255274E+03  0.13550255282E+03  0.46700000000E-02 0.  1.
          1   -1    0    0  501    0  0.00000000000E+00 -0.00000000000E+00 -0.76900181398E+01  0.76900195578E+01  0.46700000000E-02 0. -1.
        -13    1    1    2    0    0 -0.15664325461E+02  0.27849126668E+02  0.53727543722E+02  0.62510839661E+02  0.10570000000E+00 0. -1.
         13    1    1    2    0    0  0.15664325461E+02 -0.27849126668E+02  0.74084990881E+02  0.80681732720E+02  0.10570000000E+00 0.  1.
<mgrwt>
<rscale>  0 0.64560582E+02</rscale>
<asrwt>0</asrwt>
<pdfrwt beam="2">  1        1 0.11830799E-02 0.64560582E+02</pdfrwt>
<pdfrwt beam="1">  1       -1 0.20846545E-01 0.64560582E+02</pdfrwt>
<totfact> 0.18546592E+05</totfact>
</mgrwt>
</event>
<event>
 4    1  0.4261729E-001  0.2410613E+02  0.7818608E-02  0.1674183E+00
          1   -1    0    0  501    0  0.00000000000E+00  0.00000000000E+00  0.41475552450E+02  0.41475552713E+02  0.46700000000E-02 0.  1.
         -1   -1    0    0    0  501 -0.00000000000E+00 -0.00000000000E+00 -0.35026976297E+01  0.35027007428E+01  0.46700000000E-02 0. -1.
        -13    1    1    2    0    0  0.14274588233E+00  0.10908388083E+02  0.94264786386E+01  0.14418147557E+02  0.10570000000E+00 0. -1.
         13    1    1    2    0    0 -0.14274588233E+00 -0.10908388083E+02  0.28546376182E+02  0.30560105899E+02  0.10570000000E+00 0.  1.
<mgrwt>
<rscale>  0 0.24106132E+02</rscale>
<asrwt>0</asrwt>
<pdfrwt beam="1">  1        1 0.63808547E-02 0.24106132E+02</pdfrwt>
<pdfrwt beam="2">  1       -1 0.53887680E-03 0.24106132E+02</pdfrwt>
<totfact> 0.26997603E+06</totfact>
</mgrwt>
</event>
<event>
 4    1  0.4261729E-001  0.2430611E+02  0.7818608E-02  0.1671173E+00
         -1   -1    0    0    0  501 -0.00000000000E+00  0.00000000000E+00  0.83686639017E+01  0.83686652047E+01  0.46700000000E-02 0. -1.
          1   -1    0    0  501    0  0.00000000000E+00 -0.00000000000E+00 -0.17648774603E+02  0.17648775221E+02  0.46700000000E-02 0.  1.
        -13    1    1    2    0    0  0.11144324453E+02 -0.30671438998E+01 -0.62321952298E+00  0.11575962780E+02  0.10570000000E+00 0. -1.
         13    1    1    2    0    0 -0.11144324453E+02  0.30671438998E+01 -0.86568911783E+01  0.14441477645E+02  0.10570000000E+00 0.  1.
<mgrwt>
<rscale>  0 0.24306105E+02</rscale>
<asrwt>0</asrwt>
<pdfrwt beam="2">  1        1 0.27151962E-02 0.24306105E+02</pdfrwt>
<pdfrwt beam="1">  1       -1 0.12874869E-02 0.24306105E+02</pdfrwt>
<totfact> 0.25285942E+06</totfact>
</mgrwt>
</event>
<event>
 4    1  0.4261729E-001  0.3277731E+02  0.7818608E-02  0.1569273E+00
         -1   -1    0    0    0  501 -0.00000000000E+00  0.00000000000E+00  0.12125361620E+02  0.12125362519E+02  0.46700000000E-02 0.  1.
          1   -1    0    0  501    0  0.00000000000E+00 -0.00000000000E+00 -0.22150928200E+02  0.22150928692E+02  0.46700000000E-02 0. -1.
        -13    1    1    2    0    0  0.76874078979E+01  0.11206733729E+02  0.45652188886E+01  0.14336649436E+02  0.10570000000E+00 0.  1.
         13    1    1    2    0    0 -0.76874078979E+01 -0.11206733729E+02 -0.14590785469E+02  0.19939641776E+02  0.10570000000E+00 0. -1.
<mgrwt>
<rscale>  0 0.32777312E+02</rscale>
<asrwt>0</asrwt>
<pdfrwt beam="2">  1        1 0.34078352E-02 0.32777312E+02</pdfrwt>
<pdfrwt beam="1">  1       -1 0.18654404E-02 0.32777312E+02</pdfrwt>
<totfact> 0.12554299E+06</totfact>
</mgrwt>
</event>
<event>
 4    1  0.4261729E-001  0.2160182E+02  0.7818608E-02  0.1715231E+00
         -1   -1    0    0    0  501 -0.00000000000E+00  0.00000000000E+00  0.46808261203E+02  0.46808261436E+02  0.46700000000E-02 0.  1.
          1   -1    0    0  501    0  0.00000000000E+00 -0.00000000000E+00 -0.24922861722E+01  0.24922905475E+01  0.46700000000E-02 0. -1.
        -13    1    1    2    0    0 -0.10413724017E+02 -0.20066500639E+01  0.26821934619E+02  0.28842670500E+02  0.10570000000E+00 0.  1.
         13    1    1    2    0    0  0.10413724017E+02  0.20066500639E+01  0.17494040411E+02  0.20457881483E+02  0.10570000000E+00 0. -1.
<mgrwt>
<rscale>  0 0.21601824E+02</rscale>
<asrwt>0</asrwt>
<pdfrwt beam="2">  1        1 0.38342901E-03 0.21601824E+02</pdfrwt>
<pdfrwt beam="1">  1       -1 0.72012711E-02 0.21601824E+02</pdfrwt>
<totfact> 0.29644407E+06</totfact>
</mgrwt>
</event>
<event>
 4    1  0.4261729E-001  0.2093159E+02  0.7818608E-02  0.1727413E+00
         -1   -1    0    0    0  501 -0.00000000000E+00  0.00000000000E+00  0.44445020725E+01  0.44445045260E+01  0.46700000000E-02 0.  1.
          1   -1    0    0  501    0  0.00000000000E+00 -0.00000000000E+00 -0.24644562832E+02  0.24644563275E+02  0.46700000000E-02 0. -1.
        -13    1    1    2    0    0 -0.23666308480E+01 -0.97603908872E+01 -0.14188623554E+02  0.17383739031E+02  0.10570000000E+00 0.  1.
         13    1    1    2    0    0  0.23666308480E+01  0.97603908872E+01 -0.60114372052E+01  0.11705328770E+02  0.10570000000E+00 0. -1.
<mgrwt>
<rscale>  0 0.20931589E+02</rscale>
<asrwt>0</asrwt>
<pdfrwt beam="2">  1        1 0.37914713E-02 0.20931589E+02</pdfrwt>
<pdfrwt beam="1">  1       -1 0.68376979E-03 0.20931589E+02</pdfrwt>
<totfact> 0.36171768E+06</totfact>
</mgrwt>
</event>
<event>
 4    1  0.4261729E-001  0.2525013E+02  0.7818608E-02  0.1657435E+00
          1   -1    0    0  501    0  0.00000000000E+00  0.00000000000E+00  0.69994717647E+01  0.69994733226E+01  0.46700000000E-02 0.  1.
         -1   -1    0    0    0  501 -0.00000000000E+00 -0.00000000000E+00 -0.22772035407E+02  0.22772035886E+02  0.46700000000E-02 0. -1.
        -13    1    1    2    0    0  0.76490634257E+01  0.99481216139E+01 -0.62577299315E+01  0.14022968706E+02  0.10570000000E+00 0.  1.
         13    1    1    2    0    0 -0.76490634257E+01 -0.99481216139E+01 -0.95148337107E+01  0.15748540503E+02  0.10570000000E+00 0. -1.
<mgrwt>
<rscale>  0 0.25250129E+02</rscale>
<asrwt>0</asrwt>
<pdfrwt beam="1">  1        1 0.10768420E-02 0.25250129E+02</pdfrwt>
<pdfrwt beam="2">  1       -1 0.35033902E-02 0.25250129E+02</pdfrwt>
<totfact> 0.22043507E+06</totfact>
</mgrwt>
</event>
<event>
 4    1  0.4261729E-001  0.3606952E+02  0.7818608E-02  0.1539303E+00
          1   -1    0    0  501    0  0.00000000000E+00  0.00000000000E+00  0.70312547804E+01  0.70312563313E+01  0.46700000000E-02 0.  1.
         -1   -1    0    0    0  501 -0.00000000000E+00 -0.00000000000E+00 -0.46258116457E+02  0.46258116693E+02  0.46700000000E-02 0. -1.
        -13    1    1    2    0    0 -0.95514207472E+01  0.92127181229E+01 -0.37655812326E+02  0.39925871160E+02  0.10570000000E+00 0. -1.
         13    1    1    2    0    0  0.95514207472E+01 -0.92127181229E+01 -0.15710493505E+01  0.13363501863E+02  0.10570000000E+00 0.  1.
<mgrwt>
<rscale>  0 0.36069525E+02</rscale>
<asrwt>0</asrwt>
<pdfrwt beam="1">  1        1 0.10817317E-02 0.36069525E+02</pdfrwt>
<pdfrwt beam="2">  1       -1 0.71166332E-02 0.36069525E+02</pdfrwt>
<totfact> 0.90860586E+05</totfact>
</mgrwt>
</event>
<event>
 4    1  0.4261729E-001  0.2712077E+02  0.7818608E-02  0.1632285E+00
         -1   -1    0    0    0  501 -0.00000000000E+00  0.00000000000E+00  0.57773588217E+02  0.57773588405E+02  0.46700000000E-02 0.  1.
          1   -1    0    0  501    0  0.00000000000E+00 -0.00000000000E+00 -0.31828370152E+01  0.31828404412E+01  0.46700000000E-02 0. -1.
        -13    1    1    2    0    0 -0.96224489807E+00 -0.11512044748E+02  0.11335925612E+02  0.16185409216E+02  0.10570000000E+00 0. -1.
         13    1    1    2    0    0  0.96224489807E+00  0.11512044748E+02  0.43254825590E+02  0.44771019631E+02  0.10570000000E+00 0.  1.
<mgrwt>
<rscale>  0 0.27120769E+02</rscale>
<asrwt>0</asrwt>
<pdfrwt beam="2">  1        1 0.48966760E-03 0.27120769E+02</pdfrwt>
<pdfrwt beam="1">  1       -1 0.88882430E-02 0.27120769E+02</pdfrwt>
<totfact> 0.17321333E+06</totfact>
</mgrwt>
</event>
<event>
 4    1  0.4261729E-001  0.3515418E+02  0.7818608E-02  0.1547236E+00
          1   -1    0    0  501    0  0.00000000000E+00  0.00000000000E+00  0.83759968051E+01  0.83759981069E+01  0.46700000000E-02 0.  1.
         -1   -1    0    0    0  501 -0.00000000000E+00 -0.00000000000E+00 -0.36885646142E+02  0.36885646438E+02  0.46700000000E-02 0. -1.
        -13    1    1    2    0    0  0.10664715849E+02 -0.12664169552E+02 -0.21852879692E+02  0.27416726243E+02  0.10570000000E+00 0.  1.
         13    1    1    2    0    0 -0.10664715849E+02  0.12664169552E+02 -0.66567696451E+01  0.17844918301E+02  0.10570000000E+00 0. -1.
<mgrwt>
<rscale>  0 0.35154180E+02</rscale>
<asrwt>0</asrwt>
<pdfrwt beam="1">  1        1 0.12886150E-02 0.35154180E+02</pdfrwt>
<pdfrwt beam="2">  1       -1 0.56747148E-02 0.35154180E+02</pdfrwt>
<totfact> 0.98624583E+05</totfact>
</mgrwt>
</event>
<event>
 4    1  0.4261729E-001  0.2516675E+02  0.7818608E-02  0.1658618E+00
          1   -1    0    0  501    0  0.00000000000E+00  0.00000000000E+00  0.13111363569E+02  0.13111364401E+02  0.46700000000E-02 0. -1.
         -1   -1    0    0    0  501 -0.00000000000E+00 -0.00000000000E+00 -0.12076645201E+02  0.12076646104E+02  0.46700000000E-02 0.  1.
        -13    1    1    2    0    0 -0.10100222661E+02 -0.54429612414E+01  0.56879420271E+01  0.12806411748E+02  0.10570000000E+00 0. -1.
         13    1    1    2    0    0  0.10100222661E+02  0.54429612414E+01 -0.46532236589E+01  0.12381598757E+02  0.10570000000E+00 0.  1.
<mgrwt>
<rscale>  0 0.25166749E+02</rscale>
<asrwt>0</asrwt>
<pdfrwt beam="1">  1        1 0.20171330E-02 0.25166749E+02</pdfrwt>
<pdfrwt beam="2">  1       -1 0.18579455E-02 0.25166749E+02</pdfrwt>
<totfact> 0.22979876E+06</totfact>
</mgrwt>
</event>
<event>
 4    1  0.4261729E-001  0.2404185E+02  0.7818608E-02  0.1675158E+00
          1   -1    0    0  501    0  0.00000000000E+00  0.00000000000E+00  0.24138463915E+01  0.24138509090E+01  0.46700000000E-02 0. -1.
         -1   -1    0    0    0  501 -0.00000000000E+00 -0.00000000000E+00 -0.59863988656E+02  0.59863988838E+02  0.46700000000E-02 0.  1.
        -13    1    1    2    0    0  0.10583821398E+02  0.51868294728E+01 -0.22610990645E+02  0.25498794988E+02  0.10570000000E+00 0. -1.
         13    1    1    2    0    0 -0.10583821398E+02 -0.51868294728E+01 -0.34839151619E+02  0.36779044759E+02  0.10570000000E+00 0.  1.
<mgrwt>
<rscale>  0 0.24041848E+02</rscale>
<asrwt>0</asrwt>
<pdfrwt beam="1">  1        1 0.37136139E-03 0.24041848E+02</pdfrwt>
<pdfrwt beam="2">  1       -1 0.92098436E-02 0.24041848E+02</pdfrwt>
<totfact> 0.22717400E+06</totfact>
</mgrwt>
</event>
<event>
 4    1  0.4261729E-001  0.4989901E+02  0.7818608E-02  0.1445887E+00
          1   -1    0    0  501    0  0.00000000000E+00  0.00000000000E+00  0.68535506032E+01  0.68535521943E+01  0.46700000000E-02 0.  1.
         -1   -1    0    0    0  501 -0.00000000000E+00 -0.00000000000E+00 -0.90825565866E+02  0.90825565986E+02  0.46700000000E-02 0. -1.
        -13    1    1    2    0    0 -0.35990235680E+01 -0.24455863595E+02 -0.48602448086E+02  0.54527528527E+02  0.10570000000E+00 0.  1.
         13    1    1    2    0    0  0.35990235680E+01  0.24455863595E+02 -0.35369567176E+02  0.43151589653E+02  0.10570000000E+00 0. -1.
<mgrwt>
<rscale>  0 0.49899006E+02</rscale>
<asrwt>0</asrwt>
<pdfrwt beam="1">  1        1 0.10543926E-02 0.49899006E+02</pdfrwt>
<pdfrwt beam="2">  1       -1 0.13973163E-01 0.49899006E+02</pdfrwt>
<totfact> 0.37990243E+05</totfact>
</mgrwt>
</event>
<event>
 4    1  0.4261729E-001  0.2166885E+02  0.7818608E-02  0.1714043E+00
         -1   -1    0    0    0  501 -0.00000000000E+00  0.00000000000E+00  0.53185426619E+02  0.53185426824E+02  0.46700000000E-02 0.  1.
          1   -1    0    0  501    0  0.00000000000E+00 -0.00000000000E+00 -0.22070816314E+01  0.22070865721E+01  0.46700000000E-02 0. -1.
        -13    1    1    2    0    0 -0.39365514377E+01  0.95465876382E+01  0.33866642667E+02  0.35406135496E+02  0.10570000000E+00 0.  1.
         13    1    1    2    0    0  0.39365514377E+01 -0.95465876382E+01  0.17111702321E+02  0.19986377900E+02  0.10570000000E+00 0. -1.
<mgrwt>
<rscale>  0 0.21668846E+02</rscale>
<asrwt>0</asrwt>
<pdfrwt beam="2">  1        1 0.33955141E-03 0.21668846E+02</pdfrwt>
<pdfrwt beam="1">  1       -1 0.81823738E-02 0.21668846E+02</pdfrwt>
<totfact> 0.29062707E+06</totfact>
</mgrwt>
</event>
<event>
 4    1  0.4261729E-001  0.2330651E+02  0.7818608E-02  0.1686589E+00
         -1   -1    0    0    0  501 -0.00000000000E+00  0.00000000000E+00  0.18614959859E+02  0.18614960445E+02  0.46700000000E-02 0.  1.
          1   -1    0    0  501    0  0.00000000000E+00 -0.00000000000E+00 -0.72951192110E+01  0.72951207057E+01  0.46700000000E-02 0. -1.
        -13    1    1    2    0    0  0.96617889898E+01  0.64013313676E+01  0.70032026976E+01  0.13541906449E+02  0.10570000000E+00 0.  1.
         13    1    1    2    0    0 -0.96617889898E+01 -0.64013313676E+01  0.43166379504E+01  0.12368174701E+02  0.10570000000E+00 0. -1.
<mgrwt>
<rscale>  0 0.23306512E+02</rscale>
<asrwt>0</asrwt>
<pdfrwt beam="2">  1        1 0.11223262E-02 0.23306512E+02</pdfrwt>
<pdfrwt beam="1">  1       -1 0.28638401E-02 0.23306512E+02</pdfrwt>
<totfact> 0.26727671E+06</totfact>
</mgrwt>
</event>
<event>
 4    1  0.4261729E-001  0.2258157E+02  0.7818608E-02  0.1698384E+00
          1   -1    0    0  501    0  0.00000000000E+00  0.00000000000E+00  0.10463396674E+03  0.10463396684E+03  0.46700000000E-02 0.  1.
         -1   -1    0    0    0  501 -0.00000000000E+00 -0.00000000000E+00 -0.12183556760E+01  0.12183646261E+01  0.46700000000E-02 0. -1.
        -13    1    1    2    0    0 -0.10171417564E+02 -0.48726591911E+01  0.54144211362E+02  0.55306485509E+02  0.10570000000E+00 0. -1.
         13    1    1    2    0    0  0.10171417564E+02  0.48726591911E+01  0.49271399701E+02  0.50545845960E+02  0.10570000000E+00 0.  1.
<mgrwt>
<rscale>  0 0.22581574E+02</rscale>
<asrwt>0</asrwt>
<pdfrwt beam="1">  1        1 0.16097534E-01 0.22581574E+02</pdfrwt>
<pdfrwt beam="2">  1       -1 0.18744004E-03 0.22581574E+02</pdfrwt>
<totfact> 0.34014642E+06</totfact>
</mgrwt>
</event>
<event>
 4    1  0.4261729E-001  0.4116326E+02  0.7818608E-02  0.1499821E+00
          1   -1    0    0  501    0  0.00000000000E+00  0.00000000000E+00  0.78671111588E+01  0.78671125449E+01  0.46700000000E-02 0.  1.
         -1   -1    0    0    0  501 -0.00000000000E+00 -0.00000000000E+00 -0.53844862925E+02  0.53844863128E+02  0.46700000000E-02 0. -1.
        -13    1    1    2    0    0  0.18122446765E+02 -0.96846847419E+01 -0.21230138759E+02  0.29545662279E+02  0.10570000000E+00 0.  1.
         13    1    1    2    0    0 -0.18122446765E+02  0.96846847419E+01 -0.24747613008E+02  0.32166313394E+02  0.10570000000E+00 0. -1.
<mgrwt>
<rscale>  0 0.41163264E+02</rscale>
<asrwt>0</asrwt>
<pdfrwt beam="1">  1        1 0.12103249E-02 0.41163264E+02</pdfrwt>
<pdfrwt beam="2">  1       -1 0.82838250E-02 0.41163264E+02</pdfrwt>
<totfact> 0.65130939E+05</totfact>
</mgrwt>
</event>
<event>
 4    1  0.4261729E-001  0.3394391E+02  0.7818608E-02  0.1558184E+00
          1   -1    0    0  501    0  0.00000000000E+00  0.00000000000E+00  0.35035303359E+02  0.35035303670E+02  0.46700000000E-02 0.  1.
         -1   -1    0    0    0  501 -0.00000000000E+00 -0.00000000000E+00 -0.82216258974E+01  0.82216272237E+01  0.46700000000E-02 0. -1.
        -13    1    1    2    0    0  0.47784060461E+01 -0.14741458222E+02  0.45876918807E+01  0.16161740133E+02  0.10570000000E+00 0. -1.
         13    1    1    2    0    0 -0.47784060461E+01  0.14741458222E+02  0.22225985581E+02  0.27095190761E+02  0.10570000000E+00 0.  1.
<mgrwt>
<rscale>  0 0.33943906E+02</rscale>
<asrwt>0</asrwt>
<pdfrwt beam="1">  1        1 0.53900467E-02 0.33943906E+02</pdfrwt>
<pdfrwt beam="2">  1       -1 0.12648657E-02 0.33943906E+02</pdfrwt>
<totfact> 0.11881495E+06</totfact>
</mgrwt>
</event>
<event>
 4    1  0.4261729E-001  0.4898204E+02  0.7818608E-02  0.1450911E+00
          1   -1    0    0  501    0  0.00000000000E+00  0.00000000000E+00  0.49453490175E+01  0.49453512225E+01  0.46700000000E-02 0. -1.
         -1   -1    0    0    0  501 -0.00000000000E+00 -0.00000000000E+00 -0.12128768771E+03  0.12128768780E+03  0.46700000000E-02 0.  1.
        -13    1    1    2    0    0 -0.77507746293E+01 -0.22819951098E+02 -0.46945340921E+02  0.52770265133E+02  0.10570000000E+00 0. -1.
         13    1    1    2    0    0  0.77507746293E+01  0.22819951098E+02 -0.69396997775E+02  0.73462773894E+02  0.10570000000E+00 0.  1.
<mgrwt>
<rscale>  0 0.48982041E+02</rscale>
<asrwt>0</asrwt>
<pdfrwt beam="1">  1        1 0.76082320E-03 0.48982041E+02</pdfrwt>
<pdfrwt beam="2">  1       -1 0.18659642E-01 0.48982041E+02</pdfrwt>
<totfact> 0.37842622E+05</totfact>
</mgrwt>
</event>
<event>
 4    1  0.4261729E-001  0.3149819E+02  0.7818608E-02  0.1582095E+00
         -1   -1    0    0    0  501 -0.00000000000E+00  0.00000000000E+00  0.52596942393E+01  0.52596963125E+01  0.46700000000E-02 0. -1.
          1   -1    0    0  501    0  0.00000000000E+00 -0.00000000000E+00 -0.47157489427E+02  0.47157489658E+02  0.46700000000E-02 0.  1.
        -13    1    1    2    0    0 -0.10681717708E+02 -0.82206083021E-01 -0.16911299549E+01  0.10815588013E+02  0.10570000000E+00 0. -1.
         13    1    1    2    0    0  0.10681717708E+02  0.82206083021E-01 -0.40206665233E+02  0.41601597958E+02  0.10570000000E+00 0.  1.
<mgrwt>
<rscale>  0 0.31498193E+02</rscale>
<asrwt>0</asrwt>
<pdfrwt beam="2">  1        1 0.72549983E-02 0.31498193E+02</pdfrwt>
<pdfrwt beam="1">  1       -1 0.80918394E-03 0.31498193E+02</pdfrwt>
<totfact> 0.14546156E+06</totfact>
</mgrwt>
</event>
<event>
 4    1  0.4261729E-001  0.7156150E+02  0.7818608E-02  0.1354862E+00
         -1   -1    0    0    0  501 -0.00000000000E+00  0.00000000000E+00  0.33539747109E+02  0.33539747434E+02  0.46700000000E-02 0. -1.
          1   -1    0    0  501    0  0.00000000000E+00 -0.00000000000E+00 -0.38171488173E+02  0.38171488459E+02  0.46700000000E-02 0.  1.
        -13    1    1    2    0    0  0.13681399291E+02  0.27649343169E+02 -0.20480686662E+02  0.37028861215E+02  0.10570000000E+00 0.  1.
         13    1    1    2    0    0 -0.13681399291E+02 -0.27649343169E+02  0.15848945598E+02  0.34682374678E+02  0.10570000000E+00 0. -1.
<mgrwt>
<rscale>  0 0.71561500E+02</rscale>
<asrwt>0</asrwt>
<pdfrwt beam="2">  1        1 0.58725367E-02 0.71561500E+02</pdfrwt>
<pdfrwt beam="1">  1       -1 0.51599612E-02 0.71561500E+02</pdfrwt>
<totfact> 0.17620950E+05</totfact>
</mgrwt>
</event>
<event>
 4    1  0.4261729E-001  0.2072121E+02  0.7818608E-02  0.1731355E+00
          1   -1    0    0  501    0  0.00000000000E+00  0.00000000000E+00  0.72472020260E+01  0.72472035306E+01  0.46700000000E-02 0.  1.
         -1   -1    0    0    0  501 -0.00000000000E+00 -0.00000000000E+00 -0.14811529109E+02  0.14811529845E+02  0.46700000000E-02 0. -1.
        -13    1    1    2    0    0 -0.53916624996E+00  0.10338383067E+02 -0.42054889289E+01  0.11174532398E+02  0.10570000000E+00 0. -1.
         13    1    1    2    0    0  0.53916624996E+00 -0.10338383067E+02 -0.33588381537E+01  0.10884200978E+02  0.10570000000E+00 0.  1.
<mgrwt>
<rscale>  0 0.20721213E+02</rscale>
<asrwt>0</asrwt>
<pdfrwt beam="1">  1        1 0.11149543E-02 0.20721213E+02</pdfrwt>
<pdfrwt beam="2">  1       -1 0.22786970E-02 0.20721213E+02</pdfrwt>
<totfact> 0.35131270E+06</totfact>
</mgrwt>
</event>
<event>
 4    1  0.4261729E-001  0.2408563E+02  0.7818608E-02  0.1674494E+00
         -1   -1    0    0    0  501 -0.00000000000E+00  0.00000000000E+00  0.48251857078E+01  0.48251879677E+01  0.46700000000E-02 0. -1.
          1   -1    0    0  501    0  0.00000000000E+00 -0.00000000000E+00 -0.30056728241E+02  0.30056728603E+02  0.46700000000E-02 0.  1.
        -13    1    1    2    0    0 -0.11709142128E+02  0.27726289001E+01 -0.11926235117E+02  0.16942188081E+02  0.10570000000E+00 0. -1.
         13    1    1    2    0    0  0.11709142128E+02 -0.27726289001E+01 -0.13305307415E+02  0.17939728490E+02  0.10570000000E+00 0.  1.
<mgrwt>
<rscale>  0 0.24085626E+02</rscale>
<asrwt>0</asrwt>
<pdfrwt beam="2">  1        1 0.46241121E-02 0.24085626E+02</pdfrwt>
<pdfrwt beam="1">  1       -1 0.74233648E-03 0.24085626E+02</pdfrwt>
<totfact> 0.26526700E+06</totfact>
</mgrwt>
</event>
<event>
 4    1  0.4261729E-001  0.6415723E+02  0.7818608E-02  0.1381170E+00
         -1   -1    0    0    0  501 -0.00000000000E+00  0.00000000000E+00  0.48409590012E+02  0.48409590237E+02  0.46700000000E-02 0.  1.
          1   -1    0    0  501    0  0.00000000000E+00 -0.00000000000E+00 -0.21256896618E+02  0.21256897131E+02  0.46700000000E-02 0. -1.
        -13    1    1    2    0    0 -0.17034602196E+02  0.29176972521E+01 -0.15769023798E+02  0.23395809737E+02  0.10570000000E+00 0. -1.
         13    1    1    2    0    0  0.17034602196E+02 -0.29176972521E+01  0.42921717192E+02  0.46270677631E+02  0.10570000000E+00 0.  1.
<mgrwt>
<rscale>  0 0.64157234E+02</rscale>
<asrwt>0</asrwt>
<pdfrwt beam="2">  1        1 0.32702918E-02 0.64157234E+02</pdfrwt>
<pdfrwt beam="1">  1       -1 0.74476293E-02 0.64157234E+02</pdfrwt>
<totfact> 0.22120015E+05</totfact>
</mgrwt>
</event>
<event>
 4    1  0.4261729E-001  0.2626092E+02  0.7818608E-02  0.1643525E+00
         -1   -1    0    0    0  501 -0.00000000000E+00  0.00000000000E+00  0.66194231664E+01  0.66194248138E+01  0.46700000000E-02 0.  1.
          1   -1    0    0  501    0  0.00000000000E+00 -0.00000000000E+00 -0.26045922167E+02  0.26045922586E+02  0.46700000000E-02 0. -1.
        -13    1    1    2    0    0 -0.10053450999E+02  0.42532571945E+00 -0.20205041810E+02  0.22572276491E+02  0.10570000000E+00 0. -1.
         13    1    1    2    0    0  0.10053450999E+02 -0.42532571945E+00  0.77854280918E+00  0.10093070908E+02  0.10570000000E+00 0.  1.
<mgrwt>
<rscale>  0 0.26260923E+02</rscale>
<asrwt>0</asrwt>
<pdfrwt beam="2">  1        1 0.40070651E-02 0.26260923E+02</pdfrwt>
<pdfrwt beam="1">  1       -1 0.10183730E-02 0.26260923E+02</pdfrwt>
<totfact> 0.21522649E+06</totfact>
</mgrwt>
</event>
<event>
 4    1  0.4261729E-001  0.2116504E+02  0.7818608E-02  0.1723105E+00
          1   -1    0    0  501    0  0.00000000000E+00  0.00000000000E+00  0.28078086627E+01  0.28078125463E+01  0.46700000000E-02 0.  1.
         -1   -1    0    0    0  501 -0.00000000000E+00 -0.00000000000E+00 -0.39885074276E+02  0.39885074550E+02  0.46700000000E-02 0. -1.
        -13    1    1    2    0    0 -0.68037545066E+01 -0.80920671802E+01 -0.19454038887E+02  0.22141441420E+02  0.10570000000E+00 0.  1.
         13    1    1    2    0    0  0.68037545066E+01  0.80920671802E+01 -0.17623226727E+02  0.20551445676E+02  0.10570000000E+00 0. -1.
<mgrwt>
<rscale>  0 0.21165042E+02</rscale>
<asrwt>0</asrwt>
<pdfrwt beam="1">  1        1 0.43197091E-03 0.21165042E+02</pdfrwt>
<pdfrwt beam="2">  1       -1 0.61361652E-02 0.21165042E+02</pdfrwt>
<totfact> 0.31480248E+06</totfact>
</mgrwt>
</event>
<event>
 4    1  0.4261729E-001  0.2925597E+02  0.7818608E-02  0.1606462E+00
         -1   -1    0    0    0  501 -0.00000000000E+00  0.00000000000E+00  0.99653967981E+01  0.99653978924E+01  0.46700000000E-02 0. -1.
          1   -1    0    0  501    0  0.00000000000E+00 -0.00000000000E+00 -0.21472099269E+02  0.21472099777E+02  0.46700000000E-02 0.  1.
        -13    1    1    2    0    0  0.13256291088E+02  0.48936977008E+01 -0.16913593821E+01  0.14231985092E+02  0.10570000000E+00 0. -1.
         13    1    1    2    0    0 -0.13256291088E+02 -0.48936977008E+01 -0.98153430887E+01  0.17205512577E+02  0.10570000000E+00 0.  1.
<mgrwt>
<rscale>  0 0.29255975E+02</rscale>
<asrwt>0</asrwt>
<pdfrwt beam="2">  1        1 0.33034000E-02 0.29255975E+02</pdfrwt>
<pdfrwt beam="1">  1       -1 0.15331381E-02 0.29255975E+02</pdfrwt>
<totfact> 0.16491099E+06</totfact>
</mgrwt>
</event>
<event>
 4    1  0.4261729E-001  0.4537999E+02  0.7818608E-02  0.1471983E+00
          1   -1    0    0  501    0  0.00000000000E+00  0.00000000000E+00  0.22412164294E+02  0.22412164781E+02  0.46700000000E-02 0.  1.
         -1   -1    0    0    0  501 -0.00000000000E+00 -0.00000000000E+00 -0.22971272344E+02  0.22971272818E+02  0.46700000000E-02 0. -1.
        -13    1    1    2    0    0 -0.21968437163E+02  0.47497164284E+01 -0.33866759826E+01  0.22729997453E+02  0.10570000000E+00 0.  1.
         13    1    1    2    0    0  0.21968437163E+02 -0.47497164284E+01  0.28275679329E+01  0.22653440146E+02  0.10570000000E+00 0. -1.
<mgrwt>
<rscale>  0 0.45379993E+02</rscale>
<asrwt>0</asrwt>
<pdfrwt beam="1">  1        1 0.34480253E-02 0.45379993E+02</pdfrwt>
<pdfrwt beam="2">  1       -1 0.35340420E-02 0.45379993E+02</pdfrwt>
<totfact> 0.55669234E+05</totfact>
</mgrwt>
</event>
<event>
 4    1  0.4261729E-001  0.2790314E+02  0.7818608E-02  0.1622495E+00
          1   -1    0    0  501    0  0.00000000000E+00  0.00000000000E+00  0.15637335809E+01  0.15637405542E+01  0.46700000000E-02 0. -1.
         -1   -1    0    0    0  501 -0.00000000000E+00 -0.00000000000E+00 -0.12447507772E+03  0.12447507781E+03  0.46700000000E-02 0.  1.
        -13    1    1    2    0    0 -0.68552575618E+01  0.12055983592E+02 -0.68296872651E+02  0.69690855089E+02  0.10570000000E+00 0.  1.
         13    1    1    2    0    0  0.68552575618E+01 -0.12055983592E+02 -0.54614471488E+02  0.56347963273E+02  0.10570000000E+00 0. -1.
<mgrwt>
<rscale>  0 0.27903140E+02</rscale>
<asrwt>0</asrwt>
<pdfrwt beam="1">  1        1 0.24057504E-03 0.27903140E+02</pdfrwt>
<pdfrwt beam="2">  1       -1 0.19150005E-01 0.27903140E+02</pdfrwt>
<totfact> 0.14478639E+06</totfact>
</mgrwt>
</event>
<event>
 4    1  0.4261729E-001  0.2294938E+02  0.7818608E-02  0.1692332E+00
          1   -1    0    0  501    0  0.00000000000E+00  0.00000000000E+00  0.13683573041E+02  0.13683573837E+02  0.46700000000E-02 0.  1.
         -1   -1    0    0    0  501 -0.00000000000E+00 -0.00000000000E+00 -0.96223724078E+01  0.96223735410E+01  0.46700000000E-02 0. -1.
        -13    1    1    2    0    0 -0.20450018044E+01  0.10463806354E+02 -0.22760455077E+01  0.10902514913E+02  0.10570000000E+00 0.  1.
         13    1    1    2    0    0  0.20450018044E+01 -0.10463806354E+02  0.63372461404E+01  0.12403432465E+02  0.10570000000E+00 0. -1.
<mgrwt>
<rscale>  0 0.22949375E+02</rscale>
<asrwt>0</asrwt>
<pdfrwt beam="1">  1        1 0.21051652E-02 0.22949375E+02</pdfrwt>
<pdfrwt beam="2">  1       -1 0.14803651E-02 0.22949375E+02</pdfrwt>
<totfact> 0.28554671E+06</totfact>
</mgrwt>
</event>
<event>
 4    1  0.4261729E-001  0.3677159E+02  0.7818608E-02  0.1533409E+00
          1   -1    0    0  501    0  0.00000000000E+00  0.00000000000E+00  0.88761557307E+01  0.88761569593E+01  0.46700000000E-02 0.  1.
         -1   -1    0    0    0  501 -0.00000000000E+00 -0.00000000000E+00 -0.38083771183E+02  0.38083771469E+02  0.46700000000E-02 0. -1.
        -13    1    1    2    0    0  0.11687671448E+02  0.49744298121E+01 -0.31578751420E+02  0.34037851424E+02  0.10570000000E+00 0. -1.
         13    1    1    2    0    0 -0.11687671448E+02 -0.49744298121E+01  0.23711359681E+01  0.12922077004E+02  0.10570000000E+00 0.  1.
<mgrwt>
<rscale>  0 0.36771593E+02</rscale>
<asrwt>0</asrwt>
<pdfrwt beam="1">  1        1 0.13655626E-02 0.36771593E+02</pdfrwt>
<pdfrwt beam="2">  1       -1 0.58590417E-02 0.36771593E+02</pdfrwt>
<totfact> 0.88368466E+05</totfact>
</mgrwt>
</event>
<event>
 4    1  0.4261729E-001  0.5534922E+02  0.7818608E-02  0.1418455E+00
         -1   -1    0    0    0  501 -0.00000000000E+00  0.00000000000E+00  0.11580358128E+02  0.11580359070E+02  0.46700000000E-02 0.  1.
          1   -1    0    0  501    0  0.00000000000E+00 -0.00000000000E+00 -0.66136463718E+02  0.66136463883E+02  0.46700000000E-02 0. -1.
        -13    1    1    2    0    0  0.14211584723E+02  0.18774935280E+02 -0.47693629910E+02  0.53189856567E+02  0.10570000000E+00 0. -1.
         13    1    1    2    0    0 -0.14211584723E+02 -0.18774935280E+02 -0.68624756796E+01  0.24526966385E+02  0.10570000000E+00 0.  1.
<mgrwt>
<rscale>  0 0.55349218E+02</rscale>
<asrwt>0</asrwt>
<pdfrwt beam="2">  1        1 0.10174840E-01 0.55349218E+02</pdfrwt>
<pdfrwt beam="1">  1       -1 0.17815937E-02 0.55349218E+02</pdfrwt>
<totfact> 0.37016897E+05</totfact>
</mgrwt>
</event>
<event>
 4    1  0.4261729E-001  0.3271994E+02  0.7818608E-02  0.1569833E+00
          1   -1    0    0  501    0  0.00000000000E+00  0.00000000000E+00  0.68369475536E+02  0.68369475695E+02  0.46700000000E-02 0. -1.
         -1   -1    0    0    0  501 -0.00000000000E+00 -0.00000000000E+00 -0.39147378537E+01  0.39147406392E+01  0.46700000000E-02 0.  1.
        -13    1    1    2    0    0  0.12592631841E+02 -0.15104288416E+01  0.93987615894E+01  0.15786185856E+02  0.10570000000E+00 0.  1.
         13    1    1    2    0    0 -0.12592631841E+02  0.15104288416E+01  0.55055976092E+02  0.56498030478E+02  0.10570000000E+00 0. -1.
<mgrwt>
<rscale>  0 0.32719944E+02</rscale>
<asrwt>0</asrwt>
<pdfrwt beam="1">  1        1 0.10518380E-01 0.32719944E+02</pdfrwt>
<pdfrwt beam="2">  1       -1 0.60226763E-03 0.32719944E+02</pdfrwt>
<totfact> 0.13721034E+06</totfact>
</mgrwt>
</event>
<event>
 4    1  0.4261729E-001  0.3250761E+02  0.7818608E-02  0.1571917E+00
         -1   -1    0    0    0  501 -0.00000000000E+00  0.00000000000E+00  0.22080223141E+02  0.22080223635E+02  0.46700000000E-02 0. -1.
          1   -1    0    0  501    0  0.00000000000E+00 -0.00000000000E+00 -0.11964831918E+02  0.11964832830E+02  0.46700000000E-02 0.  1.
        -13    1    1    2    0    0  0.10730315834E+02  0.98833484986E+01 -0.24474538003E+01  0.14792614983E+02  0.10570000000E+00 0.  1.
         13    1    1    2    0    0 -0.10730315834E+02 -0.98833484986E+01  0.12562845023E+02  0.19252441482E+02  0.10570000000E+00 0. -1.
<mgrwt>
<rscale>  0 0.32507610E+02</rscale>
<asrwt>0</asrwt>
<pdfrwt beam="2">  1        1 0.18407435E-02 0.32507610E+02</pdfrwt>
<pdfrwt beam="1">  1       -1 0.33969575E-02 0.32507610E+02</pdfrwt>
<totfact> 0.12327075E+06</totfact>
</mgrwt>
</event>
<event>
 4    1  0.4261729E-001  0.3028894E+02  0.7818608E-02  0.1594917E+00
         -1   -1    0    0    0  501 -0.00000000000E+00  0.00000000000E+00  0.15937248769E+01  0.15937317190E+01  0.46700000000E-02 0. -1.
          1   -1    0    0  501    0  0.00000000000E+00 -0.00000000000E+00 -0.14391094678E+03  0.14391094685E+03  0.46700000000E-02 0.  1.
        -13    1    1    2    0    0  0.10930434216E+02  0.10210600373E+02 -0.82539907902E+02  0.83884315108E+02  0.10570000000E+00 0. -1.
         13    1    1    2    0    0 -0.10930434216E+02 -0.10210600373E+02 -0.59777314000E+02  0.61620363466E+02  0.10570000000E+00 0.  1.
<mgrwt>
<rscale>  0 0.30288939E+02</rscale>
<asrwt>0</asrwt>
<pdfrwt beam="2">  1        1 0.22140136E-01 0.30288939E+02</pdfrwt>
<pdfrwt beam="1">  1       -1 0.24518909E-03 0.30288939E+02</pdfrwt>
<totfact> 0.18028423E+06</totfact>
</mgrwt>
</event>
<event>
 4    1  0.4261729E-001  0.2256546E+02  0.7818608E-02  0.1698652E+00
         -1   -1    0    0    0  501 -0.00000000000E+00  0.00000000000E+00  0.94666560098E+01  0.94666571617E+01  0.46700000000E-02 0.  1.
          1   -1    0    0  501    0  0.00000000000E+00 -0.00000000000E+00 -0.13447194434E+02  0.13447195245E+02  0.46700000000E-02 0. -1.
        -13    1    1    2    0    0 -0.18657153910E+01 -0.11070411917E+02 -0.31273344939E+01  0.11654454404E+02  0.10570000000E+00 0.  1.
         13    1    1    2    0    0  0.18657153910E+01  0.11070411917E+02 -0.85320393039E+00  0.11259398002E+02  0.10570000000E+00 0. -1.
<mgrwt>
<rscale>  0 0.22565459E+02</rscale>
<asrwt>0</asrwt>
<pdfrwt beam="2">  1        1 0.20687993E-02 0.22565459E+02</pdfrwt>
<pdfrwt beam="1">  1       -1 0.14564088E-02 0.22565459E+02</pdfrwt>
<totfact> 0.29666571E+06</totfact>
</mgrwt>
</event>
<event>
 4    1  0.4261729E-001  0.4580006E+02  0.7818608E-02  0.1469408E+00
         -1   -1    0    0    0  501 -0.00000000000E+00  0.00000000000E+00  0.63087029711E+01  0.63087046996E+01  0.46700000000E-02 0. -1.
          1   -1    0    0  501    0  0.00000000000E+00 -0.00000000000E+00 -0.83125051367E+02  0.83125051498E+02  0.46700000000E-02 0.  1.
        -13    1    1    2    0    0  0.10593532709E+02  0.15857252513E+02 -0.13652380588E+02  0.23453657726E+02  0.10570000000E+00 0. -1.
         13    1    1    2    0    0 -0.10593532709E+02 -0.15857252513E+02 -0.63163967809E+02  0.65980098472E+02  0.10570000000E+00 0.  1.
<mgrwt>
<rscale>  0 0.45800059E+02</rscale>
<asrwt>0</asrwt>
<pdfrwt beam="2">  1        1 0.12788469E-01 0.45800059E+02</pdfrwt>
<pdfrwt beam="1">  1       -1 0.97056989E-03 0.45800059E+02</pdfrwt>
<totfact> 0.61489332E+05</totfact>
</mgrwt>
</event>
<event>
 4    1  0.4261729E-001  0.2188788E+02  0.7818608E-02  0.1710198E+00
          1   -1    0    0  501    0  0.00000000000E+00  0.00000000000E+00  0.21834016049E+02  0.21834016548E+02  0.46700000000E-02 0.  1.
         -1   -1    0    0    0  501 -0.00000000000E+00 -0.00000000000E+00 -0.54854680314E+01  0.54854700193E+01  0.46700000000E-02 0. -1.
        -13    1    1    2    0    0  0.65773450620E+00 -0.10217562262E+02  0.33518892979E+01  0.10773928142E+02  0.10570000000E+00 0.  1.
         13    1    1    2    0    0 -0.65773450620E+00  0.10217562262E+02  0.12996658719E+02  0.16545558426E+02  0.10570000000E+00 0. -1.
<mgrwt>
<rscale>  0 0.21887881E+02</rscale>
<asrwt>0</asrwt>
<pdfrwt beam="1">  1        1 0.33590796E-02 0.21887881E+02</pdfrwt>
<pdfrwt beam="2">  1       -1 0.84391835E-03 0.21887881E+02</pdfrwt>
<totfact> 0.32500924E+06</totfact>
</mgrwt>
</event>
<event>
 4    1  0.4261729E-001  0.2328656E+02  0.7818608E-02  0.1686907E+00
          1   -1    0    0  501    0  0.00000000000E+00  0.00000000000E+00  0.45585288784E+02  0.45585289023E+02  0.46700000000E-02 0. -1.
         -1   -1    0    0    0  501 -0.00000000000E+00 -0.00000000000E+00 -0.29738962902E+01  0.29738999570E+01  0.46700000000E-02 0.  1.
        -13    1    1    2    0    0 -0.94317760968E+01 -0.54882277819E+01  0.29769961312E+02  0.31707109826E+02  0.10570000000E+00 0.  1.
         13    1    1    2    0    0  0.94317760968E+01  0.54882277819E+01  0.12841431182E+02  0.16852079154E+02  0.10570000000E+00 0. -1.
<mgrwt>
<rscale>  0 0.23286564E+02</rscale>
<asrwt>0</asrwt>
<pdfrwt beam="1">  1        1 0.70131215E-02 0.23286564E+02</pdfrwt>
<pdfrwt beam="2">  1       -1 0.45752282E-03 0.23286564E+02</pdfrwt>
<totfact> 0.29411743E+06</totfact>
</mgrwt>
</event>
<event>
 4    1  0.4261729E-001  0.2679743E+02  0.7818608E-02  0.1636451E+00
         -1   -1    0    0    0  501 -0.00000000000E+00  0.00000000000E+00  0.72451640531E+01  0.72451655582E+01  0.46700000000E-02 0.  1.
          1   -1    0    0  501    0  0.00000000000E+00 -0.00000000000E+00 -0.24778677969E+02  0.24778678410E+02  0.46700000000E-02 0. -1.
        -13    1    1    2    0    0  0.11837553021E+02  0.60149488970E+01 -0.66266203359E+01  0.14840166485E+02  0.10570000000E+00 0.  1.
         13    1    1    2    0    0 -0.11837553021E+02 -0.60149488970E+01 -0.10906893580E+02  0.17183677482E+02  0.10570000000E+00 0. -1.
<mgrwt>
<rscale>  0 0.26797434E+02</rscale>
<asrwt>0</asrwt>
<pdfrwt beam="2">  1        1 0.38121044E-02 0.26797434E+02</pdfrwt>
<pdfrwt beam="1">  1       -1 0.11146408E-02 0.26797434E+02</pdfrwt>
<totfact> 0.20468213E+06</totfact>
</mgrwt>
</event>
<event>
 4    1  0.4261729E-001  0.4016293E+02  0.7818608E-02  0.1507016E+00
          1   -1    0    0  501    0  0.00000000000E+00  0.00000000000E+00  0.25825006123E+02  0.25825006545E+02  0.46700000000E-02 0. -1.
         -1   -1    0    0    0  501 -0.00000000000E+00 -0.00000000000E+00 -0.15615296194E+02  0.15615296892E+02  0.46700000000E-02 0.  1.
        -13    1    1    2    0    0 -0.85210664504E+01 -0.93183931122E+01  0.21215983803E+02  0.24689474779E+02  0.10570000000E+00 0. -1.
         13    1    1    2    0    0  0.85210664504E+01  0.93183931122E+01 -0.11006273874E+02  0.16750828658E+02  0.10570000000E+00 0.  1.
<mgrwt>
<rscale>  0 0.40162925E+02</rscale>
<asrwt>0</asrwt>
<pdfrwt beam="1">  1        1 0.39730780E-02 0.40162925E+02</pdfrwt>
<pdfrwt beam="2">  1       -1 0.24023533E-02 0.40162925E+02</pdfrwt>
<totfact> 0.76747214E+05</totfact>
</mgrwt>
</event>
<event>
 4    1  0.4261729E-001  0.5555035E+02  0.7818608E-02  0.1417514E+00
          1   -1    0    0  501    0  0.00000000000E+00  0.00000000000E+00  0.65609124485E+02  0.65609124651E+02  0.46700000000E-02 0.  1.
         -1   -1    0    0    0  501 -0.00000000000E+00 -0.00000000000E+00 -0.11758428948E+02  0.11758429875E+02  0.46700000000E-02 0. -1.
        -13    1    1    2    0    0 -0.14170490237E+02  0.20377863540E+02  0.95640493325E+01  0.26599667820E+02  0.10570000000E+00 0.  1.
         13    1    1    2    0    0  0.14170490237E+02 -0.20377863540E+02  0.44286646205E+02  0.50767886706E+02  0.10570000000E+00 0. -1.
<mgrwt>
<rscale>  0 0.55550347E+02</rscale>
<asrwt>0</asrwt>
<pdfrwt beam="1">  1        1 0.10093712E-01 0.55550347E+02</pdfrwt>
<pdfrwt beam="2">  1       -1 0.18089891E-02 0.55550347E+02</pdfrwt>
<totfact> 0.36638563E+05</totfact>
</mgrwt>
</event>
<event>
 4    1  0.4261729E-001  0.4710786E+02  0.7818608E-02  0.1461596E+00
          1   -1    0    0  501    0  0.00000000000E+00  0.00000000000E+00  0.12733406599E+02  0.12733407456E+02  0.46700000000E-02 0. -1.
         -1   -1    0    0    0  501 -0.00000000000E+00 -0.00000000000E+00 -0.43569448841E+02  0.43569449091E+02  0.46700000000E-02 0.  1.
        -13    1    1    2    0    0 -0.17759505688E+02  0.16153676298E+01  0.29726504797E+01  0.18079194623E+02  0.10570000000E+00 0. -1.
         13    1    1    2    0    0  0.17759505688E+02 -0.16153676298E+01 -0.33808692721E+02  0.38223661924E+02  0.10570000000E+00 0.  1.
<mgrwt>
<rscale>  0 0.47107857E+02</rscale>
<asrwt>0</asrwt>
<pdfrwt beam="1">  1        1 0.19589857E-02 0.47107857E+02</pdfrwt>
<pdfrwt beam="2">  1       -1 0.67029921E-02 0.47107857E+02</pdfrwt>
<totfact> 0.47984347E+05</totfact>
</mgrwt>
</event>
<event>
 4    1  0.4261729E-001  0.3974537E+02  0.7818608E-02  0.1510094E+00
         -1   -1    0    0    0  501 -0.00000000000E+00  0.00000000000E+00  0.28705294318E+01  0.28705332306E+01  0.46700000000E-02 0. -1.
          1   -1    0    0  501    0  0.00000000000E+00 -0.00000000000E+00 -0.13757857551E+03  0.13757857559E+03  0.46700000000E-02 0.  1.
        -13    1    1    2    0    0 -0.14516268885E+02 -0.12876110159E+02 -0.82510428012E+02  0.84761419162E+02  0.10570000000E+00 0.  1.
         13    1    1    2    0    0  0.14516268885E+02  0.12876110159E+02 -0.52197618068E+02  0.55687689660E+02  0.10570000000E+00 0. -1.
<mgrwt>
<rscale>  0 0.39745371E+02</rscale>
<asrwt>0</asrwt>
<pdfrwt beam="2">  1        1 0.21165930E-01 0.39745371E+02</pdfrwt>
<pdfrwt beam="1">  1       -1 0.44162032E-03 0.39745371E+02</pdfrwt>
<totfact> 0.93370598E+05</totfact>
</mgrwt>
</event>
<event>
 4    1  0.4261729E-001  0.3497684E+02  0.7818608E-02  0.1548806E+00
         -1   -1    0    0    0  501 -0.00000000000E+00  0.00000000000E+00  0.82934099456E+01  0.82934112604E+01  0.46700000000E-02 0. -1.
          1   -1    0    0  501    0  0.00000000000E+00 -0.00000000000E+00 -0.36878044975E+02  0.36878045271E+02  0.46700000000E-02 0.  1.
        -13    1    1    2    0    0 -0.11835462350E+02  0.75878620886E+01 -0.27724810610E+02  0.31085850736E+02  0.10570000000E+00 0.  1.
         13    1    1    2    0    0  0.11835462350E+02 -0.75878620886E+01 -0.85982441950E+00  0.14085605796E+02  0.10570000000E+00 0. -1.
<mgrwt>
<rscale>  0 0.34976837E+02</rscale>
<asrwt>0</asrwt>
<pdfrwt beam="2">  1        1 0.56735454E-02 0.34976837E+02</pdfrwt>
<pdfrwt beam="1">  1       -1 0.12759094E-02 0.34976837E+02</pdfrwt>
<totfact> 0.11086949E+06</totfact>
</mgrwt>
</event>
<event>
 4    1  0.4261729E-001  0.2778162E+02  0.7818608E-02  0.1623989E+00
         -1   -1    0    0    0  501 -0.00000000000E+00  0.00000000000E+00  0.24000631139E+01  0.24000676573E+01  0.46700000000E-02 0. -1.
          1   -1    0    0  501    0  0.00000000000E+00 -0.00000000000E+00 -0.80395559411E+02  0.80395559547E+02  0.46700000000E-02 0.  1.
        -13    1    1    2    0    0 -0.48648097785E+01  0.10196556499E+02 -0.14913633446E+02  0.18709991280E+02  0.10570000000E+00 0. -1.
         13    1    1    2    0    0  0.48648097785E+01 -0.10196556499E+02 -0.63081862851E+02  0.64085635924E+02  0.10570000000E+00 0.  1.
<mgrwt>
<rscale>  0 0.27781621E+02</rscale>
<asrwt>0</asrwt>
<pdfrwt beam="2">  1        1 0.12368546E-01 0.27781621E+02</pdfrwt>
<pdfrwt beam="1">  1       -1 0.36924090E-03 0.27781621E+02</pdfrwt>
<totfact> 0.20540812E+06</totfact>
</mgrwt>
</event>
<event>
 4    1  0.4261729E-001  0.2218981E+02  0.7818608E-02  0.1704990E+00
         -1   -1    0    0    0  501 -0.00000000000E+00  0.00000000000E+00  0.88339854869E+02  0.88339854992E+02  0.46700000000E-02 0. -1.
          1   -1    0    0  501    0  0.00000000000E+00 -0.00000000000E+00 -0.13934435112E+01  0.13934513368E+01  0.46700000000E-02 0.  1.
        -13    1    1    2    0    0 -0.51334768061E+01 -0.97688561036E+01  0.38857760876E+02  0.40394552683E+02  0.10570000000E+00 0.  1.
         13    1    1    2    0    0  0.51334768061E+01  0.97688561036E+01  0.48088650481E+02  0.49338753645E+02  0.10570000000E+00 0. -1.
<mgrwt>
<rscale>  0 0.22189813E+02</rscale>
<asrwt>0</asrwt>
<pdfrwt beam="2">  1        1 0.21437649E-03 0.22189813E+02</pdfrwt>
<pdfrwt beam="1">  1       -1 0.13590751E-01 0.22189813E+02</pdfrwt>
<totfact> 0.25835463E+06</totfact>
</mgrwt>
</event>
<event>
 4    1  0.4261729E-001  0.2108007E+02  0.7818608E-02  0.1724665E+00
          1   -1    0    0  501    0  0.00000000000E+00  0.00000000000E+00  0.18759701386E+02  0.18759701968E+02  0.46700000000E-02 0.  1.
         -1   -1    0    0    0  501 -0.00000000000E+00 -0.00000000000E+00 -0.59218594957E+01  0.59218613371E+01  0.46700000000E-02 0. -1.
        -13    1    1    2    0    0  0.48367765560E+01  0.90079134449E+01  0.34236858925E+01  0.10782843301E+02  0.10570000000E+00 0. -1.
         13    1    1    2    0    0 -0.48367765560E+01 -0.90079134449E+01  0.94141559982E+01  0.13898720003E+02  0.10570000000E+00 0.  1.
<mgrwt>
<rscale>  0 0.21080071E+02</rscale>
<asrwt>0</asrwt>
<pdfrwt beam="1">  1        1 0.28861081E-02 0.21080071E+02</pdfrwt>
<pdfrwt beam="2">  1       -1 0.91105549E-03 0.21080071E+02</pdfrwt>
<totfact> 0.35164923E+06</totfact>
</mgrwt>
</event>
<event>
 4    1  0.4261729E-001  0.1160883E+03  0.7818608E-02  0.1249693E+00
          1   -1    0    0  501    0  0.00000000000E+00  0.00000000000E+00  0.32086236735E+02  0.32086237075E+02  0.46700000000E-02 0. -1.
         -1   -1    0    0    0  501 -0.00000000000E+00 -0.00000000000E+00 -0.10500221727E+03  0.10500221738E+03  0.46700000000E-02 0.  1.
        -13    1    1    2    0    0 -0.24982062067E+01 -0.20735141148E+02 -0.10041128716E+03  0.10256034747E+03  0.10570000000E+00 0.  1.
         13    1    1    2    0    0  0.24982062067E+01  0.20735141148E+02  0.27495306622E+02  0.34528106977E+02  0.10570000000E+00 0. -1.
<mgrwt>
<rscale>  0 0.11608835E+03</rscale>
<asrwt>0</asrwt>
<pdfrwt beam="1">  1        1 0.49363442E-02 0.11608835E+03</pdfrwt>
<pdfrwt beam="2">  1       -1 0.16154187E-01 0.11608835E+03</pdfrwt>
<totfact> 0.43158042E+04</totfact>
</mgrwt>
</event>
<event>
 4    1  0.4261729E-001  0.3136502E+02  0.7818608E-02  0.1583472E+00
         -1   -1    0    0    0  501 -0.00000000000E+00  0.00000000000E+00  0.26938278685E+01  0.26938319164E+01  0.46700000000E-02 0.  1.
          1   -1    0    0  501    0  0.00000000000E+00 -0.00000000000E+00 -0.91297944366E+02  0.91297944486E+02  0.46700000000E-02 0. -1.
        -13    1    1    2    0    0  0.46900440980E+01 -0.11983268334E+02 -0.17442679966E+02  0.21676104135E+02  0.10570000000E+00 0. -1.
         13    1    1    2    0    0 -0.46900440980E+01  0.11983268334E+02 -0.71161436532E+02  0.72315672267E+02  0.10570000000E+00 0.  1.
<mgrwt>
<rscale>  0 0.31365021E+02</rscale>
<asrwt>0</asrwt>
<pdfrwt beam="2">  1        1 0.14045836E-01 0.31365021E+02</pdfrwt>
<pdfrwt beam="1">  1       -1 0.41443545E-03 0.31365021E+02</pdfrwt>
<totfact> 0.15652350E+06</totfact>
</mgrwt>
</event>
<event>
 4    1  0.4261729E-001  0.3936906E+02  0.7818608E-02  0.1512906E+00
          1   -1    0    0  501    0  0.00000000000E+00  0.00000000000E+00  0.16042547742E+02  0.16042548422E+02  0.46700000000E-02 0. -1.
         -1   -1    0    0    0  501 -0.00000000000E+00 -0.00000000000E+00 -0.24153320006E+02  0.24153320458E+02  0.46700000000E-02 0.  1.
        -13    1    1    2    0    0 -0.41429757835E+01  0.17852083603E+02  0.32793915069E+01  0.18617913913E+02  0.10570000000E+00 0. -1.
         13    1    1    2    0    0  0.41429757835E+01 -0.17852083603E+02 -0.11390163771E+02  0.21577954967E+02  0.10570000000E+00 0.  1.
<mgrwt>
<rscale>  0 0.39369065E+02</rscale>
<asrwt>0</asrwt>
<pdfrwt beam="1">  1        1 0.24680844E-02 0.39369065E+02</pdfrwt>
<pdfrwt beam="2">  1       -1 0.37158955E-02 0.39369065E+02</pdfrwt>
<totfact> 0.77917171E+05</totfact>
</mgrwt>
</event>
<event>
 4    1  0.4261729E-001  0.2673770E+02  0.7818608E-02  0.1637228E+00
          1   -1    0    0  501    0  0.00000000000E+00  0.00000000000E+00  0.10610091300E+03  0.10610091310E+03  0.46700000000E-02 0.  1.
         -1   -1    0    0    0  501 -0.00000000000E+00 -0.00000000000E+00 -0.16844889489E+01  0.16844954224E+01  0.46700000000E-02 0. -1.
        -13    1    1    2    0    0 -0.47646493050E+01 -0.11556409179E+02  0.71314008733E+02  0.72401322434E+02  0.10570000000E+00 0. -1.
         13    1    1    2    0    0  0.47646493050E+01  0.11556409179E+02  0.33102415315E+02  0.35384086089E+02  0.10570000000E+00 0.  1.
<mgrwt>
<rscale>  0 0.26737701E+02</rscale>
<asrwt>0</asrwt>
<pdfrwt beam="1">  1        1 0.16323220E-01 0.26737701E+02</pdfrwt>
<pdfrwt beam="2">  1       -1 0.25915262E-03 0.26737701E+02</pdfrwt>
<totfact> 0.23164307E+06</totfact>
</mgrwt>
</event>
<event>
 4    1  0.4261729E-001  0.2531805E+02  0.7818608E-02  0.1656475E+00
         -1   -1    0    0    0  501 -0.00000000000E+00  0.00000000000E+00  0.12819566901E+01  0.12819651962E+01  0.46700000000E-02 0.  1.
          1   -1    0    0  501    0  0.00000000000E+00 -0.00000000000E+00 -0.12500455682E+03  0.12500455691E+03  0.46700000000E-02 0. -1.
        -13    1    1    2    0    0  0.12528685835E+02 -0.61911653151E+00 -0.70338738858E+02  0.71448587325E+02  0.10570000000E+00 0. -1.
         13    1    1    2    0    0 -0.12528685835E+02  0.61911653151E+00 -0.53383861273E+02  0.54837934780E+02  0.10570000000E+00 0.  1.
<mgrwt>
<rscale>  0 0.25318054E+02</rscale>
<asrwt>0</asrwt>
<pdfrwt beam="2">  1        1 0.19231461E-01 0.25318054E+02</pdfrwt>
<pdfrwt beam="1">  1       -1 0.19722487E-03 0.25318054E+02</pdfrwt>
<totfact> 0.26809630E+06</totfact>
</mgrwt>
</event>
<event>
 4    1  0.4261729E-001  0.2923969E+02  0.7818608E-02  0.1606648E+00
          1   -1    0    0  501    0  0.00000000000E+00  0.00000000000E+00  0.37919969783E+02  0.37919970070E+02  0.46700000000E-02 0. -1.
         -1   -1    0    0    0  501 -0.00000000000E+00 -0.00000000000E+00 -0.56366024992E+01  0.56366044338E+01  0.46700000000E-02 0.  1.
        -13    1    1    2    0    0 -0.70139858510E+01  0.11068079931E+02  0.25799126032E+02  0.28936213771E+02  0.10570000000E+00 0. -1.
         13    1    1    2    0    0  0.70139858510E+01 -0.11068079931E+02  0.64842412515E+01  0.14620360733E+02  0.10570000000E+00 0.  1.
<mgrwt>
<rscale>  0 0.29239688E+02</rscale>
<asrwt>0</asrwt>
<pdfrwt beam="1">  1        1 0.58338416E-02 0.29239688E+02</pdfrwt>
<pdfrwt beam="2">  1       -1 0.86716980E-03 0.29239688E+02</pdfrwt>
<totfact> 0.17094319E+06</totfact>
</mgrwt>
</event>
<event>
 4    1  0.4261729E-001  0.2352619E+02  0.7818608E-02  0.1683120E+00
          1   -1    0    0  501    0  0.00000000000E+00  0.00000000000E+00  0.21219932799E+02  0.21219933312E+02  0.46700000000E-02 0.  1.
         -1   -1    0    0    0  501 -0.00000000000E+00 -0.00000000000E+00 -0.65207721553E+01  0.65207738276E+01  0.46700000000E-02 0. -1.
        -13    1    1    2    0    0  0.10807839253E+02 -0.29045155514E+01  0.11619571875E+02  0.16132923571E+02  0.10570000000E+00 0.  1.
         13    1    1    2    0    0 -0.10807839253E+02  0.29045155514E+01  0.30795887683E+01  0.11607783569E+02  0.10570000000E+00 0. -1.
<mgrwt>
<rscale>  0 0.23526188E+02</rscale>
<asrwt>0</asrwt>
<pdfrwt beam="1">  1        1 0.32646052E-02 0.23526188E+02</pdfrwt>
<pdfrwt beam="2">  1       -1 0.10031959E-02 0.23526188E+02</pdfrwt>
<totfact> 0.27507436E+06</totfact>
</mgrwt>
</event>
<event>
 4    1  0.4261729E-001  0.4395895E+02  0.7818608E-02  0.1480947E+00
         -1   -1    0    0    0  501 -0.00000000000E+00  0.00000000000E+00  0.31781799952E+01  0.31781834263E+01  0.46700000000E-02 0. -1.
          1   -1    0    0  501    0  0.00000000000E+00 -0.00000000000E+00 -0.15200429083E+03  0.15200429091E+03  0.46700000000E-02 0.  1.
        -13    1    1    2    0    0 -0.13464163198E+01 -0.21818642190E+02 -0.66347481347E+02  0.69856033652E+02  0.10570000000E+00 0.  1.
         13    1    1    2    0    0  0.13464163198E+01  0.21818642190E+02 -0.82478629491E+02  0.85326440680E+02  0.10570000000E+00 0. -1.
<mgrwt>
<rscale>  0 0.43958948E+02</rscale>
<asrwt>0</asrwt>
<pdfrwt beam="2">  1        1 0.23385270E-01 0.43958948E+02</pdfrwt>
<pdfrwt beam="1">  1       -1 0.48895116E-03 0.43958948E+02</pdfrwt>
<totfact> 0.74007732E+05</totfact>
</mgrwt>
</event>
<event>
 4    1  0.4261729E-001  0.2252198E+02  0.7818608E-02  0.1699378E+00
          1   -1    0    0  501    0  0.00000000000E+00  0.00000000000E+00  0.26717340544E+01  0.26717381358E+01  0.46700000000E-02 0.  1.
         -1   -1    0    0    0  501 -0.00000000000E+00 -0.00000000000E+00 -0.47463484209E+02  0.47463484439E+02  0.46700000000E-02 0. -1.
        -13    1    1    2    0    0  0.10396590484E+02 -0.24800310665E+01 -0.14506992046E+02  0.18019534913E+02  0.10570000000E+00 0. -1.
         13    1    1    2    0    0 -0.10396590484E+02  0.24800310665E+01 -0.30284758109E+02  0.32115687661E+02  0.10570000000E+00 0.  1.
<mgrwt>
<rscale>  0 0.22521982E+02</rscale>
<asrwt>0</asrwt>
<pdfrwt beam="1">  1        1 0.41103637E-03 0.22521982E+02</pdfrwt>
<pdfrwt beam="2">  1       -1 0.73020742E-02 0.22521982E+02</pdfrwt>
<totfact> 0.26969225E+06</totfact>
</mgrwt>
</event>
<event>
 4    1  0.4261729E-001  0.2901427E+02  0.7818608E-02  0.1609247E+00
         -1   -1    0    0    0  501 -0.00000000000E+00  0.00000000000E+00  0.24289540564E+02  0.24289541013E+02  0.46700000000E-02 0.  1.
          1   -1    0    0  501    0  0.00000000000E+00 -0.00000000000E+00 -0.86645112494E+01  0.86645125079E+01  0.46700000000E-02 0. -1.
        -13    1    1    2    0    0 -0.13798225629E+02 -0.10958069923E+01  0.12744243903E+02  0.18815385955E+02  0.10570000000E+00 0.  1.
         13    1    1    2    0    0  0.13798225629E+02  0.10958069923E+01  0.28807854112E+01  0.14138667566E+02  0.10570000000E+00 0. -1.
<mgrwt>
<rscale>  0 0.29014274E+02</rscale>
<asrwt>0</asrwt>
<pdfrwt beam="2">  1        1 0.13330019E-02 0.29014274E+02</pdfrwt>
<pdfrwt beam="1">  1       -1 0.37368525E-02 0.29014274E+02</pdfrwt>
<totfact> 0.15961265E+06</totfact>
</mgrwt>
</event>
<event>
 4    1  0.4261729E-001  0.2551769E+02  0.7818608E-02  0.1653676E+00
          1   -1    0    0  501    0  0.00000000000E+00  0.00000000000E+00  0.25624788374E+02  0.25624788799E+02  0.46700000000E-02 0. -1.
         -1   -1    0    0    0  501 -0.00000000000E+00 -0.00000000000E+00 -0.63527581654E+01  0.63527598819E+01  0.46700000000E-02 0.  1.
        -13    1    1    2    0    0 -0.12518434711E+02  0.23015645152E+01  0.85374225768E+01  0.15326681427E+02  0.10570000000E+00 0.  1.
         13    1    1    2    0    0  0.12518434711E+02 -0.23015645152E+01  0.10734607631E+02  0.16650867254E+02  0.10570000000E+00 0. -1.
<mgrwt>
<rscale>  0 0.25517689E+02</rscale>
<asrwt>0</asrwt>
<pdfrwt beam="1">  1        1 0.39422754E-02 0.25517689E+02</pdfrwt>
<pdfrwt beam="2">  1       -1 0.97734756E-03 0.25517689E+02</pdfrwt>
<totfact> 0.22997910E+06</totfact>
</mgrwt>
</event>
<event>
 4    1  0.4261729E-001  0.3003876E+02  0.7818608E-02  0.1597661E+00
          1   -1    0    0  501    0  0.00000000000E+00  0.00000000000E+00  0.64263081247E+02  0.64263081417E+02  0.46700000000E-02 0.  1.
         -1   -1    0    0    0  501 -0.00000000000E+00 -0.00000000000E+00 -0.35102836562E+01  0.35102867626E+01  0.46700000000E-02 0. -1.
        -13    1    1    2    0    0  0.92110765988E+01 -0.10715099212E+02  0.41861595628E+02  0.44182141689E+02  0.10570000000E+00 0.  1.
         13    1    1    2    0    0 -0.92110765988E+01  0.10715099212E+02  0.18891201964E+02  0.23591226491E+02  0.10570000000E+00 0. -1.
<mgrwt>
<rscale>  0 0.30038759E+02</rscale>
<asrwt>0</asrwt>
<pdfrwt beam="1">  1        1 0.98866282E-02 0.30038759E+02</pdfrwt>
<pdfrwt beam="2">  1       -1 0.54004389E-03 0.30038759E+02</pdfrwt>
<totfact> 0.16722564E+06</totfact>
</mgrwt>
</event>
<event>
 4    1  0.4261729E-001  0.2354594E+02  0.7818608E-02  0.1682810E+00
          1   -1    0    0  501    0  0.00000000000E+00  0.00000000000E+00  0.15796772389E+02  0.15796773079E+02  0.46700000000E-02 0.  1.
         -1   -1    0    0    0  501 -0.00000000000E+00 -0.00000000000E+00 -0.87741195484E+01  0.87741207912E+01  0.46700000000E-02 0. -1.
        -13    1    1    2    0    0  0.27770954496E+01  0.11404732883E+02  0.44513317997E+01  0.12554111620E+02  0.10570000000E+00 0.  1.
         13    1    1    2    0    0 -0.27770954496E+01 -0.11404732883E+02  0.25713210410E+01  0.12016782251E+02  0.10570000000E+00 0. -1.
<mgrwt>
<rscale>  0 0.23545937E+02</rscale>
<asrwt>0</asrwt>
<pdfrwt beam="1">  1        1 0.24302728E-02 0.23545937E+02</pdfrwt>
<pdfrwt beam="2">  1       -1 0.13498647E-02 0.23545937E+02</pdfrwt>
<totfact> 0.27081587E+06</totfact>
</mgrwt>
</event>
<event>
 4    1  0.4261729E-001  0.6548485E+02  0.7818608E-02  0.1376157E+00
          1   -1    0    0  501    0  0.00000000000E+00  0.00000000000E+00  0.10494080416E+03  0.10494080427E+03  0.46700000000E-02 0. -1.
         -1   -1    0    0    0  501 -0.00000000000E+00 -0.00000000000E+00 -0.10215913659E+02  0.10215914727E+02  0.46700000000E-02 0.  1.
        -13    1    1    2    0    0  0.32607412889E+02  0.24129742657E+01  0.44322043293E+02  0.55077404752E+02  0.10570000000E+00 0.  1.
         13    1    1    2    0    0 -0.32607412889E+02 -0.24129742657E+01  0.50402847210E+02  0.60079314239E+02  0.10570000000E+00 0. -1.
<mgrwt>
<rscale>  0 0.65484846E+02</rscale>
<asrwt>0</asrwt>
<pdfrwt beam="1">  1        1 0.16144740E-01 0.65484846E+02</pdfrwt>
<pdfrwt beam="2">  1       -1 0.15716791E-02 0.65484846E+02</pdfrwt>
<totfact> 0.25433795E+05</totfact>
</mgrwt>
</event>
<event>
 4    1  0.4261729E-001  0.2550439E+02  0.7818608E-02  0.1653861E+00
         -1   -1    0    0    0  501 -0.00000000000E+00  0.00000000000E+00  0.84678990634E+01  0.84679003511E+01  0.46700000000E-02 0.  1.
          1   -1    0    0  501    0  0.00000000000E+00 -0.00000000000E+00 -0.19204108980E+02  0.19204109548E+02  0.46700000000E-02 0. -1.
        -13    1    1    2    0    0  0.95230094231E+01  0.45237581714E+01 -0.13150986995E+02  0.16855614136E+02  0.10570000000E+00 0. -1.
         13    1    1    2    0    0 -0.95230094231E+01 -0.45237581714E+01  0.24147770788E+01  0.10816395763E+02  0.10570000000E+00 0.  1.
<mgrwt>
<rscale>  0 0.25504390E+02</rscale>
<asrwt>0</asrwt>
<pdfrwt beam="2">  1        1 0.29544785E-02 0.25504390E+02</pdfrwt>
<pdfrwt beam="1">  1       -1 0.13027538E-02 0.25504390E+02</pdfrwt>
<totfact> 0.22688487E+06</totfact>
</mgrwt>
</event>
<event>
 4    1  0.4261729E-001  0.7512856E+02  0.7818608E-02  0.1343473E+00
         -1   -1    0    0    0  501 -0.00000000000E+00  0.00000000000E+00  0.19790137107E+02  0.19790137658E+02  0.46700000000E-02 0.  1.
          1   -1    0    0  501    0  0.00000000000E+00 -0.00000000000E+00 -0.71301929799E+02  0.71301929952E+02  0.46700000000E-02 0. -1.
        -13    1    1    2    0    0  0.35169222316E+02  0.19136896765E+01 -0.41589239565E+02  0.54499655289E+02  0.10570000000E+00 0. -1.
         13    1    1    2    0    0 -0.35169222316E+02 -0.19136896765E+01 -0.99225531263E+01  0.36592412322E+02  0.10570000000E+00 0.  1.
<mgrwt>
<rscale>  0 0.75128556E+02</rscale>
<asrwt>0</asrwt>
<pdfrwt beam="2">  1        1 0.10969528E-01 0.75128556E+02</pdfrwt>
<pdfrwt beam="1">  1       -1 0.30446366E-02 0.75128556E+02</pdfrwt>
<totfact> 0.16746058E+05</totfact>
</mgrwt>
</event>
<event>
 4    1  0.4261729E-001  0.2015960E+02  0.7818608E-02  0.1742173E+00
          1   -1    0    0  501    0  0.00000000000E+00  0.00000000000E+00  0.12422262782E+02  0.12422263659E+02  0.46700000000E-02 0.  1.
         -1   -1    0    0    0  501 -0.00000000000E+00 -0.00000000000E+00 -0.81790508904E+01  0.81790522237E+01  0.46700000000E-02 0. -1.
        -13    1    1    2    0    0  0.83378972894E+00  0.10044307991E+02  0.22120979457E+01  0.10319296398E+02  0.10570000000E+00 0.  1.
         13    1    1    2    0    0 -0.83378972894E+00 -0.10044307991E+02  0.20311139454E+01  0.10282019485E+02  0.10570000000E+00 0. -1.
<mgrwt>
<rscale>  0 0.20159597E+02</rscale>
<asrwt>0</asrwt>
<pdfrwt beam="1">  1        1 0.19111175E-02 0.20159597E+02</pdfrwt>
<pdfrwt beam="2">  1       -1 0.12583157E-02 0.20159597E+02</pdfrwt>
<totfact> 0.38263010E+06</totfact>
</mgrwt>
</event>
<event>
 4    1  0.4261729E-001  0.3676923E+02  0.7818608E-02  0.1533428E+00
         -1   -1    0    0    0  501 -0.00000000000E+00  0.00000000000E+00  0.57399807605E+02  0.57399807795E+02  0.46700000000E-02 0. -1.
          1   -1    0    0  501    0  0.00000000000E+00 -0.00000000000E+00 -0.58884173172E+01  0.58884191691E+01  0.46700000000E-02 0.  1.
        -13    1    1    2    0    0 -0.10041162069E+02  0.11666991668E+02  0.84542049655E+01  0.17562129266E+02  0.10570000000E+00 0.  1.
         13    1    1    2    0    0  0.10041162069E+02 -0.11666991668E+02  0.43057185322E+02  0.45726097697E+02  0.10570000000E+00 0. -1.
<mgrwt>
<rscale>  0 0.36769231E+02</rscale>
<asrwt>0</asrwt>
<pdfrwt beam="2">  1        1 0.90591051E-03 0.36769231E+02</pdfrwt>
<pdfrwt beam="1">  1       -1 0.88307398E-02 0.36769231E+02</pdfrwt>
<totfact> 0.84835069E+05</totfact>
</mgrwt>
</event>
<event>
 4    1  0.4261729E-001  0.3754794E+02  0.7818608E-02  0.1527072E+00
         -1   -1    0    0    0  501 -0.00000000000E+00  0.00000000000E+00  0.67767770706E+01  0.67767786797E+01  0.46700000000E-02 0.  1.
          1   -1    0    0  501    0  0.00000000000E+00 -0.00000000000E+00 -0.52010246615E+02  0.52010246825E+02  0.46700000000E-02 0. -1.
        -13    1    1    2    0    0  0.95035708236E+01  0.14905360686E+02 -0.32514221851E+02  0.37009099296E+02  0.10570000000E+00 0. -1.
         13    1    1    2    0    0 -0.95035708236E+01 -0.14905360686E+02 -0.12719247693E+02  0.21777926209E+02  0.10570000000E+00 0.  1.
<mgrwt>
<rscale>  0 0.37547937E+02</rscale>
<asrwt>0</asrwt>
<pdfrwt beam="2">  1        1 0.80015763E-02 0.37547937E+02</pdfrwt>
<pdfrwt beam="1">  1       -1 0.10425813E-02 0.37547937E+02</pdfrwt>
<totfact> 0.95823991E+05</totfact>
</mgrwt>
</event>
<event>
 4    1  0.4261729E-001  0.3013864E+02  0.7818608E-02  0.1596561E+00
         -1   -1    0    0    0  501 -0.00000000000E+00  0.00000000000E+00  0.35657187383E+02  0.35657187688E+02  0.46700000000E-02 0.  1.
          1   -1    0    0  501    0  0.00000000000E+00 -0.00000000000E+00 -0.63685446441E+01  0.63685463563E+01  0.46700000000E-02 0. -1.
        -13    1    1    2    0    0  0.53860670082E+01 -0.13505469206E+02  0.91252180913E+01  0.17166484614E+02  0.10570000000E+00 0. -1.
         13    1    1    2    0    0 -0.53860670082E+01  0.13505469206E+02  0.20163424647E+02  0.24859249431E+02  0.10570000000E+00 0.  1.
<mgrwt>
<rscale>  0 0.30138642E+02</rscale>
<asrwt>0</asrwt>
<pdfrwt beam="2">  1        1 0.97977622E-03 0.30138642E+02</pdfrwt>
<pdfrwt beam="1">  1       -1 0.54857215E-02 0.30138642E+02</pdfrwt>
<totfact> 0.14204582E+06</totfact>
</mgrwt>
</event>
<event>
 4    1  0.4261729E-001  0.2609633E+02  0.7818608E-02  0.1645737E+00
         -1   -1    0    0    0  501 -0.00000000000E+00  0.00000000000E+00  0.41891226492E+02  0.41891226753E+02  0.46700000000E-02 0. -1.
          1   -1    0    0  501    0  0.00000000000E+00 -0.00000000000E+00 -0.40642045640E+01  0.40642072471E+01  0.46700000000E-02 0.  1.
        -13    1    1    2    0    0  0.10019058565E+02 -0.20749641565E+01  0.33171721230E+02  0.34713992461E+02  0.10570000000E+00 0. -1.
         13    1    1    2    0    0 -0.10019058565E+02  0.20749641565E+01  0.46553006987E+01  0.11241441539E+02  0.10570000000E+00 0.  1.
<mgrwt>
<rscale>  0 0.26096328E+02</rscale>
<asrwt>0</asrwt>
<pdfrwt beam="2">  1        1 0.62526249E-03 0.26096328E+02</pdfrwt>
<pdfrwt beam="1">  1       -1 0.64448041E-02 0.26096328E+02</pdfrwt>
<totfact> 0.19540796E+06</totfact>
</mgrwt>
</event>
<event>
 4    1  0.4261729E-001  0.3242718E+02  0.7818608E-02  0.1572711E+00
          1   -1    0    0  501    0  0.00000000000E+00  0.00000000000E+00  0.69581644112E+01  0.69581659784E+01  0.46700000000E-02 0. -1.
         -1   -1    0    0    0  501 -0.00000000000E+00 -0.00000000000E+00 -0.37780148639E+02  0.37780148928E+02  0.46700000000E-02 0.  1.
        -13    1    1    2    0    0 -0.10599544839E+02  0.97016122375E+01 -0.25771980970E+02  0.29507250065E+02  0.10570000000E+00 0.  1.
         13    1    1    2    0    0  0.10599544839E+02 -0.97016122375E+01 -0.50500032580E+01  0.15231064841E+02  0.10570000000E+00 0. -1.
<mgrwt>
<rscale>  0 0.32427182E+02</rscale>
<asrwt>0</asrwt>
<pdfrwt beam="1">  1        1 0.10704870E-02 0.32427182E+02</pdfrwt>
<pdfrwt beam="2">  1       -1 0.58123306E-02 0.32427182E+02</pdfrwt>
<totfact> 0.11908601E+06</totfact>
</mgrwt>
</event>
<event>
 4    1  0.4261729E-001  0.3617068E+02  0.7818608E-02  0.1538444E+00
         -1   -1    0    0    0  501 -0.00000000000E+00  0.00000000000E+00  0.48509443276E+02  0.48509443501E+02  0.46700000000E-02 0. -1.
          1   -1    0    0  501    0  0.00000000000E+00 -0.00000000000E+00 -0.67425943790E+01  0.67425959962E+01  0.46700000000E-02 0.  1.
        -13    1    1    2    0    0  0.15134466635E+02 -0.89359748191E+00  0.35944794332E+02  0.39011408701E+02  0.10570000000E+00 0. -1.
         13    1    1    2    0    0 -0.15134466635E+02  0.89359748191E+00  0.58220545651E+01  0.16240630796E+02  0.10570000000E+00 0.  1.
<mgrwt>
<rscale>  0 0.36170682E+02</rscale>
<asrwt>0</asrwt>
<pdfrwt beam="2">  1        1 0.10373224E-02 0.36170682E+02</pdfrwt>
<pdfrwt beam="1">  1       -1 0.74629913E-02 0.36170682E+02</pdfrwt>
<totfact> 0.89827980E+05</totfact>
</mgrwt>
</event>
<event>
 4    1  0.4261729E-001  0.2423367E+02  0.7818608E-02  0.1672259E+00
          1   -1    0    0  501    0  0.00000000000E+00  0.00000000000E+00  0.51884698507E+02  0.51884698717E+02  0.46700000000E-02 0.  1.
         -1   -1    0    0    0  501 -0.00000000000E+00 -0.00000000000E+00 -0.28296887137E+01  0.28296925673E+01  0.46700000000E-02 0. -1.
        -13    1    1    2    0    0 -0.84665080315E+01 -0.84932772330E+01  0.20624104799E+02  0.23857543622E+02  0.10570000000E+00 0.  1.
         13    1    1    2    0    0  0.84665080315E+01  0.84932772330E+01  0.28430904993E+02  0.30856847662E+02  0.10570000000E+00 0. -1.
<mgrwt>
<rscale>  0 0.24233667E+02</rscale>
<asrwt>0</asrwt>
<pdfrwt beam="1">  1        1 0.79822620E-02 0.24233667E+02</pdfrwt>
<pdfrwt beam="2">  1       -1 0.43533702E-03 0.24233667E+02</pdfrwt>
<totfact> 0.27102017E+06</totfact>
</mgrwt>
</event>
<event>
 4    1  0.4261729E-001  0.5499387E+02  0.7818608E-02  0.1420128E+00
         -1   -1    0    0    0  501 -0.00000000000E+00  0.00000000000E+00  0.22599687008E+02  0.22599687491E+02  0.46700000000E-02 0.  1.
          1   -1    0    0  501    0  0.00000000000E+00 -0.00000000000E+00 -0.33455395406E+02  0.33455395732E+02  0.46700000000E-02 0. -1.
        -13    1    1    2    0    0 -0.58690122653E+01  0.93661283645E+01 -0.31091083365E+02  0.32997519646E+02  0.10570000000E+00 0. -1.
         13    1    1    2    0    0  0.58690122653E+01 -0.93661283645E+01  0.20235374967E+02  0.23057563576E+02  0.10570000000E+00 0.  1.
<mgrwt>
<rscale>  0 0.54993872E+02</rscale>
<asrwt>0</asrwt>
<pdfrwt beam="2">  1        1 0.51469840E-02 0.54993872E+02</pdfrwt>
<pdfrwt beam="1">  1       -1 0.34768750E-02 0.54993872E+02</pdfrwt>
<totfact> 0.35056706E+05</totfact>
</mgrwt>
</event>
<event>
 4    1  0.4261729E-001  0.3271307E+02  0.7818608E-02  0.1569900E+00
          1   -1    0    0  501    0  0.00000000000E+00  0.00000000000E+00  0.15180198684E+02  0.15180199403E+02  0.46700000000E-02 0.  1.
         -1   -1    0    0    0  501 -0.00000000000E+00 -0.00000000000E+00 -0.17624021641E+02  0.17624022260E+02  0.46700000000E-02 0. -1.
        -13    1    1    2    0    0  0.17331893145E+01 -0.16121950155E+02 -0.33735318834E+01  0.16562400546E+02  0.10570000000E+00 0. -1.
         13    1    1    2    0    0 -0.17331893145E+01  0.16121950155E+02  0.92970892697E+00  0.16241821116E+02  0.10570000000E+00 0.  1.
<mgrwt>
<rscale>  0 0.32713066E+02</rscale>
<asrwt>0</asrwt>
<pdfrwt beam="1">  1        1 0.23354153E-02 0.32713066E+02</pdfrwt>
<pdfrwt beam="2">  1       -1 0.27113881E-02 0.32713066E+02</pdfrwt>
<totfact> 0.12324659E+06</totfact>
</mgrwt>
</event>
<event>
 4    1  0.4261729E-001  0.6108699E+02  0.7818608E-02  0.1393326E+00
          1   -1    0    0  501    0  0.00000000000E+00  0.00000000000E+00  0.14043716961E+02  0.14043717738E+02  0.46700000000E-02 0. -1.
         -1   -1    0    0    0  501 -0.00000000000E+00 -0.00000000000E+00 -0.66428652653E+02  0.66428652818E+02  0.46700000000E-02 0.  1.
        -13    1    1    2    0    0 -0.89364879030E+01  0.26019329644E+02 -0.43670340833E+02  0.51613720774E+02  0.10570000000E+00 0. -1.
         13    1    1    2    0    0  0.89364879030E+01 -0.26019329644E+02 -0.87145948586E+01  0.28858649781E+02  0.10570000000E+00 0.  1.
<mgrwt>
<rscale>  0 0.61086995E+02</rscale>
<asrwt>0</asrwt>
<pdfrwt beam="1">  1        1 0.21605720E-02 0.61086995E+02</pdfrwt>
<pdfrwt beam="2">  1       -1 0.10219793E-01 0.61086995E+02</pdfrwt>
<totfact> 0.24020011E+05</totfact>
</mgrwt>
</event>
<event>
 4    1  0.4261729E-001  0.4080815E+02  0.7818608E-02  0.1502347E+00
          1   -1    0    0  501    0  0.00000000000E+00  0.00000000000E+00  0.34329427013E+01  0.34329458777E+01  0.46700000000E-02 0. -1.
         -1   -1    0    0    0  501 -0.00000000000E+00 -0.00000000000E+00 -0.12127379051E+03  0.12127379060E+03  0.46700000000E-02 0.  1.
        -13    1    1    2    0    0  0.16573160769E+02  0.42436315504E+01 -0.24940908559E+02  0.30244638514E+02  0.10570000000E+00 0. -1.
         13    1    1    2    0    0 -0.16573160769E+02 -0.42436315504E+01 -0.92899939248E+02  0.94462097962E+02  0.10570000000E+00 0.  1.
<mgrwt>
<rscale>  0 0.40808145E+02</rscale>
<asrwt>0</asrwt>
<pdfrwt beam="1">  1        1 0.52814537E-03 0.40808145E+02</pdfrwt>
<pdfrwt beam="2">  1       -1 0.18657503E-01 0.40808145E+02</pdfrwt>
<totfact> 0.59159916E+05</totfact>
</mgrwt>
</event>
<event>
 4    1  0.4261729E-001  0.2240914E+02  0.7818608E-02  0.1701271E+00
          1   -1    0    0  501    0  0.00000000000E+00  0.00000000000E+00  0.13960266778E+01  0.13960344888E+01  0.46700000000E-02 0. -1.
         -1   -1    0    0    0  501 -0.00000000000E+00 -0.00000000000E+00 -0.89928124509E+02  0.89928124631E+02  0.46700000000E-02 0.  1.
        -13    1    1    2    0    0  0.95797723003E+01 -0.54543804406E+01 -0.52425775495E+02  0.53572338123E+02  0.10570000000E+00 0.  1.
         13    1    1    2    0    0 -0.95797723003E+01  0.54543804406E+01 -0.36106322337E+02  0.37751820996E+02  0.10570000000E+00 0. -1.
<mgrwt>
<rscale>  0 0.22409143E+02</rscale>
<asrwt>0</asrwt>
<pdfrwt beam="1">  1        1 0.21477402E-03 0.22409143E+02</pdfrwt>
<pdfrwt beam="2">  1       -1 0.13835092E-01 0.22409143E+02</pdfrwt>
<totfact> 0.25205249E+06</totfact>
</mgrwt>
</event>
<event>
 4    1  0.4261729E-001  0.2099131E+02  0.7818608E-02  0.1726304E+00
          1   -1    0    0  501    0  0.00000000000E+00  0.00000000000E+00  0.12892671959E+01  0.12892756537E+01  0.46700000000E-02 0.  1.
         -1   -1    0    0    0  501 -0.00000000000E+00 -0.00000000000E+00 -0.85442639740E+02  0.85442639868E+02  0.46700000000E-02 0. -1.
        -13    1    1    2    0    0 -0.43452414011E+01 -0.94093750701E+01 -0.35249667399E+02  0.36741906405E+02  0.10570000000E+00 0. -1.
         13    1    1    2    0    0  0.43452414011E+01  0.94093750701E+01 -0.48903705145E+02  0.49990009117E+02  0.10570000000E+00 0.  1.
<mgrwt>
<rscale>  0 0.20991309E+02</rscale>
<asrwt>0</asrwt>
<pdfrwt beam="1">  1        1 0.19834953E-03 0.20991309E+02</pdfrwt>
<pdfrwt beam="2">  1       -1 0.13145018E-01 0.20991309E+02</pdfrwt>
<totfact> 0.29374374E+06</totfact>
</mgrwt>
</event>
<event>
 4    1  0.4261729E-001  0.2026318E+02  0.7818608E-02  0.1740145E+00
          1   -1    0    0  501    0  0.00000000000E+00  0.00000000000E+00  0.37193219767E+02  0.37193220060E+02  0.46700000000E-02 0. -1.
         -1   -1    0    0    0  501 -0.00000000000E+00 -0.00000000000E+00 -0.27598847109E+01  0.27598886620E+01  0.46700000000E-02 0.  1.
        -13    1    1    2    0    0 -0.86209848904E+01 -0.52972791993E+01  0.16220293403E+02  0.19117835599E+02  0.10570000000E+00 0. -1.
         13    1    1    2    0    0  0.86209848904E+01  0.52972791993E+01  0.18213041652E+02  0.20835273123E+02  0.10570000000E+00 0.  1.
<mgrwt>
<rscale>  0 0.20263177E+02</rscale>
<asrwt>0</asrwt>
<pdfrwt beam="1">  1        1 0.57220341E-02 0.20263177E+02</pdfrwt>
<pdfrwt beam="2">  1       -1 0.42459798E-03 0.20263177E+02</pdfrwt>
<totfact> 0.39756087E+06</totfact>
</mgrwt>
</event>
<event>
 4    1  0.4261729E-001  0.2592731E+02  0.7818608E-02  0.1648029E+00
          1   -1    0    0  501    0  0.00000000000E+00  0.00000000000E+00  0.38778591215E+02  0.38778591497E+02  0.46700000000E-02 0.  1.
         -1   -1    0    0    0  501 -0.00000000000E+00 -0.00000000000E+00 -0.43337390282E+01  0.43337415444E+01  0.46700000000E-02 0. -1.
        -13    1    1    2    0    0 -0.10251084687E+02  0.36673541451E+01  0.28922664924E+02  0.30904141186E+02  0.10570000000E+00 0.  1.
         13    1    1    2    0    0  0.10251084687E+02 -0.36673541451E+01  0.55221872635E+01  0.12208191855E+02  0.10570000000E+00 0. -1.
<mgrwt>
<rscale>  0 0.25927310E+02</rscale>
<asrwt>0</asrwt>
<pdfrwt beam="1">  1        1 0.59659376E-02 0.25927310E+02</pdfrwt>
<pdfrwt beam="2">  1       -1 0.66672927E-03 0.25927310E+02</pdfrwt>
<totfact> 0.22708157E+06</totfact>
</mgrwt>
</event>
<event>
 4    1  0.4261729E-001  0.2446856E+02  0.7818608E-02  0.1668755E+00
         -1   -1    0    0    0  501 -0.00000000000E+00  0.00000000000E+00  0.40177899331E+02  0.40177899603E+02  0.46700000000E-02 0. -1.
          1   -1    0    0  501    0  0.00000000000E+00 -0.00000000000E+00 -0.37253693983E+01  0.37253723253E+01  0.46700000000E-02 0.  1.
        -13    1    1    2    0    0  0.36451586391E+01  0.10247732552E+02  0.28274707691E+02  0.30294776307E+02  0.10570000000E+00 0. -1.
         13    1    1    2    0    0 -0.36451586391E+01 -0.10247732552E+02  0.81778222418E+01  0.13608495621E+02  0.10570000000E+00 0.  1.
<mgrwt>
<rscale>  0 0.24468558E+02</rscale>
<asrwt>0</asrwt>
<pdfrwt beam="2">  1        1 0.57313396E-03 0.24468558E+02</pdfrwt>
<pdfrwt beam="1">  1       -1 0.61812159E-02 0.24468558E+02</pdfrwt>
<totfact> 0.22717256E+06</totfact>
</mgrwt>
</event>
<event>
 4    1  0.4261729E-001  0.8476306E+02  0.7818608E-02  0.1316053E+00
         -1   -1    0    0    0  501 -0.00000000000E+00  0.00000000000E+00  0.19502642864E+02  0.19502643424E+02  0.46700000000E-02 0. -1.
          1   -1    0    0  501    0  0.00000000000E+00 -0.00000000000E+00 -0.92100022112E+02  0.92100022230E+02  0.46700000000E-02 0.  1.
        -13    1    1    2    0    0 -0.39339426321E+02 -0.15647056375E+02 -0.38852388805E+02  0.57462510603E+02  0.10570000000E+00 0.  1.
         13    1    1    2    0    0  0.39339426321E+02  0.15647056375E+02 -0.33744990443E+02  0.54140155051E+02  0.10570000000E+00 0. -1.
<mgrwt>
<rscale>  0 0.84763055E+02</rscale>
<asrwt>0</asrwt>
<pdfrwt beam="2">  1        1 0.14169234E-01 0.84763055E+02</pdfrwt>
<pdfrwt beam="1">  1       -1 0.30004067E-02 0.84763055E+02</pdfrwt>
<totfact> 0.12563760E+05</totfact>
</mgrwt>
</event>
<event>
 4    1  0.4261729E-001  0.3303911E+02  0.7818608E-02  0.1566737E+00
          1   -1    0    0  501    0  0.00000000000E+00  0.00000000000E+00  0.21855114056E+02  0.21855114555E+02  0.46700000000E-02 0. -1.
         -1   -1    0    0    0  501 -0.00000000000E+00 -0.00000000000E+00 -0.12486579645E+02  0.12486580518E+02  0.46700000000E-02 0.  1.
        -13    1    1    2    0    0  0.15543406714E+02  0.52512183714E+01  0.26817369553E+01  0.16624550287E+02  0.10570000000E+00 0.  1.
         13    1    1    2    0    0 -0.15543406714E+02 -0.52512183714E+01  0.66867974554E+01  0.17717144786E+02  0.10570000000E+00 0. -1.
<mgrwt>
<rscale>  0 0.33039107E+02</rscale>
<asrwt>0</asrwt>
<pdfrwt beam="1">  1        1 0.33623253E-02 0.33039107E+02</pdfrwt>
<pdfrwt beam="2">  1       -1 0.19210124E-02 0.33039107E+02</pdfrwt>
<totfact> 0.12302964E+06</totfact>
</mgrwt>
</event>
<event>
 4    1  0.4261729E-001  0.3181945E+02  0.7818608E-02  0.1578806E+00
          1   -1    0    0  501    0  0.00000000000E+00  0.00000000000E+00  0.62107047132E+02  0.62107047308E+02  0.46700000000E-02 0.  1.
         -1   -1    0    0    0  501 -0.00000000000E+00 -0.00000000000E+00 -0.40755328342E+01  0.40755355098E+01  0.46700000000E-02 0. -1.
        -13    1    1    2    0    0  0.13853251104E+02 -0.32290257044E+01  0.43835837262E+02  0.46086125614E+02  0.10570000000E+00 0.  1.
         13    1    1    2    0    0 -0.13853251104E+02  0.32290257044E+01  0.14195677036E+02  0.20096457204E+02  0.10570000000E+00 0. -1.
<mgrwt>
<rscale>  0 0.31819453E+02</rscale>
<asrwt>0</asrwt>
<pdfrwt beam="1">  1        1 0.95549303E-02 0.31819453E+02</pdfrwt>
<pdfrwt beam="2">  1       -1 0.62700529E-03 0.31819453E+02</pdfrwt>
<totfact> 0.14534758E+06</totfact>
</mgrwt>
</event>
<event>
 4    1  0.4261729E-001  0.2182262E+02  0.7818608E-02  0.1711338E+00
         -1   -1    0    0    0  501 -0.00000000000E+00  0.00000000000E+00  0.96997076357E+01  0.96997087599E+01  0.46700000000E-02 0.  1.
          1   -1    0    0  501    0  0.00000000000E+00 -0.00000000000E+00 -0.12274251208E+02  0.12274252096E+02  0.46700000000E-02 0. -1.
        -13    1    1    2    0    0  0.29993241183E+01 -0.10336472914E+02 -0.30904674748E+01  0.11198248933E+02  0.10570000000E+00 0.  1.
         13    1    1    2    0    0 -0.29993241183E+01  0.10336472914E+02  0.51592390300E+00  0.10775711922E+02  0.10570000000E+00 0. -1.
<mgrwt>
<rscale>  0 0.21822619E+02</rscale>
<asrwt>0</asrwt>
<pdfrwt beam="2">  1        1 0.18883465E-02 0.21822619E+02</pdfrwt>
<pdfrwt beam="1">  1       -1 0.14922629E-02 0.21822619E+02</pdfrwt>
<totfact> 0.31917385E+06</totfact>
</mgrwt>
</event>
<event>
 4    1  0.4261729E-001  0.1138133E+03  0.7818608E-02  0.1253667E+00
         -1   -1    0    0    0  501 -0.00000000000E+00  0.00000000000E+00  0.86838547248E+02  0.86838547373E+02  0.46700000000E-02 0.  1.
          1   -1    0    0  501    0  0.00000000000E+00 -0.00000000000E+00 -0.37291838245E+02  0.37291838538E+02  0.46700000000E-02 0. -1.
        -13    1    1    2    0    0  0.52188707772E+02  0.12464627802E+02  0.40990207651E+01  0.53813021741E+02  0.10570000000E+00 0. -1.
         13    1    1    2    0    0 -0.52188707772E+02 -0.12464627802E+02  0.45447688237E+02  0.70317364170E+02  0.10570000000E+00 0.  1.
<mgrwt>
<rscale>  0 0.11381334E+03</rscale>
<asrwt>0</asrwt>
<pdfrwt beam="2">  1        1 0.57372060E-02 0.11381334E+03</pdfrwt>
<pdfrwt beam="1">  1       -1 0.13359776E-01 0.11381334E+03</pdfrwt>
<totfact> 0.47188350E+04</totfact>
</mgrwt>
</event>
<event>
 4    1  0.4261729E-001  0.3193675E+02  0.7818608E-02  0.1577617E+00
          1   -1    0    0  501    0  0.00000000000E+00  0.00000000000E+00  0.74844261008E+02  0.74844261154E+02  0.46700000000E-02 0.  1.
         -1   -1    0    0    0  501 -0.00000000000E+00 -0.00000000000E+00 -0.34069258567E+01  0.34069290574E+01  0.46700000000E-02 0. -1.
        -13    1    1    2    0    0 -0.10208606511E+02 -0.11658366824E+02  0.26278382175E+02  0.30507338562E+02  0.10570000000E+00 0.  1.
         13    1    1    2    0    0  0.10208606511E+02  0.11658366824E+02  0.45158952977E+02  0.47743851650E+02  0.10570000000E+00 0. -1.
<mgrwt>
<rscale>  0 0.31936749E+02</rscale>
<asrwt>0</asrwt>
<pdfrwt beam="1">  1        1 0.11514502E-01 0.31936749E+02</pdfrwt>
<pdfrwt beam="2">  1       -1 0.52414271E-03 0.31936749E+02</pdfrwt>
<totfact> 0.14672373E+06</totfact>
</mgrwt>
</event>
<event>
 4    1  0.4261729E-001  0.4628283E+02  0.7818608E-02  0.1466489E+00
          1   -1    0    0  501    0  0.00000000000E+00  0.00000000000E+00  0.15285638382E+02  0.15285639095E+02  0.46700000000E-02 0. -1.
         -1   -1    0    0    0  501 -0.00000000000E+00 -0.00000000000E+00 -0.35034517068E+02  0.35034517379E+02  0.46700000000E-02 0.  1.
        -13    1    1    2    0    0  0.48480838594E+01  0.10566786148E+02  0.11879785942E+02  0.16622315516E+02  0.10570000000E+00 0. -1.
         13    1    1    2    0    0 -0.48480838594E+01 -0.10566786148E+02 -0.31628664628E+02  0.33697840958E+02  0.10570000000E+00 0.  1.
<mgrwt>
<rscale>  0 0.46282826E+02</rscale>
<asrwt>0</asrwt>
<pdfrwt beam="1">  1        1 0.23516368E-02 0.46282826E+02</pdfrwt>
<pdfrwt beam="2">  1       -1 0.53899258E-02 0.46282826E+02</pdfrwt>
<totfact> 0.51165896E+05</totfact>
</mgrwt>
</event>
<event>
 4    1  0.4261729E-001  0.3061329E+02  0.7818608E-02  0.1591407E+00
         -1   -1    0    0    0  501 -0.00000000000E+00  0.00000000000E+00  0.19743283582E+01  0.19743338813E+01  0.46700000000E-02 0.  1.
          1   -1    0    0  501    0  0.00000000000E+00 -0.00000000000E+00 -0.11866978229E+03  0.11866978238E+03  0.46700000000E-02 0. -1.
        -13    1    1    2    0    0 -0.13382779915E+02  0.49752144067E+01 -0.80087361009E+02  0.81350157483E+02  0.10570000000E+00 0. -1.
         13    1    1    2    0    0  0.13382779915E+02 -0.49752144067E+01 -0.36608092921E+02  0.39293958778E+02  0.10570000000E+00 0.  1.
<mgrwt>
<rscale>  0 0.30613295E+02</rscale>
<asrwt>0</asrwt>
<pdfrwt beam="2">  1        1 0.18256884E-01 0.30613295E+02</pdfrwt>
<pdfrwt beam="1">  1       -1 0.30374335E-03 0.30613295E+02</pdfrwt>
<totfact> 0.17121599E+06</totfact>
</mgrwt>
</event>
<event>
 4    1  0.4261729E-001  0.3771361E+02  0.7818608E-02  0.1525744E+00
          1   -1    0    0  501    0  0.00000000000E+00  0.00000000000E+00  0.36820429128E+02  0.36820429424E+02  0.46700000000E-02 0.  1.
         -1   -1    0    0    0  501 -0.00000000000E+00 -0.00000000000E+00 -0.96571125386E+01  0.96571136678E+01  0.46700000000E-02 0. -1.
        -13    1    1    2    0    0 -0.29215559580E+01  0.17237073418E+02  0.22288560302E+02  0.28327429853E+02  0.10570000000E+00 0.  1.
         13    1    1    2    0    0  0.29215559580E+01 -0.17237073418E+02  0.48747562879E+01  0.18150113239E+02  0.10570000000E+00 0. -1.
<mgrwt>
<rscale>  0 0.37713608E+02</rscale>
<asrwt>0</asrwt>
<pdfrwt beam="1">  1        1 0.56646814E-02 0.37713608E+02</pdfrwt>
<pdfrwt beam="2">  1       -1 0.14857098E-02 0.37713608E+02</pdfrwt>
<totfact> 0.92147564E+05</totfact>
</mgrwt>
</event>
<event>
 4    1  0.4261729E-001  0.2493913E+02  0.7818608E-02  0.1661878E+00
          1   -1    0    0  501    0  0.00000000000E+00  0.00000000000E+00  0.30214731237E+02  0.30214731598E+02  0.46700000000E-02 0. -1.
         -1   -1    0    0    0  501 -0.00000000000E+00 -0.00000000000E+00 -0.51461652908E+01  0.51461674097E+01  0.46700000000E-02 0.  1.
        -13    1    1    2    0    0 -0.11000365253E+02  0.27234271908E+01  0.19909180563E+02  0.22908769818E+02  0.10570000000E+00 0. -1.
         13    1    1    2    0    0  0.11000365253E+02 -0.27234271908E+01  0.51593853831E+01  0.12452129190E+02  0.10570000000E+00 0.  1.
<mgrwt>
<rscale>  0 0.24939129E+02</rscale>
<asrwt>0</asrwt>
<pdfrwt beam="1">  1        1 0.46484203E-02 0.24939129E+02</pdfrwt>
<pdfrwt beam="2">  1       -1 0.79171794E-03 0.24939129E+02</pdfrwt>
<totfact> 0.24480298E+06</totfact>
</mgrwt>
</event>
<event>
 4    1  0.4261729E-001  0.3665735E+02  0.7818608E-02  0.1534357E+00
         -1   -1    0    0    0  501 -0.00000000000E+00  0.00000000000E+00  0.11301175205E+03  0.11301175215E+03  0.46700000000E-02 0. -1.
          1   -1    0    0  501    0  0.00000000000E+00 -0.00000000000E+00 -0.29726117405E+01  0.29726154088E+01  0.46700000000E-02 0.  1.
        -13    1    1    2    0    0 -0.43786501965E+00  0.18265902015E+02  0.50440809138E+02  0.53648124862E+02  0.10570000000E+00 0. -1.
         13    1    1    2    0    0  0.43786501965E+00 -0.18265902015E+02  0.59598331173E+02  0.62336242695E+02  0.10570000000E+00 0.  1.
<mgrwt>
<rscale>  0 0.36657347E+02</rscale>
<asrwt>0</asrwt>
<pdfrwt beam="2">  1        1 0.45732523E-03 0.36657347E+02</pdfrwt>
<pdfrwt beam="1">  1       -1 0.17386421E-01 0.36657347E+02</pdfrwt>
<totfact> 0.77599325E+05</totfact>
</mgrwt>
</event>
<event>
 4    1  0.4261729E-001  0.2433033E+02  0.7818608E-02  0.1670811E+00
         -1   -1    0    0    0  501 -0.00000000000E+00  0.00000000000E+00  0.71148286763E+01  0.71148302090E+01  0.46700000000E-02 0. -1.
          1   -1    0    0  501    0  0.00000000000E+00 -0.00000000000E+00 -0.20800390963E+02  0.20800391487E+02  0.46700000000E-02 0.  1.
        -13    1    1    2    0    0  0.32539028673E+01  0.11716656644E+02 -0.72270081870E+01  0.14145979875E+02  0.10570000000E+00 0. -1.
         13    1    1    2    0    0 -0.32539028673E+01 -0.11716656644E+02 -0.64585540993E+01  0.13769241821E+02  0.10570000000E+00 0.  1.
<mgrwt>
<rscale>  0 0.24330331E+02</rscale>
<asrwt>0</asrwt>
<pdfrwt beam="2">  1        1 0.32000603E-02 0.24330331E+02</pdfrwt>
<pdfrwt beam="1">  1       -1 0.10945892E-02 0.24330331E+02</pdfrwt>
<totfact> 0.25426131E+06</totfact>
</mgrwt>
</event>
<event>
 4    1  0.4261729E-001  0.6816713E+02  0.7818608E-02  0.1366439E+00
         -1   -1    0    0    0  501 -0.00000000000E+00  0.00000000000E+00  0.85393108833E+01  0.85393121602E+01  0.46700000000E-02 0.  1.
          1   -1    0    0  501    0  0.00000000000E+00 -0.00000000000E+00 -0.13604016100E+03  0.13604016108E+03  0.46700000000E-02 0. -1.
        -13    1    1    2    0    0  0.29215610814E+01 -0.27935375234E+02 -0.10469956700E+03  0.10840171222E+03  0.10570000000E+00 0. -1.
         13    1    1    2    0    0 -0.29215610814E+01  0.27935375234E+02 -0.22801283117E+02  0.36177761026E+02  0.10570000000E+00 0.  1.
<mgrwt>
<rscale>  0 0.68167128E+02</rscale>
<asrwt>0</asrwt>
<pdfrwt beam="2">  1        1 0.20929254E-01 0.68167128E+02</pdfrwt>
<pdfrwt beam="1">  1       -1 0.13137403E-02 0.68167128E+02</pdfrwt>
<totfact> 0.23850279E+05</totfact>
</mgrwt>
</event>
<event>
 4    1  0.4261729E-001  0.2745012E+02  0.7818608E-02  0.1628115E+00
          1   -1    0    0  501    0  0.00000000000E+00  0.00000000000E+00  0.17704342898E+01  0.17704404490E+01  0.46700000000E-02 0. -1.
         -1   -1    0    0    0  501 -0.00000000000E+00 -0.00000000000E+00 -0.10640157630E+03  0.10640157640E+03  0.46700000000E-02 0.  1.
        -13    1    1    2    0    0  0.11502129982E+02  0.56122165929E+01 -0.32782302694E+02  0.35192137071E+02  0.10570000000E+00 0. -1.
         13    1    1    2    0    0 -0.11502129982E+02 -0.56122165929E+01 -0.71848839315E+02  0.72979879779E+02  0.10570000000E+00 0.  1.
<mgrwt>
<rscale>  0 0.27450125E+02</rscale>
<asrwt>0</asrwt>
<pdfrwt beam="1">  1        1 0.27237507E-03 0.27450125E+02</pdfrwt>
<pdfrwt beam="2">  1       -1 0.16369469E-01 0.27450125E+02</pdfrwt>
<totfact> 0.15472982E+06</totfact>
</mgrwt>
</event>
<event>
 4    1  0.4261729E-001  0.3114545E+02  0.7818608E-02  0.1585762E+00
         -1   -1    0    0    0  501 -0.00000000000E+00  0.00000000000E+00  0.35697873100E+02  0.35697873406E+02  0.46700000000E-02 0. -1.
          1   -1    0    0  501    0  0.00000000000E+00 -0.00000000000E+00 -0.67933955534E+01  0.67933971586E+01  0.46700000000E-02 0.  1.
        -13    1    1    2    0    0 -0.91159326388E+01 -0.62569628431E+01  0.29412717490E+02  0.31422427254E+02  0.10570000000E+00 0. -1.
         13    1    1    2    0    0  0.91159326388E+01  0.62569628431E+01 -0.50823994333E+00  0.11068843310E+02  0.10570000000E+00 0.  1.
<mgrwt>
<rscale>  0 0.31145453E+02</rscale>
<asrwt>0</asrwt>
<pdfrwt beam="2">  1        1 0.10451379E-02 0.31145453E+02</pdfrwt>
<pdfrwt beam="1">  1       -1 0.54919806E-02 0.31145453E+02</pdfrwt>
<totfact> 0.13153216E+06</totfact>
</mgrwt>
</event>
<event>
 4    1  0.4261729E-001  0.6007074E+02  0.7818608E-02  0.1397535E+00
          1   -1    0    0  501    0  0.00000000000E+00  0.00000000000E+00  0.71795264346E+01  0.71795279534E+01  0.46700000000E-02 0.  1.
         -1   -1    0    0    0  501 -0.00000000000E+00 -0.00000000000E+00 -0.12565221960E+03  0.12565221969E+03  0.46700000000E-02 0. -1.
        -13    1    1    2    0    0  0.11892113588E+02  0.26663962005E+02 -0.74828931483E+02  0.80322907037E+02  0.10570000000E+00 0. -1.
         13    1    1    2    0    0 -0.11892113588E+02 -0.26663962005E+02 -0.43643761687E+02  0.52508840609E+02  0.10570000000E+00 0.  1.
<mgrwt>
<rscale>  0 0.60070743E+02</rscale>
<asrwt>0</asrwt>
<pdfrwt beam="1">  1        1 0.11045427E-02 0.60070743E+02</pdfrwt>
<pdfrwt beam="2">  1       -1 0.19331109E-01 0.60070743E+02</pdfrwt>
<totfact> 0.22592819E+05</totfact>
</mgrwt>
</event>
<event>
 4    1  0.4261729E-001  0.9892905E+02  0.7818608E-02  0.1282564E+00
          1   -1    0    0  501    0  0.00000000000E+00  0.00000000000E+00  0.24289590347E+03  0.24289590351E+03  0.46700000000E-02 0. -1.
         -1   -1    0    0    0  501 -0.00000000000E+00 -0.00000000000E+00 -0.10073200887E+02  0.10073201970E+02  0.46700000000E-02 0.  1.
        -13    1    1    2    0    0 -0.24630295405E+02 -0.42408911510E+02  0.99926444801E+02  0.11131250051E+03  0.10570000000E+00 0.  1.
         13    1    1    2    0    0  0.24630295405E+02  0.42408911510E+02  0.13289625778E+03  0.14165660497E+03  0.10570000000E+00 0. -1.
<mgrwt>
<rscale>  0 0.98929053E+02</rscale>
<asrwt>0</asrwt>
<pdfrwt beam="1">  1        1 0.37368600E-01 0.98929053E+02</pdfrwt>
<pdfrwt beam="2">  1       -1 0.15497233E-02 0.98929053E+02</pdfrwt>
<totfact> 0.98772167E+04</totfact>
</mgrwt>
</event>
<event>
 4    1  0.4261729E-001  0.3190644E+02  0.7818608E-02  0.1577924E+00
         -1   -1    0    0    0  501 -0.00000000000E+00  0.00000000000E+00  0.27452719008E+02  0.27452719405E+02  0.46700000000E-02 0.  1.
          1   -1    0    0  501    0  0.00000000000E+00 -0.00000000000E+00 -0.92706722184E+01  0.92706733946E+01  0.46700000000E-02 0. -1.
        -13    1    1    2    0    0  0.12525572128E+02  0.94345259384E+01  0.12465112698E+02  0.20032235119E+02  0.10570000000E+00 0. -1.
         13    1    1    2    0    0 -0.12525572128E+02 -0.94345259384E+01  0.57169340916E+01  0.16691157680E+02  0.10570000000E+00 0.  1.
<mgrwt>
<rscale>  0 0.31906437E+02</rscale>
<asrwt>0</asrwt>
<pdfrwt beam="2">  1        1 0.14262574E-02 0.31906437E+02</pdfrwt>
<pdfrwt beam="1">  1       -1 0.42234953E-02 0.31906437E+02</pdfrwt>
<totfact> 0.12685062E+06</totfact>
</mgrwt>
</event>
<event>
 4    1  0.4261729E-001  0.3041221E+02  0.7818608E-02  0.1593576E+00
         -1   -1    0    0    0  501 -0.00000000000E+00  0.00000000000E+00  0.21496511868E+01  0.21496562595E+01  0.46700000000E-02 0. -1.
          1   -1    0    0  501    0  0.00000000000E+00 -0.00000000000E+00 -0.10756409578E+03  0.10756409588E+03  0.46700000000E-02 0.  1.
        -13    1    1    2    0    0  0.22140737729E+01 -0.14536037540E+02 -0.66686625940E+02  0.68288474589E+02  0.10570000000E+00 0.  1.
         13    1    1    2    0    0 -0.22140737729E+01  0.14536037540E+02 -0.38727818651E+02  0.41425277549E+02  0.10570000000E+00 0. -1.
<mgrwt>
<rscale>  0 0.30412206E+02</rscale>
<asrwt>0</asrwt>
<pdfrwt beam="2">  1        1 0.16548319E-01 0.30412206E+02</pdfrwt>
<pdfrwt beam="1">  1       -1 0.33071605E-03 0.30412206E+02</pdfrwt>
<totfact> 0.17172895E+06</totfact>
</mgrwt>
</event>
<event>
 4    1  0.4261729E-001  0.2625189E+02  0.7818608E-02  0.1643645E+00
         -1   -1    0    0    0  501 -0.00000000000E+00  0.00000000000E+00  0.34663874342E+01  0.34663905800E+01  0.46700000000E-02 0.  1.
          1   -1    0    0  501    0  0.00000000000E+00 -0.00000000000E+00 -0.49703130839E+02  0.49703131058E+02  0.46700000000E-02 0. -1.
        -13    1    1    2    0    0  0.64223330258E+01  0.10031063147E+02 -0.11949354220E+02  0.16872072431E+02  0.10570000000E+00 0.  1.
         13    1    1    2    0    0 -0.64223330258E+01 -0.10031063147E+02 -0.34287389184E+02  0.36297449207E+02  0.10570000000E+00 0. -1.
<mgrwt>
<rscale>  0 0.26251887E+02</rscale>
<asrwt>0</asrwt>
<pdfrwt beam="2">  1        1 0.76466353E-02 0.26251887E+02</pdfrwt>
<pdfrwt beam="1">  1       -1 0.53329067E-03 0.26251887E+02</pdfrwt>
<totfact> 0.22451262E+06</totfact>
</mgrwt>
</event>
<event>
 4    1  0.4261729E-001  0.2690154E+02  0.7818608E-02  0.1635101E+00
         -1   -1    0    0    0  501 -0.00000000000E+00  0.00000000000E+00  0.10252864737E+02  0.10252865801E+02  0.46700000000E-02 0. -1.
          1   -1    0    0  501    0  0.00000000000E+00 -0.00000000000E+00 -0.17646117607E+02  0.17646118225E+02  0.46700000000E-02 0.  1.
        -13    1    1    2    0    0  0.44354874771E+01  0.12447172233E+02 -0.10922481674E+01  0.13259329708E+02  0.10570000000E+00 0.  1.
         13    1    1    2    0    0 -0.44354874771E+01 -0.12447172233E+02 -0.63010047026E+01  0.14639654317E+02  0.10570000000E+00 0. -1.
<mgrwt>
<rscale>  0 0.26901545E+02</rscale>
<asrwt>0</asrwt>
<pdfrwt beam="2">  1        1 0.27147875E-02 0.26901545E+02</pdfrwt>
<pdfrwt beam="1">  1       -1 0.15773639E-02 0.26901545E+02</pdfrwt>
<totfact> 0.19923963E+06</totfact>
</mgrwt>
</event>
<event>
 4    1  0.4261729E-001  0.2857531E+02  0.7818608E-02  0.1614392E+00
          1   -1    0    0  501    0  0.00000000000E+00  0.00000000000E+00  0.34337100574E+02  0.34337100892E+02  0.46700000000E-02 0.  1.
         -1   -1    0    0    0  501 -0.00000000000E+00 -0.00000000000E+00 -0.59450881409E+01  0.59450899751E+01  0.46700000000E-02 0. -1.
        -13    1    1    2    0    0 -0.11243510793E+02  0.51903015724E+01  0.41515484433E+01  0.13061481245E+02  0.10570000000E+00 0. -1.
         13    1    1    2    0    0  0.11243510793E+02 -0.51903015724E+01  0.24240463990E+02  0.27220709621E+02  0.10570000000E+00 0.  1.
<mgrwt>
<rscale>  0 0.28575313E+02</rscale>
<asrwt>0</asrwt>
<pdfrwt beam="1">  1        1 0.52826310E-02 0.28575313E+02</pdfrwt>
<pdfrwt beam="2">  1       -1 0.91462911E-03 0.28575313E+02</pdfrwt>
<totfact> 0.17932061E+06</totfact>
</mgrwt>
</event>
<event>
 4    1  0.4261729E-001  0.5484376E+02  0.7818608E-02  0.1420839E+00
          1   -1    0    0  501    0  0.00000000000E+00  0.00000000000E+00  0.49614304020E+01  0.49614325998E+01  0.46700000000E-02 0. -1.
         -1   -1    0    0    0  501 -0.00000000000E+00 -0.00000000000E+00 -0.15156096760E+03  0.15156096767E+03  0.46700000000E-02 0.  1.
        -13    1    1    2    0    0 -0.76523909430E+01  0.22917038591E+02 -0.36286254968E+02  0.43594187881E+02  0.10570000000E+00 0. -1.
         13    1    1    2    0    0  0.76523909430E+01 -0.22917038591E+02 -0.11031328223E+03  0.11292821239E+03  0.10570000000E+00 0.  1.
<mgrwt>
<rscale>  0 0.54843755E+02</rscale>
<asrwt>0</asrwt>
<pdfrwt beam="1">  1        1 0.76329727E-03 0.54843755E+02</pdfrwt>
<pdfrwt beam="2">  1       -1 0.23317069E-01 0.54843755E+02</pdfrwt>
<totfact> 0.27290887E+05</totfact>
</mgrwt>
</event>
<event>
 4    1  0.4261729E-001  0.7426330E+02  0.7818608E-02  0.1346168E+00
          1   -1    0    0  501    0  0.00000000000E+00  0.00000000000E+00  0.12680248282E+03  0.12680248291E+03  0.46700000000E-02 0.  1.
         -1   -1    0    0    0  501 -0.00000000000E+00 -0.00000000000E+00 -0.10873283843E+02  0.10873284846E+02  0.46700000000E-02 0. -1.
        -13    1    1    2    0    0  0.16442333232E+02 -0.33183343064E+02  0.52968138019E+02  0.64630638220E+02  0.10570000000E+00 0.  1.
         13    1    1    2    0    0 -0.16442333232E+02  0.33183343064E+02  0.62961060957E+02  0.73045129532E+02  0.10570000000E+00 0. -1.
<mgrwt>
<rscale>  0 0.74263301E+02</rscale>
<asrwt>0</asrwt>
<pdfrwt beam="1">  1        1 0.19508073E-01 0.74263301E+02</pdfrwt>
<pdfrwt beam="2">  1       -1 0.16728131E-02 0.74263301E+02</pdfrwt>
<totfact> 0.18829993E+05</totfact>
</mgrwt>
</event>
<event>
 4    1  0.4261729E-001  0.2998040E+02  0.7818608E-02  0.1598305E+00
          1   -1    0    0  501    0  0.00000000000E+00  0.00000000000E+00  0.94471880061E+02  0.94471880176E+02  0.46700000000E-02 0.  1.
         -1   -1    0    0    0  501 -0.00000000000E+00 -0.00000000000E+00 -0.23785470162E+01  0.23785516007E+01  0.46700000000E-02 0. -1.
        -13    1    1    2    0    0 -0.48077895139E+01  0.11348317101E+02  0.73609072588E+02  0.74633811914E+02  0.10570000000E+00 0.  1.
         13    1    1    2    0    0  0.48077895139E+01 -0.11348317101E+02  0.18484260457E+02  0.22216619863E+02  0.10570000000E+00 0. -1.
<mgrwt>
<rscale>  0 0.29980396E+02</rscale>
<asrwt>0</asrwt>
<pdfrwt beam="1">  1        1 0.14534136E-01 0.29980396E+02</pdfrwt>
<pdfrwt beam="2">  1       -1 0.36593067E-03 0.29980396E+02</pdfrwt>
<totfact> 0.17487062E+06</totfact>
</mgrwt>
</event>
<event>
 4    1  0.4261729E-001  0.5376340E+02  0.7818608E-02  0.1426039E+00
         -1   -1    0    0    0  501 -0.00000000000E+00  0.00000000000E+00  0.75969811813E+02  0.75969811956E+02  0.46700000000E-02 0. -1.
          1   -1    0    0  501    0  0.00000000000E+00 -0.00000000000E+00 -0.95120122495E+01  0.95120133959E+01  0.46700000000E-02 0.  1.
        -13    1    1    2    0    0 -0.14325623595E+02 -0.54862732617E+01 -0.18690444953E+01  0.15454034603E+02  0.10570000000E+00 0.  1.
         13    1    1    2    0    0  0.14325623595E+02  0.54862732617E+01  0.68326844059E+02  0.70027790749E+02  0.10570000000E+00 0. -1.
<mgrwt>
<rscale>  0 0.53763402E+02</rscale>
<asrwt>0</asrwt>
<pdfrwt beam="2">  1        1 0.14633866E-02 0.53763402E+02</pdfrwt>
<pdfrwt beam="1">  1       -1 0.11687664E-01 0.53763402E+02</pdfrwt>
<totfact> 0.32424692E+05</totfact>
</mgrwt>
</event>
<event>
 4    1  0.4261729E-001  0.2245097E+02  0.7818608E-02  0.1700567E+00
          1   -1    0    0  501    0  0.00000000000E+00  0.00000000000E+00  0.14184564320E+01  0.14184641195E+01  0.46700000000E-02 0. -1.
         -1   -1    0    0    0  501 -0.00000000000E+00 -0.00000000000E+00 -0.88836843899E+02  0.88836844021E+02  0.46700000000E-02 0.  1.
        -13    1    1    2    0    0  0.47001005369E+01 -0.10141667403E+02 -0.47840349469E+02  0.49128958595E+02  0.10570000000E+00 0. -1.
         13    1    1    2    0    0 -0.47001005369E+01  0.10141667403E+02 -0.39578037997E+02  0.41126349546E+02  0.10570000000E+00 0.  1.
<mgrwt>
<rscale>  0 0.22450973E+02</rscale>
<asrwt>0</asrwt>
<pdfrwt beam="1">  1        1 0.21822474E-03 0.22450973E+02</pdfrwt>
<pdfrwt beam="2">  1       -1 0.13667203E-01 0.22450973E+02</pdfrwt>
<totfact> 0.25147547E+06</totfact>
</mgrwt>
</event>
<event>
 4    1  0.4261729E-001  0.3133173E+02  0.7818608E-02  0.1583818E+00
         -1   -1    0    0    0  501 -0.00000000000E+00  0.00000000000E+00  0.47204155394E+02  0.47204155625E+02  0.46700000000E-02 0.  1.
          1   -1    0    0  501    0  0.00000000000E+00 -0.00000000000E+00 -0.51991014683E+01  0.51991035657E+01  0.46700000000E-02 0. -1.
        -13    1    1    2    0    0  0.64900364365E+01 -0.13747034449E+02  0.14676347744E+02  0.21130733179E+02  0.10570000000E+00 0. -1.
         13    1    1    2    0    0 -0.64900364365E+01  0.13747034449E+02  0.27328706182E+02  0.31272526012E+02  0.10570000000E+00 0.  1.
<mgrwt>
<rscale>  0 0.31331725E+02</rscale>
<asrwt>0</asrwt>
<pdfrwt beam="2">  1        1 0.79986193E-03 0.31331725E+02</pdfrwt>
<pdfrwt beam="1">  1       -1 0.72621781E-02 0.31331725E+02</pdfrwt>
<totfact> 0.12648625E+06</totfact>
</mgrwt>
</event>
<event>
 4    1  0.4261729E-001  0.4841314E+02  0.7818608E-02  0.1454093E+00
         -1   -1    0    0    0  501 -0.00000000000E+00  0.00000000000E+00  0.10756148603E+02  0.10756149617E+02  0.46700000000E-02 0. -1.
          1   -1    0    0  501    0  0.00000000000E+00 -0.00000000000E+00 -0.54476560607E+02  0.54476560807E+02  0.46700000000E-02 0.  1.
        -13    1    1    2    0    0 -0.17090505282E+02  0.89745244389E+01 -0.21805572977E+01  0.19426617367E+02  0.10570000000E+00 0. -1.
         13    1    1    2    0    0  0.17090505282E+02 -0.89745244389E+01 -0.41539854706E+02  0.45806093057E+02  0.10570000000E+00 0.  1.
<mgrwt>
<rscale>  0 0.48413140E+02</rscale>
<asrwt>0</asrwt>
<pdfrwt beam="2">  1        1 0.83810093E-02 0.48413140E+02</pdfrwt>
<pdfrwt beam="1">  1       -1 0.16547922E-02 0.48413140E+02</pdfrwt>
<totfact> 0.51048720E+05</totfact>
</mgrwt>
</event>
<event>
 4    1  0.4261729E-001  0.3175547E+02  0.7818608E-02  0.1579457E+00
         -1   -1    0    0    0  501 -0.00000000000E+00  0.00000000000E+00  0.56817377094E+02  0.56817377286E+02  0.46700000000E-02 0. -1.
          1   -1    0    0  501    0  0.00000000000E+00 -0.00000000000E+00 -0.44370661034E+01  0.44370685610E+01  0.46700000000E-02 0.  1.
        -13    1    1    2    0    0 -0.10769586299E+02  0.42839297842E+01  0.52582249960E+01  0.12727770663E+02  0.10570000000E+00 0.  1.
         13    1    1    2    0    0  0.10769586299E+02 -0.42839297842E+01  0.47122085994E+02  0.48526675184E+02  0.10570000000E+00 0. -1.
<mgrwt>
<rscale>  0 0.31755474E+02</rscale>
<asrwt>0</asrwt>
<pdfrwt beam="2">  1        1 0.68262582E-03 0.31755474E+02</pdfrwt>
<pdfrwt beam="1">  1       -1 0.87411343E-02 0.31755474E+02</pdfrwt>
<totfact> 0.12021676E+06</totfact>
</mgrwt>
</event>
<event>
 4    1  0.4261729E-001  0.2897713E+02  0.7818608E-02  0.1609678E+00
          1   -1    0    0  501    0  0.00000000000E+00  0.00000000000E+00  0.63841594026E+01  0.63841611107E+01  0.46700000000E-02 0. -1.
         -1   -1    0    0    0  501 -0.00000000000E+00 -0.00000000000E+00 -0.32881135400E+02  0.32881135732E+02  0.46700000000E-02 0.  1.
        -13    1    1    2    0    0 -0.22364047051E+01  0.98598136242E+01 -0.27310289505E+02  0.29121821991E+02  0.10570000000E+00 0.  1.
         13    1    1    2    0    0  0.22364047051E+01 -0.98598136242E+01  0.81331350800E+00  0.10143474851E+02  0.10570000000E+00 0. -1.
<mgrwt>
<rscale>  0 0.28977125E+02</rscale>
<asrwt>0</asrwt>
<pdfrwt beam="1">  1        1 0.98217854E-03 0.28977125E+02</pdfrwt>
<pdfrwt beam="2">  1       -1 0.50586363E-02 0.28977125E+02</pdfrwt>
<totfact> 0.15664991E+06</totfact>
</mgrwt>
</event>
<event>
 4    1  0.4261729E-001  0.2441576E+02  0.7818608E-02  0.1669538E+00
         -1   -1    0    0    0  501 -0.00000000000E+00  0.00000000000E+00  0.10363429770E+02  0.10363430822E+02  0.46700000000E-02 0.  1.
          1   -1    0    0  501    0  0.00000000000E+00 -0.00000000000E+00 -0.14380602237E+02  0.14380602995E+02  0.46700000000E-02 0. -1.
        -13    1    1    2    0    0 -0.12083384793E+02  0.69932084854E+00 -0.39852431149E+00  0.12110624750E+02  0.10570000000E+00 0.  1.
         13    1    1    2    0    0  0.12083384793E+02 -0.69932084854E+00 -0.36186481556E+01  0.12633409068E+02  0.10570000000E+00 0. -1.
<mgrwt>
<rscale>  0 0.24415764E+02</rscale>
<asrwt>0</asrwt>
<pdfrwt beam="2">  1        1 0.22124005E-02 0.24415764E+02</pdfrwt>
<pdfrwt beam="1">  1       -1 0.15943739E-02 0.24415764E+02</pdfrwt>
<totfact> 0.24783433E+06</totfact>
</mgrwt>
</event>
<event>
 4    1  0.4261729E-001  0.2309850E+02  0.7818608E-02  0.1689918E+00
          1   -1    0    0  501    0  0.00000000000E+00  0.00000000000E+00  0.92070545067E+02  0.92070545185E+02  0.46700000000E-02 0. -1.
         -1   -1    0    0    0  501 -0.00000000000E+00 -0.00000000000E+00 -0.14487246919E+01  0.14487322188E+01  0.46700000000E-02 0.  1.
        -13    1    1    2    0    0  0.75912178368E+01  0.74137616682E+01  0.26853203747E+02  0.28873797365E+02  0.10570000000E+00 0.  1.
         13    1    1    2    0    0 -0.75912178368E+01 -0.74137616682E+01  0.63768616628E+02  0.64645480039E+02  0.10570000000E+00 0. -1.
<mgrwt>
<rscale>  0 0.23098505E+02</rscale>
<asrwt>0</asrwt>
<pdfrwt beam="1">  1        1 0.14164698E-01 0.23098505E+02</pdfrwt>
<pdfrwt beam="2">  1       -1 0.22288134E-03 0.23098505E+02</pdfrwt>
<totfact> 0.31862165E+06</totfact>
</mgrwt>
</event>
<event>
 4    1  0.4261729E-001  0.3942333E+02  0.7818608E-02  0.1512499E+00
          1   -1    0    0  501    0  0.00000000000E+00  0.00000000000E+00  0.38304667403E+01  0.38304695871E+01  0.46700000000E-02 0.  1.
         -1   -1    0    0    0  501 -0.00000000000E+00 -0.00000000000E+00 -0.10143659855E+03  0.10143659866E+03  0.46700000000E-02 0. -1.
        -13    1    1    2    0    0  0.96643828778E+01  0.16802544602E+02 -0.58360901639E+02  0.61495786963E+02  0.10570000000E+00 0.  1.
         13    1    1    2    0    0 -0.96643828778E+01 -0.16802544602E+02 -0.39245230174E+02  0.43771281286E+02  0.10570000000E+00 0. -1.
<mgrwt>
<rscale>  0 0.39423327E+02</rscale>
<asrwt>0</asrwt>
<pdfrwt beam="1">  1        1 0.58930288E-03 0.39423327E+02</pdfrwt>
<pdfrwt beam="2">  1       -1 0.15605629E-01 0.39423327E+02</pdfrwt>
<totfact> 0.66372249E+05</totfact>
</mgrwt>
</event>
<event>
 4    1  0.4261729E-001  0.3155376E+02  0.7818608E-02  0.1581523E+00
         -1   -1    0    0    0  501 -0.00000000000E+00  0.00000000000E+00  0.67005392308E+01  0.67005408582E+01  0.46700000000E-02 0. -1.
          1   -1    0    0  501    0  0.00000000000E+00 -0.00000000000E+00 -0.37147736821E+02  0.37147737114E+02  0.46700000000E-02 0.  1.
        -13    1    1    2    0    0  0.71301040343E+01  0.12043197093E+02 -0.25342387174E+02  0.28950384107E+02  0.10570000000E+00 0.  1.
         13    1    1    2    0    0 -0.71301040343E+01 -0.12043197093E+02 -0.51048104159E+01  0.14897893866E+02  0.10570000000E+00 0. -1.
<mgrwt>
<rscale>  0 0.31553758E+02</rscale>
<asrwt>0</asrwt>
<pdfrwt beam="2">  1        1 0.57150365E-02 0.31553758E+02</pdfrwt>
<pdfrwt beam="1">  1       -1 0.10308524E-02 0.31553758E+02</pdfrwt>
<totfact> 0.14231030E+06</totfact>
</mgrwt>
</event>
<event>
 4    1  0.4261729E-001  0.4851447E+02  0.7818608E-02  0.1453523E+00
          1   -1    0    0  501    0  0.00000000000E+00  0.00000000000E+00  0.10040859908E+03  0.10040859919E+03  0.46700000000E-02 0. -1.
         -1   -1    0    0    0  501 -0.00000000000E+00 -0.00000000000E+00 -0.58601880243E+01  0.58601898850E+01  0.46700000000E-02 0.  1.
        -13    1    1    2    0    0  0.15762711914E+02 -0.12969608388E+01  0.87560550725E+02  0.88977561273E+02  0.10570000000E+00 0. -1.
         13    1    1    2    0    0 -0.15762711914E+02  0.12969608388E+01  0.69878603282E+01  0.17291227798E+02  0.10570000000E+00 0.  1.
<mgrwt>
<rscale>  0 0.48514467E+02</rscale>
<asrwt>0</asrwt>
<pdfrwt beam="1">  1        1 0.15447476E-01 0.48514467E+02</pdfrwt>
<pdfrwt beam="2">  1       -1 0.90156762E-03 0.48514467E+02</pdfrwt>
<totfact> 0.54506170E+05</totfact>
</mgrwt>
</event>
<event>
 4    1  0.4261729E-001  0.5638041E+02  0.7818608E-02  0.1413681E+00
         -1   -1    0    0    0  501 -0.00000000000E+00  0.00000000000E+00  0.68718283004E+01  0.68718298873E+01  0.46700000000E-02 0.  1.
          1   -1    0    0  501    0  0.00000000000E+00 -0.00000000000E+00 -0.11564427312E+03  0.11564427321E+03  0.46700000000E-02 0. -1.
        -13    1    1    2    0    0  0.17578247494E+02  0.21699903140E+02 -0.46027571500E+02  0.53837060580E+02  0.10570000000E+00 0. -1.
         13    1    1    2    0    0 -0.17578247494E+02 -0.21699903140E+02 -0.62744873316E+02  0.68679042518E+02  0.10570000000E+00 0.  1.
<mgrwt>
<rscale>  0 0.56380411E+02</rscale>
<asrwt>0</asrwt>
<pdfrwt beam="2">  1        1 0.17791425E-01 0.56380411E+02</pdfrwt>
<pdfrwt beam="1">  1       -1 0.10572046E-02 0.56380411E+02</pdfrwt>
<totfact> 0.37978025E+05</totfact>
</mgrwt>
</event>
<event>
 4    1  0.4261729E-001  0.2253639E+02  0.7818608E-02  0.1699137E+00
          1   -1    0    0  501    0  0.00000000000E+00  0.00000000000E+00  0.13381134865E+01  0.13381216355E+01  0.46700000000E-02 0. -1.
         -1   -1    0    0    0  501 -0.00000000000E+00 -0.00000000000E+00 -0.94888698630E+02  0.94888698745E+02  0.46700000000E-02 0.  1.
        -13    1    1    2    0    0 -0.88514146686E+01 -0.61774168341E+01 -0.32970391518E+02  0.34692447445E+02  0.10570000000E+00 0. -1.
         13    1    1    2    0    0  0.88514146686E+01  0.61774168341E+01 -0.60580193626E+02  0.61534372936E+02  0.10570000000E+00 0.  1.
<mgrwt>
<rscale>  0 0.22536392E+02</rscale>
<asrwt>0</asrwt>
<pdfrwt beam="1">  1        1 0.20586432E-03 0.22536392E+02</pdfrwt>
<pdfrwt beam="2">  1       -1 0.14598257E-01 0.22536392E+02</pdfrwt>
<totfact> 0.24678660E+06</totfact>
</mgrwt>
</event>
<event>
 4    1  0.4261729E-001  0.2819126E+02  0.7818608E-02  0.1618988E+00
         -1   -1    0    0    0  501 -0.00000000000E+00  0.00000000000E+00  0.21866079729E+02  0.21866080228E+02  0.46700000000E-02 0.  1.
          1   -1    0    0  501    0  0.00000000000E+00 -0.00000000000E+00 -0.90865275607E+01  0.90865287607E+01  0.46700000000E-02 0. -1.
        -13    1    1    2    0    0  0.25768407183E-01  0.10868284704E+02  0.16244169473E+02  0.19544935169E+02  0.10570000000E+00 0.  1.
         13    1    1    2    0    0 -0.25768407183E-01 -0.10868284704E+02 -0.34646173045E+01  0.11407673819E+02  0.10570000000E+00 0. -1.
<mgrwt>
<rscale>  0 0.28191258E+02</rscale>
<asrwt>0</asrwt>
<pdfrwt beam="2">  1        1 0.13979275E-02 0.28191258E+02</pdfrwt>
<pdfrwt beam="1">  1       -1 0.33640124E-02 0.28191258E+02</pdfrwt>
<totfact> 0.17172180E+06</totfact>
</mgrwt>
</event>
<event>
 4    1  0.4261729E-001  0.2375306E+02  0.7818608E-02  0.1679586E+00
          1   -1    0    0  501    0  0.00000000000E+00  0.00000000000E+00  0.58876416678E+02  0.58876416863E+02  0.46700000000E-02 0. -1.
         -1   -1    0    0    0  501 -0.00000000000E+00 -0.00000000000E+00 -0.23957274541E+01  0.23957320057E+01  0.46700000000E-02 0.  1.
        -13    1    1    2    0    0  0.21443224253E+01 -0.11218896025E+02  0.19850240973E+02  0.22902073833E+02  0.10570000000E+00 0.  1.
         13    1    1    2    0    0 -0.21443224253E+01  0.11218896025E+02  0.36630448251E+02  0.38370075036E+02  0.10570000000E+00 0. -1.
<mgrwt>
<rscale>  0 0.23753062E+02</rscale>
<asrwt>0</asrwt>
<pdfrwt beam="1">  1        1 0.90579104E-02 0.23753062E+02</pdfrwt>
<pdfrwt beam="2">  1       -1 0.36857383E-03 0.23753062E+02</pdfrwt>
<totfact> 0.28660052E+06</totfact>
</mgrwt>
</event>
<event>
 4    1  0.4261729E-001  0.3021032E+02  0.7818608E-02  0.1595775E+00
          1   -1    0    0  501    0  0.00000000000E+00  0.00000000000E+00  0.92333408939E+01  0.92333420749E+01  0.46700000000E-02 0. -1.
         -1   -1    0    0    0  501 -0.00000000000E+00 -0.00000000000E+00 -0.24711077151E+02  0.24711077593E+02  0.46700000000E-02 0.  1.
        -13    1    1    2    0    0  0.65914051181E+01  0.13424588546E+02 -0.10119331701E+02  0.18057636767E+02  0.10570000000E+00 0. -1.
         13    1    1    2    0    0 -0.65914051181E+01 -0.13424588546E+02 -0.53584045568E+01  0.15886782901E+02  0.10570000000E+00 0.  1.
<mgrwt>
<rscale>  0 0.30210318E+02</rscale>
<asrwt>0</asrwt>
<pdfrwt beam="1">  1        1 0.14205141E-02 0.30210318E+02</pdfrwt>
<pdfrwt beam="2">  1       -1 0.38017043E-02 0.30210318E+02</pdfrwt>
<totfact> 0.14516700E+06</totfact>
</mgrwt>
</event>
<event>
 4    1  0.4261729E-001  0.2097866E+02  0.7818608E-02  0.1726538E+00
          1   -1    0    0  501    0  0.00000000000E+00  0.00000000000E+00  0.44092122379E+02  0.44092122626E+02  0.46700000000E-02 0. -1.
         -1   -1    0    0    0  501 -0.00000000000E+00 -0.00000000000E+00 -0.24953654917E+01  0.24953698616E+01  0.46700000000E-02 0.  1.
        -13    1    1    2    0    0 -0.68553606950E+01  0.78564340124E+01  0.23325862760E+02  0.25550471065E+02  0.10570000000E+00 0. -1.
         13    1    1    2    0    0  0.68553606950E+01 -0.78564340124E+01  0.18270894127E+02  0.21037021423E+02  0.10570000000E+00 0.  1.
<mgrwt>
<rscale>  0 0.20978662E+02</rscale>
<asrwt>0</asrwt>
<pdfrwt beam="1">  1        1 0.67834036E-02 0.20978662E+02</pdfrwt>
<pdfrwt beam="2">  1       -1 0.38390275E-03 0.20978662E+02</pdfrwt>
<totfact> 0.37170971E+06</totfact>
</mgrwt>
</event>
<event>
 4    1  0.4261729E-001  0.2646483E+02  0.7818608E-02  0.1640812E+00
         -1   -1    0    0    0  501 -0.00000000000E+00  0.00000000000E+00  0.37221950046E+01  0.37221979342E+01  0.46700000000E-02 0. -1.
          1   -1    0    0  501    0  0.00000000000E+00 -0.00000000000E+00 -0.47041247387E+02  0.47041247619E+02  0.46700000000E-02 0.  1.
        -13    1    1    2    0    0  0.11305989401E+02 -0.50741188725E+00 -0.34810066960E+02  0.36603753870E+02  0.10570000000E+00 0.  1.
         13    1    1    2    0    0 -0.11305989401E+02  0.50741188725E+00 -0.85089854230E+01  0.14159691683E+02  0.10570000000E+00 0. -1.
<mgrwt>
<rscale>  0 0.26464828E+02</rscale>
<asrwt>0</asrwt>
<pdfrwt beam="2">  1        1 0.72371148E-02 0.26464828E+02</pdfrwt>
<pdfrwt beam="1">  1       -1 0.57264566E-03 0.26464828E+02</pdfrwt>
<totfact> 0.21941750E+06</totfact>
</mgrwt>
</event>
<event>
 4    1  0.4261729E-001  0.5196084E+02  0.7818608E-02  0.1435043E+00
          1   -1    0    0  501    0  0.00000000000E+00  0.00000000000E+00  0.28895523041E+02  0.28895523419E+02  0.46700000000E-02 0. -1.
         -1   -1    0    0    0  501 -0.00000000000E+00 -0.00000000000E+00 -0.23359406059E+02  0.23359406526E+02  0.46700000000E-02 0.  1.
        -13    1    1    2    0    0  0.99663230149E+00  0.23781554472E+02  0.13239266106E+02  0.27236830737E+02  0.10570000000E+00 0. -1.
         13    1    1    2    0    0 -0.99663230149E+00 -0.23781554472E+02 -0.77031491236E+01  0.25018099208E+02  0.10570000000E+00 0.  1.
<mgrwt>
<rscale>  0 0.51960842E+02</rscale>
<asrwt>0</asrwt>
<pdfrwt beam="1">  1        1 0.44454651E-02 0.51960842E+02</pdfrwt>
<pdfrwt beam="2">  1       -1 0.35937549E-02 0.51960842E+02</pdfrwt>
<totfact> 0.40098671E+05</totfact>
</mgrwt>
</event>
<event>
 4    1  0.4261729E-001  0.1881405E+03  0.7818608E-02  0.1160149E+00
         -1   -1    0    0    0  501 -0.00000000000E+00  0.00000000000E+00  0.18406278516E+03  0.18406278522E+03  0.46700000000E-02 0.  1.
          1   -1    0    0  501    0  0.00000000000E+00 -0.00000000000E+00 -0.48077150063E+02  0.48077150289E+02  0.46700000000E-02 0. -1.
        -13    1    1    2    0    0 -0.21996319710E+02 -0.91035042579E+02  0.57096602089E+02  0.10968705576E+03  0.10570000000E+00 0.  1.
         13    1    1    2    0    0  0.21996319710E+02  0.91035042579E+02  0.78889033013E+02  0.12245287976E+03  0.10570000000E+00 0. -1.
<mgrwt>
<rscale>  0 0.18814052E+03</rscale>
<asrwt>0</asrwt>
<pdfrwt beam="2">  1        1 0.73964846E-02 0.18814052E+03</pdfrwt>
<pdfrwt beam="1">  1       -1 0.28317352E-01 0.18814052E+03</pdfrwt>
<totfact> 0.10531777E+04</totfact>
</mgrwt>
</event>
<event>
 4    1  0.4261729E-001  0.6352580E+02  0.7818608E-02  0.1383604E+00
          1   -1    0    0  501    0  0.00000000000E+00  0.00000000000E+00  0.48220029809E+02  0.48220030035E+02  0.46700000000E-02 0. -1.
         -1   -1    0    0    0  501 -0.00000000000E+00 -0.00000000000E+00 -0.20922464852E+02  0.20922465374E+02  0.46700000000E-02 0.  1.
        -13    1    1    2    0    0  0.17695518187E+02  0.14291937828E+02  0.37778251209E+02  0.44097599569E+02  0.10570000000E+00 0. -1.
         13    1    1    2    0    0 -0.17695518187E+02 -0.14291937828E+02 -0.10480686253E+02  0.25044895840E+02  0.10570000000E+00 0.  1.
<mgrwt>
<rscale>  0 0.63525803E+02</rscale>
<asrwt>0</asrwt>
<pdfrwt beam="1">  1        1 0.74184661E-02 0.63525803E+02</pdfrwt>
<pdfrwt beam="2">  1       -1 0.32188408E-02 0.63525803E+02</pdfrwt>
<totfact> 0.24926210E+05</totfact>
</mgrwt>
</event>
<event>
 4    1  0.4261729E-001  0.2503112E+02  0.7818608E-02  0.1660555E+00
         -1   -1    0    0    0  501 -0.00000000000E+00  0.00000000000E+00  0.31906564514E+02  0.31906564855E+02  0.46700000000E-02 0.  1.
          1   -1    0    0  501    0  0.00000000000E+00 -0.00000000000E+00 -0.49093102063E+01  0.49093124275E+01  0.46700000000E-02 0. -1.
        -13    1    1    2    0    0 -0.11749590014E+02  0.26597443687E+01  0.18486581636E+02  0.22065628898E+02  0.10570000000E+00 0. -1.
         13    1    1    2    0    0  0.11749590014E+02 -0.26597443687E+01  0.85106726709E+01  0.14750248384E+02  0.10570000000E+00 0.  1.
<mgrwt>
<rscale>  0 0.25031122E+02</rscale>
<asrwt>0</asrwt>
<pdfrwt beam="2">  1        1 0.75527867E-03 0.25031122E+02</pdfrwt>
<pdfrwt beam="1">  1       -1 0.49087026E-02 0.25031122E+02</pdfrwt>
<totfact> 0.21977136E+06</totfact>
</mgrwt>
</event>
<event>
 4    1  0.4261729E-001  0.2154797E+02  0.7818608E-02  0.1716189E+00
          1   -1    0    0  501    0  0.00000000000E+00  0.00000000000E+00  0.20302957641E+02  0.20302958178E+02  0.46700000000E-02 0.  1.
         -1   -1    0    0    0  501 -0.00000000000E+00 -0.00000000000E+00 -0.57173292728E+01  0.57173311801E+01  0.46700000000E-02 0. -1.
        -13    1    1    2    0    0  0.49993704506E-02 -0.10129969584E+02  0.11721624142E+02  0.15492706470E+02  0.10570000000E+00 0.  1.
         13    1    1    2    0    0 -0.49993704506E-02  0.10129969584E+02  0.28640042264E+01  0.10527582888E+02  0.10570000000E+00 0. -1.
<mgrwt>
<rscale>  0 0.21547968E+02</rscale>
<asrwt>0</asrwt>
<pdfrwt beam="1">  1        1 0.31235321E-02 0.21547968E+02</pdfrwt>
<pdfrwt beam="2">  1       -1 0.87958931E-03 0.21547968E+02</pdfrwt>
<totfact> 0.33569459E+06</totfact>
</mgrwt>
</event>
<event>
 4    1  0.4261729E-001  0.3891762E+02  0.7818608E-02  0.1516331E+00
         -1   -1    0    0    0  501 -0.00000000000E+00  0.00000000000E+00  0.21032903405E+02  0.21032903924E+02  0.46700000000E-02 0.  1.
          1   -1    0    0  501    0  0.00000000000E+00 -0.00000000000E+00 -0.18002520451E+02  0.18002521057E+02  0.46700000000E-02 0. -1.
        -13    1    1    2    0    0 -0.13362854624E+02 -0.96834506395E+00 -0.12638886282E+02  0.18418908622E+02  0.10570000000E+00 0. -1.
         13    1    1    2    0    0  0.13362854624E+02  0.96834506395E+00  0.15669269236E+02  0.20616516359E+02  0.10570000000E+00 0.  1.
<mgrwt>
<rscale>  0 0.38917620E+02</rscale>
<asrwt>0</asrwt>
<pdfrwt beam="2">  1        1 0.27696186E-02 0.38917620E+02</pdfrwt>
<pdfrwt beam="1">  1       -1 0.32358314E-02 0.38917620E+02</pdfrwt>
<totfact> 0.80913558E+05</totfact>
</mgrwt>
</event>
<event>
 4    1  0.4261729E-001  0.6950106E+02  0.7818608E-02  0.1361798E+00
          1   -1    0    0  501    0  0.00000000000E+00  0.00000000000E+00  0.17560405069E+02  0.17560405690E+02  0.46700000000E-02 0. -1.
         -1   -1    0    0    0  501 -0.00000000000E+00 -0.00000000000E+00 -0.68768298108E+02  0.68768298266E+02  0.46700000000E-02 0.  1.
        -13    1    1    2    0    0  0.24010618890E+02  0.25041749739E+02 -0.28084764353E+02  0.44635907191E+02  0.10570000000E+00 0. -1.
         13    1    1    2    0    0 -0.24010618890E+02 -0.25041749739E+02 -0.23123128685E+02  0.41692796766E+02  0.10570000000E+00 0.  1.
<mgrwt>
<rscale>  0 0.69501056E+02</rscale>
<asrwt>0</asrwt>
<pdfrwt beam="1">  1        1 0.27016009E-02 0.69501056E+02</pdfrwt>
<pdfrwt beam="2">  1       -1 0.10579738E-01 0.69501056E+02</pdfrwt>
<totfact> 0.17281500E+05</totfact>
</mgrwt>
</event>
<event>
 4    1  0.4261729E-001  0.2486768E+02  0.7818608E-02  0.1662910E+00
         -1   -1    0    0    0  501 -0.00000000000E+00  0.00000000000E+00  0.72427041872E+02  0.72427042023E+02  0.46700000000E-02 0. -1.
          1   -1    0    0  501    0  0.00000000000E+00 -0.00000000000E+00 -0.21345649326E+01  0.21345700411E+01  0.46700000000E-02 0.  1.
        -13    1    1    2    0    0 -0.74345409074E+00 -0.12029306126E+02  0.44305800569E+02  0.45915923887E+02  0.10570000000E+00 0. -1.
         13    1    1    2    0    0  0.74345409074E+00  0.12029306126E+02  0.25986676370E+02  0.28645688177E+02  0.10570000000E+00 0.  1.
<mgrwt>
<rscale>  0 0.24867683E+02</rscale>
<asrwt>0</asrwt>
<pdfrwt beam="2">  1        1 0.32839505E-03 0.24867683E+02</pdfrwt>
<pdfrwt beam="1">  1       -1 0.11142621E-01 0.24867683E+02</pdfrwt>
<totfact> 0.20556704E+06</totfact>
</mgrwt>
</event>
<event>
 4    1  0.4261729E-001  0.4498974E+02  0.7818608E-02  0.1474406E+00
         -1   -1    0    0    0  501 -0.00000000000E+00  0.00000000000E+00  0.78274099124E+01  0.78274113055E+01  0.46700000000E-02 0.  1.
          1   -1    0    0  501    0  0.00000000000E+00 -0.00000000000E+00 -0.64647060558E+02  0.64647060727E+02  0.46700000000E-02 0. -1.
        -13    1    1    2    0    0  0.21177113374E+02 -0.72838165231E+01 -0.31820932324E+02  0.38911528118E+02  0.10570000000E+00 0. -1.
         13    1    1    2    0    0 -0.21177113374E+02  0.72838165231E+01 -0.24998718322E+02  0.33562943915E+02  0.10570000000E+00 0.  1.
<mgrwt>
<rscale>  0 0.44989737E+02</rscale>
<asrwt>0</asrwt>
<pdfrwt beam="2">  1        1 0.99457014E-02 0.44989737E+02</pdfrwt>
<pdfrwt beam="1">  1       -1 0.12042171E-02 0.44989737E+02</pdfrwt>
<totfact> 0.62511606E+05</totfact>
</mgrwt>
</event>
<event>
 4    1  0.4261729E-001  0.3933064E+02  0.7818608E-02  0.1513196E+00
          1   -1    0    0  501    0  0.00000000000E+00  0.00000000000E+00  0.12045399223E+02  0.12045400129E+02  0.46700000000E-02 0. -1.
         -1   -1    0    0    0  501 -0.00000000000E+00 -0.00000000000E+00 -0.32105606458E+02  0.32105606797E+02  0.46700000000E-02 0.  1.
        -13    1    1    2    0    0  0.93728722776E+01  0.14504454858E+02  0.52934739494E+00  0.17277769723E+02  0.10570000000E+00 0. -1.
         13    1    1    2    0    0 -0.93728722776E+01 -0.14504454858E+02 -0.20589554629E+02  0.26873237203E+02  0.10570000000E+00 0.  1.
<mgrwt>
<rscale>  0 0.39330643E+02</rscale>
<asrwt>0</asrwt>
<pdfrwt beam="1">  1        1 0.18531385E-02 0.39330643E+02</pdfrwt>
<pdfrwt beam="2">  1       -1 0.49393241E-02 0.39330643E+02</pdfrwt>
<totfact> 0.76354246E+05</totfact>
</mgrwt>
</event>
<event>
 4    1  0.4261729E-001  0.3762656E+02  0.7818608E-02  0.1526441E+00
         -1   -1    0    0    0  501 -0.00000000000E+00  0.00000000000E+00  0.21729936294E+02  0.21729936796E+02  0.46700000000E-02 0. -1.
          1   -1    0    0  501    0  0.00000000000E+00 -0.00000000000E+00 -0.16288106822E+02  0.16288107491E+02  0.46700000000E-02 0.  1.
        -13    1    1    2    0    0 -0.12292143879E+02 -0.86513942545E+01  0.14151663591E+02  0.20645197470E+02  0.10570000000E+00 0. -1.
         13    1    1    2    0    0  0.12292143879E+02  0.86513942545E+01 -0.87098341182E+01  0.17372846818E+02  0.10570000000E+00 0.  1.
<mgrwt>
<rscale>  0 0.37626562E+02</rscale>
<asrwt>0</asrwt>
<pdfrwt beam="2">  1        1 0.25058627E-02 0.37626562E+02</pdfrwt>
<pdfrwt beam="1">  1       -1 0.33430672E-02 0.37626562E+02</pdfrwt>
<totfact> 0.87450921E+05</totfact>
</mgrwt>
</event>
<event>
 4    1  0.4261729E-001  0.2284260E+02  0.7818608E-02  0.1694074E+00
         -1   -1    0    0    0  501 -0.00000000000E+00  0.00000000000E+00  0.57289071413E+02  0.57289071603E+02  0.46700000000E-02 0.  1.
          1   -1    0    0  501    0  0.00000000000E+00 -0.00000000000E+00 -0.22769773101E+01  0.22769820991E+01  0.46700000000E-02 0. -1.
        -13    1    1    2    0    0 -0.54261650370E+01  0.86145791471E+01  0.41000767904E+02  0.42246045757E+02  0.10570000000E+00 0.  1.
         13    1    1    2    0    0  0.54261650370E+01 -0.86145791471E+01  0.14011326199E+02  0.17320007945E+02  0.10570000000E+00 0. -1.
<mgrwt>
<rscale>  0 0.22842597E+02</rscale>
<asrwt>0</asrwt>
<pdfrwt beam="2">  1        1 0.35030461E-03 0.22842597E+02</pdfrwt>
<pdfrwt beam="1">  1       -1 0.88137030E-02 0.22842597E+02</pdfrwt>
<totfact> 0.25620608E+06</totfact>
</mgrwt>
</event>
<event>
 4    1  0.4261729E-001  0.3074150E+02  0.7818608E-02  0.1590034E+00
         -1   -1    0    0    0  501 -0.00000000000E+00  0.00000000000E+00  0.10621108885E+03  0.10621108895E+03  0.46700000000E-02 0. -1.
          1   -1    0    0  501    0  0.00000000000E+00 -0.00000000000E+00 -0.22244347992E+01  0.22244397013E+01  0.46700000000E-02 0.  1.
        -13    1    1    2    0    0  0.43018701332E+01  0.14558483622E+02  0.60483297514E+02  0.62359409736E+02  0.10570000000E+00 0. -1.
         13    1    1    2    0    0 -0.43018701332E+01 -0.14558483622E+02  0.43503356533E+02  0.46076118914E+02  0.10570000000E+00 0.  1.
<mgrwt>
<rscale>  0 0.30741497E+02</rscale>
<asrwt>0</asrwt>
<pdfrwt beam="2">  1        1 0.34222118E-03 0.30741497E+02</pdfrwt>
<pdfrwt beam="1">  1       -1 0.16340165E-01 0.30741497E+02</pdfrwt>
<totfact> 0.11898860E+06</totfact>
</mgrwt>
</event>
<event>
 4    1  0.4261729E-001  0.2317498E+02  0.7818608E-02  0.1688689E+00
         -1   -1    0    0    0  501 -0.00000000000E+00  0.00000000000E+00  0.51172334122E+01  0.51172355431E+01  0.46700000000E-02 0.  1.
          1   -1    0    0  501    0  0.00000000000E+00 -0.00000000000E+00 -0.26238771911E+02  0.26238772327E+02  0.46700000000E-02 0. -1.
        -13    1    1    2    0    0 -0.10859789106E+02 -0.16890902223E+01 -0.15526659382E+02  0.19023048370E+02  0.10570000000E+00 0.  1.
         13    1    1    2    0    0  0.10859789106E+02  0.16890902223E+01 -0.55948791166E+01  0.12332959500E+02  0.10570000000E+00 0. -1.
<mgrwt>
<rscale>  0 0.23174983E+02</rscale>
<asrwt>0</asrwt>
<pdfrwt beam="2">  1        1 0.40367343E-02 0.23174983E+02</pdfrwt>
<pdfrwt beam="1">  1       -1 0.78726689E-03 0.23174983E+02</pdfrwt>
<totfact> 0.28775651E+06</totfact>
</mgrwt>
</event>
<event>
 4    1  0.4261729E-001  0.2869893E+02  0.7818608E-02  0.1612932E+00
         -1   -1    0    0    0  501 -0.00000000000E+00  0.00000000000E+00  0.41048675750E+02  0.41048676015E+02  0.46700000000E-02 0.  1.
          1   -1    0    0  501    0  0.00000000000E+00 -0.00000000000E+00 -0.50161693536E+01  0.50161715274E+01  0.46700000000E-02 0. -1.
        -13    1    1    2    0    0 -0.11724473267E+02  0.52848677191E+01  0.78010517945E+01  0.15041964027E+02  0.10570000000E+00 0. -1.
         13    1    1    2    0    0  0.11724473267E+02 -0.52848677191E+01  0.28231454602E+02  0.31022883516E+02  0.10570000000E+00 0.  1.
<mgrwt>
<rscale>  0 0.28698931E+02</rscale>
<asrwt>0</asrwt>
<pdfrwt beam="2">  1        1 0.77171860E-03 0.28698931E+02</pdfrwt>
<pdfrwt beam="1">  1       -1 0.63151807E-02 0.28698931E+02</pdfrwt>
<totfact> 0.15726013E+06</totfact>
</mgrwt>
</event>
<event>
 4    1  0.4261729E-001  0.3167655E+02  0.7818608E-02  0.1580263E+00
          1   -1    0    0  501    0  0.00000000000E+00  0.00000000000E+00  0.89567525262E+02  0.89567525384E+02  0.46700000000E-02 0. -1.
         -1   -1    0    0    0  501 -0.00000000000E+00 -0.00000000000E+00 -0.28006885672E+01  0.28006924607E+01  0.46700000000E-02 0.  1.
        -13    1    1    2    0    0 -0.13660365865E+02  0.62077436509E+01  0.58165481424E+02  0.60069760101E+02  0.10570000000E+00 0. -1.
         13    1    1    2    0    0  0.13660365865E+02 -0.62077436509E+01  0.28601355270E+02  0.32298457743E+02  0.10570000000E+00 0.  1.
<mgrwt>
<rscale>  0 0.31676548E+02</rscale>
<asrwt>0</asrwt>
<pdfrwt beam="1">  1        1 0.13779620E-01 0.31676548E+02</pdfrwt>
<pdfrwt beam="2">  1       -1 0.43087547E-03 0.31676548E+02</pdfrwt>
<totfact> 0.15255419E+06</totfact>
</mgrwt>
</event>
<event>
 4    1  0.4261729E-001  0.3314043E+02  0.7818608E-02  0.1565762E+00
         -1   -1    0    0    0  501 -0.00000000000E+00  0.00000000000E+00  0.58364094527E+01  0.58364113210E+01  0.46700000000E-02 0.  1.
          1   -1    0    0  501    0  0.00000000000E+00 -0.00000000000E+00 -0.47044679014E+02  0.47044679246E+02  0.46700000000E-02 0. -1.
        -13    1    1    2    0    0 -0.12797973974E+02  0.42698787494E+01 -0.35954159120E+02  0.38402249060E+02  0.10570000000E+00 0. -1.
         13    1    1    2    0    0  0.12797973974E+02 -0.42698787494E+01 -0.52541104419E+01  0.14478841507E+02  0.10570000000E+00 0.  1.
<mgrwt>
<rscale>  0 0.33140432E+02</rscale>
<asrwt>0</asrwt>
<pdfrwt beam="2">  1        1 0.72376429E-02 0.33140432E+02</pdfrwt>
<pdfrwt beam="1">  1       -1 0.89790934E-03 0.33140432E+02</pdfrwt>
<totfact> 0.12871980E+06</totfact>
</mgrwt>
</event>
<event>
 4    1  0.4261729E-001  0.2035433E+02  0.7818608E-02  0.1738372E+00
         -1   -1    0    0    0  501 -0.00000000000E+00  0.00000000000E+00  0.15657747810E+01  0.15657817453E+01  0.46700000000E-02 0.  1.
          1   -1    0    0  501    0  0.00000000000E+00 -0.00000000000E+00 -0.66149010330E+02  0.66149010494E+02  0.46700000000E-02 0. -1.
        -13    1    1    2    0    0 -0.80789068057E+01 -0.59078967608E+01 -0.38418299347E+02  0.39700741511E+02  0.10570000000E+00 0. -1.
         13    1    1    2    0    0  0.80789068057E+01  0.59078967608E+01 -0.26164936201E+02  0.28014050728E+02  0.10570000000E+00 0.  1.
<mgrwt>
<rscale>  0 0.20354331E+02</rscale>
<asrwt>0</asrwt>
<pdfrwt beam="2">  1        1 0.10176769E-01 0.20354331E+02</pdfrwt>
<pdfrwt beam="1">  1       -1 0.24088903E-03 0.20354331E+02</pdfrwt>
<totfact> 0.40996046E+06</totfact>
</mgrwt>
</event>
<event>
 4    1  0.4261729E-001  0.4202244E+02  0.7818608E-02  0.1493835E+00
          1   -1    0    0  501    0  0.00000000000E+00  0.00000000000E+00  0.38671481108E+02  0.38671481390E+02  0.46700000000E-02 0. -1.
         -1   -1    0    0    0  501 -0.00000000000E+00 -0.00000000000E+00 -0.11415940371E+02  0.11415941326E+02  0.46700000000E-02 0.  1.
        -13    1    1    2    0    0  0.23284144690E+01  0.18741951936E+02  0.26531687354E+01  0.19071778971E+02  0.10570000000E+00 0. -1.
         13    1    1    2    0    0 -0.23284144690E+01 -0.18741951936E+02  0.24602372002E+02  0.31015643745E+02  0.10570000000E+00 0.  1.
<mgrwt>
<rscale>  0 0.42022439E+02</rscale>
<asrwt>0</asrwt>
<pdfrwt beam="1">  1        1 0.59494587E-02 0.42022439E+02</pdfrwt>
<pdfrwt beam="2">  1       -1 0.17562986E-02 0.42022439E+02</pdfrwt>
<totfact> 0.70704394E+05</totfact>
</mgrwt>
</event>
<event>
 4    1  0.4261729E-001  0.8410167E+02  0.7818608E-02  0.1317799E+00
          1   -1    0    0  501    0  0.00000000000E+00  0.00000000000E+00  0.45829229692E+02  0.45829229930E+02  0.46700000000E-02 0. -1.
         -1   -1    0    0    0  501 -0.00000000000E+00 -0.00000000000E+00 -0.38583953540E+02  0.38583953823E+02  0.46700000000E-02 0.  1.
        -13    1    1    2    0    0  0.55639291117E+00 -0.18794592098E+02  0.41374657621E+02  0.45446889123E+02  0.10570000000E+00 0. -1.
         13    1    1    2    0    0 -0.55639291117E+00  0.18794592098E+02 -0.34129381469E+02  0.38966294630E+02  0.10570000000E+00 0.  1.
<mgrwt>
<rscale>  0 0.84101674E+02</rscale>
<asrwt>0</asrwt>
<pdfrwt beam="1">  1        1 0.70506508E-02 0.84101674E+02</pdfrwt>
<pdfrwt beam="2">  1       -1 0.59359929E-02 0.84101674E+02</pdfrwt>
<totfact> 0.11589917E+05</totfact>
</mgrwt>
</event>
<event>
 4    1  0.4261729E-001  0.2088155E+02  0.7818608E-02  0.1728345E+00
          1   -1    0    0  501    0  0.00000000000E+00  0.00000000000E+00  0.15176653792E+02  0.15176654510E+02  0.46700000000E-02 0. -1.
         -1   -1    0    0    0  501 -0.00000000000E+00 -0.00000000000E+00 -0.71827260980E+01  0.71827276162E+01  0.46700000000E-02 0.  1.
        -13    1    1    2    0    0 -0.99306367718E+01  0.12003127841E+01  0.71986089434E+01  0.12324343418E+02  0.10570000000E+00 0. -1.
         13    1    1    2    0    0  0.99306367718E+01 -0.12003127841E+01  0.79531875015E+00  0.10035038708E+02  0.10570000000E+00 0.  1.
<mgrwt>
<rscale>  0 0.20881549E+02</rscale>
<asrwt>0</asrwt>
<pdfrwt beam="1">  1        1 0.23348700E-02 0.20881549E+02</pdfrwt>
<pdfrwt beam="2">  1       -1 0.11050350E-02 0.20881549E+02</pdfrwt>
<totfact> 0.35611910E+06</totfact>
</mgrwt>
</event>
<event>
 4    1  0.4261729E-001  0.3821336E+02  0.7818608E-02  0.1521786E+00
         -1   -1    0    0    0  501 -0.00000000000E+00  0.00000000000E+00  0.12352544941E+03  0.12352544950E+03  0.46700000000E-02 0. -1.
          1   -1    0    0  501    0  0.00000000000E+00 -0.00000000000E+00 -0.29553826485E+01  0.29553863382E+01  0.46700000000E-02 0.  1.
        -13    1    1    2    0    0 -0.64840372279E+01  0.15033962697E+02  0.92881897026E+02  0.94313947753E+02  0.10570000000E+00 0. -1.
         13    1    1    2    0    0  0.64840372279E+01 -0.15033962697E+02  0.27688169733E+02  0.32166888080E+02  0.10570000000E+00 0.  1.
<mgrwt>
<rscale>  0 0.38213359E+02</rscale>
<asrwt>0</asrwt>
<pdfrwt beam="2">  1        1 0.45467448E-03 0.38213359E+02</pdfrwt>
<pdfrwt beam="1">  1       -1 0.19003918E-01 0.38213359E+02</pdfrwt>
<totfact> 0.69084830E+05</totfact>
</mgrwt>
</event>
<event>
 4    1  0.4261729E-001  0.8899837E+02  0.7818608E-02  0.1305296E+00
         -1   -1    0    0    0  501 -0.00000000000E+00  0.00000000000E+00  0.16998041329E+03  0.16998041335E+03  0.46700000000E-02 0.  1.
          1   -1    0    0  501    0  0.00000000000E+00 -0.00000000000E+00 -0.11649445460E+02  0.11649446396E+02  0.46700000000E-02 0. -1.
        -13    1    1    2    0    0  0.34572736261E+02 -0.13681910883E+02  0.29271754719E+02  0.47321407151E+02  0.10570000000E+00 0. -1.
         13    1    1    2    0    0 -0.34572736261E+02  0.13681910883E+02  0.12905921311E+03  0.13430845260E+03  0.10570000000E+00 0.  1.
<mgrwt>
<rscale>  0 0.88998374E+02</rscale>
<asrwt>0</asrwt>
<pdfrwt beam="2">  1        1 0.17922225E-02 0.88998374E+02</pdfrwt>
<pdfrwt beam="1">  1       -1 0.26150832E-01 0.88998374E+02</pdfrwt>
<totfact> 0.77241127E+04</totfact>
</mgrwt>
</event>
<event>
 4    1  0.4261729E-001  0.2817263E+02  0.7818608E-02  0.1619213E+00
         -1   -1    0    0    0  501 -0.00000000000E+00  0.00000000000E+00  0.20512447353E+02  0.20512447885E+02  0.46700000000E-02 0. -1.
          1   -1    0    0  501    0  0.00000000000E+00 -0.00000000000E+00 -0.96733596603E+01  0.96733607875E+01  0.46700000000E-02 0.  1.
        -13    1    1    2    0    0 -0.10276932801E+02 -0.43733923678E+01  0.14616080993E+02  0.18395186998E+02  0.10570000000E+00 0. -1.
         13    1    1    2    0    0  0.10276932801E+02  0.43733923678E+01 -0.37769933001E+01  0.11790621675E+02  0.10570000000E+00 0.  1.
<mgrwt>
<rscale>  0 0.28172633E+02</rscale>
<asrwt>0</asrwt>
<pdfrwt beam="2">  1        1 0.14882093E-02 0.28172633E+02</pdfrwt>
<pdfrwt beam="1">  1       -1 0.31557612E-02 0.28172633E+02</pdfrwt>
<totfact> 0.17266037E+06</totfact>
</mgrwt>
</event>
<event>
 4    1  0.4261729E-001  0.5276663E+02  0.7818608E-02  0.1430966E+00
          1   -1    0    0  501    0  0.00000000000E+00  0.00000000000E+00  0.21429905376E+02  0.21429905885E+02  0.46700000000E-02 0.  1.
         -1   -1    0    0    0  501 -0.00000000000E+00 -0.00000000000E+00 -0.32481677297E+02  0.32481677633E+02  0.46700000000E-02 0. -1.
        -13    1    1    2    0    0 -0.17463723672E+02  0.18855294903E+02  0.56709829590E+00  0.25706741593E+02  0.10570000000E+00 0.  1.
         13    1    1    2    0    0  0.17463723672E+02 -0.18855294903E+02 -0.11618870217E+02  0.28204841925E+02  0.10570000000E+00 0. -1.
<mgrwt>
<rscale>  0 0.52766629E+02</rscale>
<asrwt>0</asrwt>
<pdfrwt beam="1">  1        1 0.32969086E-02 0.52766629E+02</pdfrwt>
<pdfrwt beam="2">  1       -1 0.49971812E-02 0.52766629E+02</pdfrwt>
<totfact> 0.37437506E+05</totfact>
</mgrwt>
</event>
<event>
 4    1  0.4261729E-001  0.4478464E+02  0.7818608E-02  0.1475691E+00
          1   -1    0    0  501    0  0.00000000000E+00  0.00000000000E+00  0.37966875573E+01  0.37966904294E+01  0.46700000000E-02 0.  1.
         -1   -1    0    0    0  501 -0.00000000000E+00 -0.00000000000E+00 -0.13206662379E+03  0.13206662388E+03  0.46700000000E-02 0. -1.
        -13    1    1    2    0    0 -0.19558475527E+02  0.45118688486E+01 -0.94245727810E+02  0.96359531486E+02  0.10570000000E+00 0. -1.
         13    1    1    2    0    0  0.19558475527E+02 -0.45118688486E+01 -0.34024208427E+02  0.39503782819E+02  0.10570000000E+00 0.  1.
<mgrwt>
<rscale>  0 0.44784636E+02</rscale>
<asrwt>0</asrwt>
<pdfrwt beam="1">  1        1 0.58410611E-03 0.44784636E+02</pdfrwt>
<pdfrwt beam="2">  1       -1 0.20317939E-01 0.44784636E+02</pdfrwt>
<totfact> 0.46392945E+05</totfact>
</mgrwt>
</event>
<event>
 4    1  0.4261729E-001  0.7698908E+02  0.7818608E-02  0.1337820E+00
         -1   -1    0    0    0  501 -0.00000000000E+00  0.00000000000E+00  0.16133295130E+03  0.16133295136E+03  0.46700000000E-02 0.  1.
          1   -1    0    0  501    0  0.00000000000E+00 -0.00000000000E+00 -0.91849151922E+01  0.91849163794E+01  0.46700000000E-02 0. -1.
        -13    1    1    2    0    0  0.28533701252E+02 -0.68063325605E+01  0.20866466958E+02  0.35998873397E+02  0.10570000000E+00 0. -1.
         13    1    1    2    0    0 -0.28533701252E+02  0.68063325605E+01  0.13128156915E+03  0.13451899435E+03  0.10570000000E+00 0.  1.
<mgrwt>
<rscale>  0 0.76989079E+02</rscale>
<asrwt>0</asrwt>
<pdfrwt beam="2">  1        1 0.14130640E-02 0.76989079E+02</pdfrwt>
<pdfrwt beam="1">  1       -1 0.24820454E-01 0.76989079E+02</pdfrwt>
<totfact> 0.11379349E+05</totfact>
</mgrwt>
</event>
<event>
 4    1  0.4261729E-001  0.2133576E+02  0.7818608E-02  0.1719999E+00
          1   -1    0    0  501    0  0.00000000000E+00  0.00000000000E+00  0.61752010927E+02  0.61752011104E+02  0.46700000000E-02 0.  1.
         -1   -1    0    0    0  501 -0.00000000000E+00 -0.00000000000E+00 -0.18429110142E+01  0.18429169312E+01  0.46700000000E-02 0. -1.
        -13    1    1    2    0    0  0.10532992837E+02 -0.10353546474E+01  0.25981652325E+02  0.28054827167E+02  0.10570000000E+00 0.  1.
         13    1    1    2    0    0 -0.10532992837E+02  0.10353546474E+01  0.33927447588E+02  0.35540100868E+02  0.10570000000E+00 0. -1.
<mgrwt>
<rscale>  0 0.21335759E+02</rscale>
<asrwt>0</asrwt>
<pdfrwt beam="1">  1        1 0.95003092E-02 0.21335759E+02</pdfrwt>
<pdfrwt beam="2">  1       -1 0.28352526E-03 0.21335759E+02</pdfrwt>
<totfact> 0.36689641E+06</totfact>
</mgrwt>
</event>
<event>
 4    1  0.4261729E-001  0.5030077E+02  0.7818608E-02  0.1443726E+00
          1   -1    0    0  501    0  0.00000000000E+00  0.00000000000E+00  0.66732085010E+02  0.66732085173E+02  0.46700000000E-02 0.  1.
         -1   -1    0    0    0  501 -0.00000000000E+00 -0.00000000000E+00 -0.94788270104E+01  0.94788281608E+01  0.46700000000E-02 0. -1.
        -13    1    1    2    0    0  0.13408598531E+02  0.15775164787E+02  0.69927429907E+01  0.21853053920E+02  0.10570000000E+00 0. -1.
         13    1    1    2    0    0 -0.13408598531E+02 -0.15775164787E+02  0.50260515009E+02  0.54357859414E+02  0.10570000000E+00 0.  1.
<mgrwt>
<rscale>  0 0.50300773E+02</rscale>
<asrwt>0</asrwt>
<pdfrwt beam="1">  1        1 0.10266474E-01 0.50300773E+02</pdfrwt>
<pdfrwt beam="2">  1       -1 0.14582812E-02 0.50300773E+02</pdfrwt>
<totfact> 0.47332015E+05</totfact>
</mgrwt>
</event>
<event>
 4    1  0.4261729E-001  0.3277806E+02  0.7818608E-02  0.1569266E+00
          1   -1    0    0  501    0  0.00000000000E+00  0.00000000000E+00  0.30404283770E+01  0.30404319635E+01  0.46700000000E-02 0.  1.
         -1   -1    0    0    0  501 -0.00000000000E+00 -0.00000000000E+00 -0.88342832439E+02  0.88342832562E+02  0.46700000000E-02 0. -1.
        -13    1    1    2    0    0 -0.80037922603E+01 -0.14294510538E+02 -0.43883363234E+02  0.46841802519E+02  0.10570000000E+00 0.  1.
         13    1    1    2    0    0  0.80037922603E+01  0.14294510538E+02 -0.41419040828E+02  0.44541462007E+02  0.10570000000E+00 0. -1.
<mgrwt>
<rscale>  0 0.32778055E+02</rscale>
<asrwt>0</asrwt>
<pdfrwt beam="1">  1        1 0.46775857E-03 0.32778055E+02</pdfrwt>
<pdfrwt beam="2">  1       -1 0.13591203E-01 0.32778055E+02</pdfrwt>
<totfact> 0.10539708E+06</totfact>
</mgrwt>
</event>
<event>
 4    1  0.4261729E-001  0.3113005E+02  0.7818608E-02  0.1585923E+00
         -1   -1    0    0    0  501 -0.00000000000E+00  0.00000000000E+00  0.27325021118E+02  0.27325021518E+02  0.46700000000E-02 0. -1.
          1   -1    0    0  501    0  0.00000000000E+00 -0.00000000000E+00 -0.88662301430E+01  0.88662313729E+01  0.46700000000E-02 0.  1.
        -13    1    1    2    0    0 -0.74757183276E+01 -0.97236453954E+01 -0.19109820600E+01  0.12413648505E+02  0.10570000000E+00 0.  1.
         13    1    1    2    0    0  0.74757183276E+01  0.97236453954E+01  0.20369773035E+02  0.23777604385E+02  0.10570000000E+00 0. -1.
<mgrwt>
<rscale>  0 0.31130047E+02</rscale>
<asrwt>0</asrwt>
<pdfrwt beam="2">  1        1 0.13640355E-02 0.31130047E+02</pdfrwt>
<pdfrwt beam="1">  1       -1 0.42038495E-02 0.31130047E+02</pdfrwt>
<totfact> 0.13441943E+06</totfact>
</mgrwt>
</event>
<event>
 4    1  0.4261729E-001  0.2877551E+02  0.7818608E-02  0.1612032E+00
         -1   -1    0    0    0  501 -0.00000000000E+00  0.00000000000E+00  0.68290195500E+01  0.68290211468E+01  0.46700000000E-02 0.  1.
          1   -1    0    0  501    0  0.00000000000E+00 -0.00000000000E+00 -0.30312919159E+02  0.30312919519E+02  0.46700000000E-02 0. -1.
        -13    1    1    2    0    0  0.90341983666E+01  0.58689040008E+01 -0.24050544883E+02  0.26353380352E+02  0.10570000000E+00 0. -1.
         13    1    1    2    0    0 -0.90341983666E+01 -0.58689040008E+01  0.56664527372E+00  0.10788560314E+02  0.10570000000E+00 0.  1.
<mgrwt>
<rscale>  0 0.28775514E+02</rscale>
<asrwt>0</asrwt>
<pdfrwt beam="2">  1        1 0.46635261E-02 0.28775514E+02</pdfrwt>
<pdfrwt beam="1">  1       -1 0.10506186E-02 0.28775514E+02</pdfrwt>
<totfact> 0.17500887E+06</totfact>
</mgrwt>
</event>
<event>
 4    1  0.4261729E-001  0.4712507E+02  0.7818608E-02  0.1461495E+00
         -1   -1    0    0    0  501 -0.00000000000E+00  0.00000000000E+00  0.45762112725E+02  0.45762112964E+02  0.46700000000E-02 0.  1.
          1   -1    0    0  501    0  0.00000000000E+00 -0.00000000000E+00 -0.12132152349E+02  0.12132153248E+02  0.46700000000E-02 0. -1.
        -13    1    1    2    0    0 -0.19497259829E+02 -0.84860160531E+01  0.43452409595E+01  0.21703637962E+02  0.10570000000E+00 0. -1.
         13    1    1    2    0    0  0.19497259829E+02  0.84860160531E+01  0.29284719417E+02  0.36190628250E+02  0.10570000000E+00 0.  1.
<mgrwt>
<rscale>  0 0.47125066E+02</rscale>
<asrwt>0</asrwt>
<pdfrwt beam="2">  1        1 0.18664851E-02 0.47125066E+02</pdfrwt>
<pdfrwt beam="1">  1       -1 0.70403251E-02 0.47125066E+02</pdfrwt>
<totfact> 0.47699403E+05</totfact>
</mgrwt>
</event>
<event>
 4    1  0.4261729E-001  0.2213226E+02  0.7818608E-02  0.1705975E+00
         -1   -1    0    0    0  501 -0.00000000000E+00  0.00000000000E+00  0.11705706539E+02  0.11705707470E+02  0.46700000000E-02 0.  1.
          1   -1    0    0  501    0  0.00000000000E+00 -0.00000000000E+00 -0.10461495798E+02  0.10461496840E+02  0.46700000000E-02 0. -1.
        -13    1    1    2    0    0  0.94746215235E+01 -0.42220597989E+01 -0.32380436628E+01  0.10866937987E+02  0.10570000000E+00 0.  1.
         13    1    1    2    0    0 -0.94746215235E+01  0.42220597989E+01  0.44822544036E+01  0.11300266324E+02  0.10570000000E+00 0. -1.
<mgrwt>
<rscale>  0 0.22132259E+02</rscale>
<asrwt>0</asrwt>
<pdfrwt beam="2">  1        1 0.16094610E-02 0.22132259E+02</pdfrwt>
<pdfrwt beam="1">  1       -1 0.18008781E-02 0.22132259E+02</pdfrwt>
<totfact> 0.30684543E+06</totfact>
</mgrwt>
</event>
<event>
 4    1  0.4261729E-001  0.3854422E+02  0.7818608E-02  0.1519206E+00
          1   -1    0    0  501    0  0.00000000000E+00  0.00000000000E+00  0.32206058318E+01  0.32206092177E+01  0.46700000000E-02 0. -1.
         -1   -1    0    0    0  501 -0.00000000000E+00 -0.00000000000E+00 -0.11532425664E+03  0.11532425673E+03  0.46700000000E-02 0.  1.
        -13    1    1    2    0    0  0.14834091740E+02  0.35813469958E+01 -0.19853353942E+02  0.25040829844E+02  0.10570000000E+00 0. -1.
         13    1    1    2    0    0 -0.14834091740E+02 -0.35813469958E+01 -0.92250296864E+02  0.93504036106E+02  0.10570000000E+00 0.  1.
<mgrwt>
<rscale>  0 0.38544218E+02</rscale>
<asrwt>0</asrwt>
<pdfrwt beam="1">  1        1 0.49547818E-03 0.38544218E+02</pdfrwt>
<pdfrwt beam="2">  1       -1 0.17742190E-01 0.38544218E+02</pdfrwt>
<totfact> 0.68537741E+05</totfact>
</mgrwt>
</event>
<event>
 4    1  0.4261729E-001  0.2828227E+02  0.7818608E-02  0.1617891E+00
          1   -1    0    0  501    0  0.00000000000E+00  0.00000000000E+00  0.41849380519E+02  0.41849380780E+02  0.46700000000E-02 0.  1.
         -1   -1    0    0    0  501 -0.00000000000E+00 -0.00000000000E+00 -0.47783671012E+01  0.47783693833E+01  0.46700000000E-02 0. -1.
        -13    1    1    2    0    0 -0.28853482595E+01  0.12120521186E+02  0.29561594052E+02  0.32080076118E+02  0.10570000000E+00 0.  1.
         13    1    1    2    0    0  0.28853482595E+01 -0.12120521186E+02  0.75094193661E+01  0.14547674044E+02  0.10570000000E+00 0. -1.
<mgrwt>
<rscale>  0 0.28282274E+02</rscale>
<asrwt>0</asrwt>
<pdfrwt beam="1">  1        1 0.64383666E-02 0.28282274E+02</pdfrwt>
<pdfrwt beam="2">  1       -1 0.73513358E-03 0.28282274E+02</pdfrwt>
<totfact> 0.18620470E+06</totfact>
</mgrwt>
</event>
<event>
 4    1  0.4261729E-001  0.2225163E+02  0.7818608E-02  0.1703936E+00
          1   -1    0    0  501    0  0.00000000000E+00  0.00000000000E+00  0.50916950881E+02  0.50916951095E+02  0.46700000000E-02 0.  1.
         -1   -1    0    0    0  501 -0.00000000000E+00 -0.00000000000E+00 -0.24310878631E+01  0.24310923485E+01  0.46700000000E-02 0. -1.
        -13    1    1    2    0    0  0.10655278342E+02 -0.22958273001E+01  0.29586029164E+02  0.31530145475E+02  0.10570000000E+00 0. -1.
         13    1    1    2    0    0 -0.10655278342E+02  0.22958273001E+01  0.18899833854E+02  0.21817897968E+02  0.10570000000E+00 0.  1.
<mgrwt>
<rscale>  0 0.22251625E+02</rscale>
<asrwt>0</asrwt>
<pdfrwt beam="1">  1        1 0.78333771E-02 0.22251625E+02</pdfrwt>
<pdfrwt beam="2">  1       -1 0.37401389E-03 0.22251625E+02</pdfrwt>
<totfact> 0.32874422E+06</totfact>
</mgrwt>
</event>
<event>
 4    1  0.4261729E-001  0.3499385E+02  0.7818608E-02  0.1548655E+00
         -1   -1    0    0    0  501 -0.00000000000E+00  0.00000000000E+00  0.59876120058E+01  0.59876138269E+01  0.46700000000E-02 0. -1.
          1   -1    0    0  501    0  0.00000000000E+00 -0.00000000000E+00 -0.51129287749E+02  0.51129287962E+02  0.46700000000E-02 0.  1.
        -13    1    1    2    0    0  0.13380284888E+02  0.10725464448E+02 -0.28239904734E+02  0.33038931629E+02  0.10570000000E+00 0.  1.
         13    1    1    2    0    0 -0.13380284888E+02 -0.10725464448E+02 -0.16901771009E+02  0.24077970160E+02  0.10570000000E+00 0. -1.
<mgrwt>
<rscale>  0 0.34993851E+02</rscale>
<asrwt>0</asrwt>
<pdfrwt beam="2">  1        1 0.78660441E-02 0.34993851E+02</pdfrwt>
<pdfrwt beam="1">  1       -1 0.92117127E-03 0.34993851E+02</pdfrwt>
<totfact> 0.11363137E+06</totfact>
</mgrwt>
</event>
<event>
 4    1  0.4261729E-001  0.5343626E+02  0.7818608E-02  0.1427642E+00
         -1   -1    0    0    0  501 -0.00000000000E+00  0.00000000000E+00  0.70034209953E+02  0.70034210108E+02  0.46700000000E-02 0. -1.
          1   -1    0    0  501    0  0.00000000000E+00 -0.00000000000E+00 -0.10192996079E+02  0.10192997149E+02  0.46700000000E-02 0.  1.
        -13    1    1    2    0    0 -0.23393447756E+01 -0.22785755589E+02  0.92702316202E+01  0.24710555609E+02  0.10570000000E+00 0.  1.
         13    1    1    2    0    0  0.23393447756E+01  0.22785755589E+02  0.50570982253E+02  0.55516651648E+02  0.10570000000E+00 0. -1.
<mgrwt>
<rscale>  0 0.53436260E+02</rscale>
<asrwt>0</asrwt>
<pdfrwt beam="2">  1        1 0.15681533E-02 0.53436260E+02</pdfrwt>
<pdfrwt beam="1">  1       -1 0.10774494E-01 0.53436260E+02</pdfrwt>
<totfact> 0.33289752E+05</totfact>
</mgrwt>
</event>
<event>
 4    1  0.4261729E-001  0.4196479E+02  0.7818608E-02  0.1494231E+00
         -1   -1    0    0    0  501 -0.00000000000E+00  0.00000000000E+00  0.33892193964E+02  0.33892194285E+02  0.46700000000E-02 0. -1.
          1   -1    0    0  501    0  0.00000000000E+00 -0.00000000000E+00 -0.12990035881E+02  0.12990036721E+02  0.46700000000E-02 0.  1.
        -13    1    1    2    0    0  0.10962916793E+02 -0.12114016391E+02 -0.42564930317E+01  0.16883833781E+02  0.10570000000E+00 0.  1.
         13    1    1    2    0    0 -0.10962916793E+02  0.12114016391E+02  0.25158651114E+02  0.29998397225E+02  0.10570000000E+00 0. -1.
<mgrwt>
<rscale>  0 0.41964787E+02</rscale>
<asrwt>0</asrwt>
<pdfrwt beam="2">  1        1 0.19984672E-02 0.41964787E+02</pdfrwt>
<pdfrwt beam="1">  1       -1 0.52141837E-02 0.41964787E+02</pdfrwt>
<totfact> 0.65048525E+05</totfact>
</mgrwt>
</event>
<event>
 4    1  0.4261729E-001  0.2964744E+02  0.7818608E-02  0.1602019E+00
          1   -1    0    0  501    0  0.00000000000E+00  0.00000000000E+00  0.31881228711E+02  0.31881229053E+02  0.46700000000E-02 0. -1.
         -1   -1    0    0    0  501 -0.00000000000E+00 -0.00000000000E+00 -0.68925383815E+01  0.68925399636E+01  0.46700000000E-02 0.  1.
        -13    1    1    2    0    0 -0.66756761417E+01  0.99040949661E+01  0.23976135880E+02  0.26786601376E+02  0.10570000000E+00 0. -1.
         13    1    1    2    0    0  0.66756761417E+01 -0.99040949661E+01  0.10125544497E+01  0.11987167641E+02  0.10570000000E+00 0.  1.
<mgrwt>
<rscale>  0 0.29647437E+02</rscale>
<asrwt>0</asrwt>
<pdfrwt beam="1">  1        1 0.49048046E-02 0.29647437E+02</pdfrwt>
<pdfrwt beam="2">  1       -1 0.10603907E-02 0.29647437E+02</pdfrwt>
<totfact> 0.16353458E+06</totfact>
</mgrwt>
</event>
<event>
 4    1  0.4261729E-001  0.3001199E+02  0.7818608E-02  0.1597956E+00
         -1   -1    0    0    0  501 -0.00000000000E+00  0.00000000000E+00  0.62473427145E+01  0.62473444599E+01  0.46700000000E-02 0.  1.
          1   -1    0    0  501    0  0.00000000000E+00 -0.00000000000E+00 -0.36044090935E+02  0.36044091238E+02  0.46700000000E-02 0. -1.
        -13    1    1    2    0    0  0.83132067461E+01  0.12311678994E+02 -0.11915158893E+02  0.19043871193E+02  0.10570000000E+00 0. -1.
         13    1    1    2    0    0 -0.83132067461E+01 -0.12311678994E+02 -0.17881589327E+02  0.23247564505E+02  0.10570000000E+00 0.  1.
<mgrwt>
<rscale>  0 0.30011986E+02</rscale>
<asrwt>0</asrwt>
<pdfrwt beam="2">  1        1 0.55452448E-02 0.30011986E+02</pdfrwt>
<pdfrwt beam="1">  1       -1 0.96112983E-03 0.30011986E+02</pdfrwt>
<totfact> 0.16011196E+06</totfact>
</mgrwt>
</event>
<event>
 4    1  0.4261729E-001  0.4793038E+02  0.7818608E-02  0.1456835E+00
         -1   -1    0    0    0  501 -0.00000000000E+00  0.00000000000E+00  0.13302332397E+02  0.13302333216E+02  0.46700000000E-02 0. -1.
          1   -1    0    0  501    0  0.00000000000E+00 -0.00000000000E+00 -0.43175160818E+02  0.43175161070E+02  0.46700000000E-02 0.  1.
        -13    1    1    2    0    0 -0.29201653929E+01  0.12003065599E+02 -0.39134205721E+02  0.41037765285E+02  0.10570000000E+00 0.  1.
         13    1    1    2    0    0  0.29201653929E+01 -0.12003065599E+02  0.92613772995E+01  0.15439729002E+02  0.10570000000E+00 0. -1.
<mgrwt>
<rscale>  0 0.47930382E+02</rscale>
<asrwt>0</asrwt>
<pdfrwt beam="2">  1        1 0.66423324E-02 0.47930382E+02</pdfrwt>
<pdfrwt beam="1">  1       -1 0.20465128E-02 0.47930382E+02</pdfrwt>
<totfact> 0.51205722E+05</totfact>
</mgrwt>
</event>
<event>
 4    1  0.4261729E-001  0.2108765E+02  0.7818608E-02  0.1724526E+00
          1   -1    0    0  501    0  0.00000000000E+00  0.00000000000E+00  0.41407611468E+02  0.41407611732E+02  0.46700000000E-02 0. -1.
         -1   -1    0    0    0  501 -0.00000000000E+00 -0.00000000000E+00 -0.26848230214E+01  0.26848270829E+01  0.46700000000E-02 0.  1.
        -13    1    1    2    0    0 -0.41150882308E+01 -0.95422544187E+01  0.23085604149E+02  0.25316888868E+02  0.10570000000E+00 0. -1.
         13    1    1    2    0    0  0.41150882308E+01  0.95422544187E+01  0.15637184298E+02  0.18775549946E+02  0.10570000000E+00 0.  1.
<mgrwt>
<rscale>  0 0.21087646E+02</rscale>
<asrwt>0</asrwt>
<pdfrwt beam="1">  1        1 0.63704015E-02 0.21087646E+02</pdfrwt>
<pdfrwt beam="2">  1       -1 0.41305006E-03 0.21087646E+02</pdfrwt>
<totfact> 0.36591634E+06</totfact>
</mgrwt>
</event>
<event>
 4    1  0.4261729E-001  0.2997646E+02  0.7818608E-02  0.1598349E+00
         -1   -1    0    0    0  501 -0.00000000000E+00  0.00000000000E+00  0.89952784993E+02  0.89952785114E+02  0.46700000000E-02 0.  1.
          1   -1    0    0  501    0  0.00000000000E+00 -0.00000000000E+00 -0.24973860372E+01  0.24973904036E+01  0.46700000000E-02 0. -1.
        -13    1    1    2    0    0 -0.14654354270E+02  0.89113215887E+00  0.53026966496E+02  0.55021946202E+02  0.10570000000E+00 0.  1.
         13    1    1    2    0    0  0.14654354270E+02 -0.89113215887E+00  0.34428432460E+02  0.37428229316E+02  0.10570000000E+00 0. -1.
<mgrwt>
<rscale>  0 0.29976460E+02</rscale>
<asrwt>0</asrwt>
<pdfrwt beam="2">  1        1 0.38421365E-03 0.29976460E+02</pdfrwt>
<pdfrwt beam="1">  1       -1 0.13838888E-01 0.29976460E+02</pdfrwt>
<totfact> 0.12964223E+06</totfact>
</mgrwt>
</event>
<event>
 4    1  0.4261729E-001  0.4168646E+02  0.7818608E-02  0.1496155E+00
          1   -1    0    0  501    0  0.00000000000E+00  0.00000000000E+00  0.31718403344E+02  0.31718403688E+02  0.46700000000E-02 0.  1.
         -1   -1    0    0    0  501 -0.00000000000E+00 -0.00000000000E+00 -0.13696784026E+02  0.13696784823E+02  0.46700000000E-02 0. -1.
        -13    1    1    2    0    0 -0.11883456068E+02 -0.52017199837E+01  0.26784315504E+02  0.29760462839E+02  0.10570000000E+00 0.  1.
         13    1    1    2    0    0  0.11883456068E+02  0.52017199837E+01 -0.87626961855E+01  0.15654725671E+02  0.10570000000E+00 0. -1.
<mgrwt>
<rscale>  0 0.41686456E+02</rscale>
<asrwt>0</asrwt>
<pdfrwt beam="1">  1        1 0.48797543E-02 0.41686456E+02</pdfrwt>
<pdfrwt beam="2">  1       -1 0.21071977E-02 0.41686456E+02</pdfrwt>
<totfact> 0.71002813E+05</totfact>
</mgrwt>
</event>
<event>
 4    1  0.4261729E-001  0.3241281E+02  0.7818608E-02  0.1572854E+00
          1   -1    0    0  501    0  0.00000000000E+00  0.00000000000E+00  0.77423264264E+02  0.77423264404E+02  0.46700000000E-02 0.  1.
         -1   -1    0    0    0  501 -0.00000000000E+00 -0.00000000000E+00 -0.33923579597E+01  0.33923611742E+01  0.46700000000E-02 0. -1.
        -13    1    1    2    0    0 -0.11711125817E+02  0.11092856906E+02  0.33125190915E+02  0.36844149982E+02  0.10570000000E+00 0. -1.
         13    1    1    2    0    0  0.11711125817E+02 -0.11092856906E+02  0.40905715389E+02  0.43971475597E+02  0.10570000000E+00 0.  1.
<mgrwt>
<rscale>  0 0.32412810E+02</rscale>
<asrwt>0</asrwt>
<pdfrwt beam="1">  1        1 0.11911271E-01 0.32412810E+02</pdfrwt>
<pdfrwt beam="2">  1       -1 0.52190149E-03 0.32412810E+02</pdfrwt>
<totfact> 0.14213103E+06</totfact>
</mgrwt>
</event>
<event>
 4    1  0.4261729E-001  0.3632196E+02  0.7818608E-02  0.1537165E+00
          1   -1    0    0  501    0  0.00000000000E+00  0.00000000000E+00  0.49299851341E+02  0.49299851562E+02  0.46700000000E-02 0.  1.
         -1   -1    0    0    0  501 -0.00000000000E+00 -0.00000000000E+00 -0.66901039186E+01  0.66901055486E+01  0.46700000000E-02 0. -1.
        -13    1    1    2    0    0  0.13530705958E+02  0.45777942089E+00  0.26458043660E+01  0.13794963535E+02  0.10570000000E+00 0. -1.
         13    1    1    2    0    0 -0.13530705958E+02 -0.45777942089E+00  0.39963943056E+02  0.42194993575E+02  0.10570000000E+00 0.  1.
<mgrwt>
<rscale>  0 0.36321959E+02</rscale>
<asrwt>0</asrwt>
<pdfrwt beam="1">  1        1 0.75845928E-02 0.36321959E+02</pdfrwt>
<pdfrwt beam="2">  1       -1 0.10292469E-02 0.36321959E+02</pdfrwt>
<totfact> 0.10345658E+06</totfact>
</mgrwt>
</event>
<event>
 4    1  0.4261729E-001  0.2738247E+02  0.7818608E-02  0.1628965E+00
          1   -1    0    0  501    0  0.00000000000E+00  0.00000000000E+00  0.36533902153E+01  0.36533932001E+01  0.46700000000E-02 0.  1.
         -1   -1    0    0    0  501 -0.00000000000E+00 -0.00000000000E+00 -0.51308473531E+02  0.51308473743E+02  0.46700000000E-02 0. -1.
        -13    1    1    2    0    0  0.55378561625E+01 -0.11720796290E+02 -0.32666907035E+02  0.35145169004E+02  0.10570000000E+00 0.  1.
         13    1    1    2    0    0 -0.55378561625E+01  0.11720796290E+02 -0.14988176280E+02  0.19816697940E+02  0.10570000000E+00 0. -1.
<mgrwt>
<rscale>  0 0.27382473E+02</rscale>
<asrwt>0</asrwt>
<pdfrwt beam="1">  1        1 0.56206032E-03 0.27382473E+02</pdfrwt>
<pdfrwt beam="2">  1       -1 0.78936110E-02 0.27382473E+02</pdfrwt>
<totfact> 0.17158620E+06</totfact>
</mgrwt>
</event>
<event>
 4    1  0.4261729E-001  0.3232091E+02  0.7818608E-02  0.1573765E+00
         -1   -1    0    0    0  501 -0.00000000000E+00  0.00000000000E+00  0.28037314358E+02  0.28037314747E+02  0.46700000000E-02 0.  1.
          1   -1    0    0  501    0  0.00000000000E+00 -0.00000000000E+00 -0.93147389465E+01  0.93147401171E+01  0.46700000000E-02 0. -1.
        -13    1    1    2    0    0 -0.70801371893E+01 -0.14515852912E+02  0.10005554902E+02  0.18998963913E+02  0.10570000000E+00 0.  1.
         13    1    1    2    0    0  0.70801371893E+01  0.14515852912E+02  0.87170205090E+01  0.18353090950E+02  0.10570000000E+00 0. -1.
<mgrwt>
<rscale>  0 0.32320909E+02</rscale>
<asrwt>0</asrwt>
<pdfrwt beam="2">  1        1 0.14330369E-02 0.32320909E+02</pdfrwt>
<pdfrwt beam="1">  1       -1 0.43134330E-02 0.32320909E+02</pdfrwt>
<totfact> 0.12288251E+06</totfact>
</mgrwt>
</event>
<event>
 4    1  0.4261729E-001  0.2813149E+03  0.7818608E-02  0.1094973E+00
         -1   -1    0    0    0  501 -0.00000000000E+00  0.00000000000E+00  0.59062588663E+02  0.59062588848E+02  0.46700000000E-02 0.  1.
          1   -1    0    0  501    0  0.00000000000E+00 -0.00000000000E+00 -0.33497549607E+03  0.33497549611E+03  0.46700000000E-02 0. -1.
        -13    1    1    2    0    0  0.13988960769E+03 -0.18708218856E+01 -0.11756643721E+03  0.18274156791E+03  0.10570000000E+00 0.  1.
         13    1    1    2    0    0 -0.13988960769E+03  0.18708218856E+01 -0.15834647020E+03  0.21129651704E+03  0.10570000000E+00 0. -1.
<mgrwt>
<rscale>  0 0.28131491E+03</rscale>
<asrwt>0</asrwt>
<pdfrwt beam="2">  1        1 0.51534691E-01 0.28131491E+03</pdfrwt>
<pdfrwt beam="1">  1       -1 0.90865523E-02 0.28131491E+03</pdfrwt>
<totfact> 0.53571954E+03</totfact>
</mgrwt>
</event>
<event>
 4    1  0.4261729E-001  0.3295378E+02  0.7818608E-02  0.1567560E+00
          1   -1    0    0  501    0  0.00000000000E+00  0.00000000000E+00  0.55062269408E+02  0.55062269606E+02  0.46700000000E-02 0. -1.
         -1   -1    0    0    0  501 -0.00000000000E+00 -0.00000000000E+00 -0.49305596913E+01  0.49305619029E+01  0.46700000000E-02 0.  1.
        -13    1    1    2    0    0 -0.16060723149E+02 -0.80979100660E+00  0.18533754378E+02  0.24538007526E+02  0.10570000000E+00 0. -1.
         13    1    1    2    0    0  0.16060723149E+02  0.80979100660E+00  0.31597955339E+02  0.35454823983E+02  0.10570000000E+00 0.  1.
<mgrwt>
<rscale>  0 0.32953778E+02</rscale>
<asrwt>0</asrwt>
<pdfrwt beam="1">  1        1 0.84711183E-02 0.32953778E+02</pdfrwt>
<pdfrwt beam="2">  1       -1 0.75854786E-03 0.32953778E+02</pdfrwt>
<totfact> 0.13220784E+06</totfact>
</mgrwt>
</event>
<event>
 4    1  0.4261729E-001  0.2080533E+02  0.7818608E-02  0.1729772E+00
          1   -1    0    0  501    0  0.00000000000E+00  0.00000000000E+00  0.50011437869E+01  0.50011459673E+01  0.46700000000E-02 0.  1.
         -1   -1    0    0    0  501 -0.00000000000E+00 -0.00000000000E+00 -0.21638126151E+02  0.21638126655E+02  0.46700000000E-02 0. -1.
        -13    1    1    2    0    0 -0.10224502954E+02 -0.63975901823E+00 -0.60086115541E+01  0.11877050878E+02  0.10570000000E+00 0. -1.
         13    1    1    2    0    0  0.10224502954E+02  0.63975901823E+00 -0.10628370810E+02  0.14762221745E+02  0.10570000000E+00 0.  1.
<mgrwt>
<rscale>  0 0.20805328E+02</rscale>
<asrwt>0</asrwt>
<pdfrwt beam="1">  1        1 0.76940695E-03 0.20805328E+02</pdfrwt>
<pdfrwt beam="2">  1       -1 0.33289426E-02 0.20805328E+02</pdfrwt>
<totfact> 0.34143827E+06</totfact>
</mgrwt>
</event>
<event>
 4    1  0.4261729E-001  0.2909946E+02  0.7818608E-02  0.1608262E+00
         -1   -1    0    0    0  501 -0.00000000000E+00  0.00000000000E+00  0.30239420062E+01  0.30239456122E+01  0.46700000000E-02 0. -1.
          1   -1    0    0  501    0  0.00000000000E+00 -0.00000000000E+00 -0.70006149620E+02  0.70006149775E+02  0.46700000000E-02 0.  1.
        -13    1    1    2    0    0 -0.89858146551E+01  0.92043593446E+01 -0.50552885681E+02  0.52163881366E+02  0.10570000000E+00 0.  1.
         13    1    1    2    0    0  0.89858146551E+01 -0.92043593446E+01 -0.16429321932E+02  0.20866214022E+02  0.10570000000E+00 0. -1.
<mgrwt>
<rscale>  0 0.29099462E+02</rscale>
<asrwt>0</asrwt>
<pdfrwt beam="2">  1        1 0.10770176E-01 0.29099462E+02</pdfrwt>
<pdfrwt beam="1">  1       -1 0.46522219E-03 0.29099462E+02</pdfrwt>
<totfact> 0.18172430E+06</totfact>
</mgrwt>
</event>
<event>
 4    1  0.4261729E-001  0.2619158E+02  0.7818608E-02  0.1644454E+00
         -1   -1    0    0    0  501 -0.00000000000E+00  0.00000000000E+00  0.56540163727E+01  0.56540183013E+01  0.46700000000E-02 0.  1.
          1   -1    0    0  501    0  0.00000000000E+00 -0.00000000000E+00 -0.30332354908E+02  0.30332355268E+02  0.46700000000E-02 0. -1.
        -13    1    1    2    0    0  0.81782549875E+01 -0.79645854627E+01 -0.21155076255E+02  0.24038862287E+02  0.10570000000E+00 0. -1.
         13    1    1    2    0    0 -0.81782549875E+01  0.79645854627E+01 -0.35232622804E+01  0.11947511281E+02  0.10570000000E+00 0.  1.
<mgrwt>
<rscale>  0 0.26191577E+02</rscale>
<asrwt>0</asrwt>
<pdfrwt beam="2">  1        1 0.46665162E-02 0.26191577E+02</pdfrwt>
<pdfrwt beam="1">  1       -1 0.86984887E-03 0.26191577E+02</pdfrwt>
<totfact> 0.21843183E+06</totfact>
</mgrwt>
</event>
<event>
 4    1  0.4261729E-001  0.2518217E+02  0.7818608E-02  0.1658399E+00
          1   -1    0    0  501    0  0.00000000000E+00  0.00000000000E+00  0.60713946602E+01  0.60713964562E+01  0.46700000000E-02 0.  1.
         -1   -1    0    0    0  501 -0.00000000000E+00 -0.00000000000E+00 -0.26111864407E+02  0.26111864825E+02  0.46700000000E-02 0. -1.
        -13    1    1    2    0    0 -0.11498519451E+02 -0.26705848920E+01 -0.44236961473E+01  0.12606674158E+02  0.10570000000E+00 0.  1.
         13    1    1    2    0    0  0.11498519451E+02  0.26705848920E+01 -0.15616773600E+02  0.19576587123E+02  0.10570000000E+00 0. -1.
<mgrwt>
<rscale>  0 0.25182174E+02</rscale>
<asrwt>0</asrwt>
<pdfrwt beam="1">  1        1 0.93406090E-03 0.25182174E+02</pdfrwt>
<pdfrwt beam="2">  1       -1 0.40172100E-02 0.25182174E+02</pdfrwt>
<totfact> 0.21986429E+06</totfact>
</mgrwt>
</event>
<event>
 4    1  0.4261729E-001  0.1538381E+03  0.7818608E-02  0.1195835E+00
         -1   -1    0    0    0  501 -0.00000000000E+00  0.00000000000E+00  0.65167311145E+02  0.65167311312E+02  0.46700000000E-02 0.  1.
          1   -1    0    0  501    0  0.00000000000E+00 -0.00000000000E+00 -0.90789948794E+02  0.90789948914E+02  0.46700000000E-02 0. -1.
        -13    1    1    2    0    0 -0.15576296496E+02 -0.14118729818E+02  0.62198249796E+02  0.65655106385E+02  0.10570000000E+00 0.  1.
         13    1    1    2    0    0  0.15576296496E+02  0.14118729818E+02 -0.87820887446E+02  0.90302153842E+02  0.10570000000E+00 0. -1.
<mgrwt>
<rscale>  0 0.15383806E+03</rscale>
<asrwt>0</asrwt>
<pdfrwt beam="2">  1        1 0.13967684E-01 0.15383806E+03</pdfrwt>
<pdfrwt beam="1">  1       -1 0.10025740E-01 0.15383806E+03</pdfrwt>
<totfact> 0.23245226E+04</totfact>
</mgrwt>
</event>
<event>
 4    1  0.4261729E-001  0.3249919E+02  0.7818608E-02  0.1572000E+00
          1   -1    0    0  501    0  0.00000000000E+00  0.00000000000E+00  0.15639820234E+02  0.15639820931E+02  0.46700000000E-02 0.  1.
         -1   -1    0    0    0  501 -0.00000000000E+00 -0.00000000000E+00 -0.16883144707E+02  0.16883145353E+02  0.46700000000E-02 0. -1.
        -13    1    1    2    0    0 -0.12649869086E+02  0.30417868572E+01  0.91202699712E+01  0.15889057619E+02  0.10570000000E+00 0.  1.
         13    1    1    2    0    0  0.12649869086E+02 -0.30417868572E+01 -0.10363594445E+02  0.16633908665E+02  0.10570000000E+00 0. -1.
<mgrwt>
<rscale>  0 0.32499192E+02</rscale>
<asrwt>0</asrwt>
<pdfrwt beam="1">  1        1 0.24061263E-02 0.32499192E+02</pdfrwt>
<pdfrwt beam="2">  1       -1 0.25974070E-02 0.32499192E+02</pdfrwt>
<totfact> 0.12548030E+06</totfact>
</mgrwt>
</event>
<event>
 4    1  0.4261729E-001  0.2504375E+02  0.7818608E-02  0.1660374E+00
         -1   -1    0    0    0  501 -0.00000000000E+00  0.00000000000E+00  0.11161153444E+02  0.11161154421E+02  0.46700000000E-02 0.  1.
          1   -1    0    0  501    0  0.00000000000E+00 -0.00000000000E+00 -0.14048488663E+02  0.14048489439E+02  0.46700000000E-02 0. -1.
        -13    1    1    2    0    0 -0.10136229878E+02  0.56718924806E+00 -0.88217025867E+01  0.13449850141E+02  0.10570000000E+00 0. -1.
         13    1    1    2    0    0  0.10136229878E+02 -0.56718924806E+00  0.59343673678E+01  0.11759793720E+02  0.10570000000E+00 0.  1.
<mgrwt>
<rscale>  0 0.25043750E+02</rscale>
<asrwt>0</asrwt>
<pdfrwt beam="2">  1        1 0.21613061E-02 0.25043750E+02</pdfrwt>
<pdfrwt beam="1">  1       -1 0.17171007E-02 0.25043750E+02</pdfrwt>
<totfact> 0.23324162E+06</totfact>
</mgrwt>
</event>
<event>
 4    1  0.4261729E-001  0.2190843E+02  0.7818608E-02  0.1709841E+00
          1   -1    0    0  501    0  0.00000000000E+00  0.00000000000E+00  0.10546512722E+02  0.10546513756E+02  0.46700000000E-02 0. -1.
         -1   -1    0    0    0  501 -0.00000000000E+00 -0.00000000000E+00 -0.11377673039E+02  0.11377673997E+02  0.46700000000E-02 0.  1.
        -13    1    1    2    0    0  0.99979072891E+01  0.23298887682E+01  0.34077822830E+01  0.10817147702E+02  0.10570000000E+00 0. -1.
         13    1    1    2    0    0 -0.99979072891E+01 -0.23298887682E+01 -0.42389425997E+01  0.11107040051E+02  0.10570000000E+00 0.  1.
<mgrwt>
<rscale>  0 0.21908427E+02</rscale>
<asrwt>0</asrwt>
<pdfrwt beam="1">  1        1 0.16225406E-02 0.21908427E+02</pdfrwt>
<pdfrwt beam="2">  1       -1 0.17504114E-02 0.21908427E+02</pdfrwt>
<totfact> 0.31424194E+06</totfact>
</mgrwt>
</event>
<event>
 4    1  0.4261729E-001  0.3315073E+02  0.7818608E-02  0.1565664E+00
         -1   -1    0    0    0  501 -0.00000000000E+00  0.00000000000E+00  0.92497579683E+02  0.92497579801E+02  0.46700000000E-02 0.  1.
          1   -1    0    0  501    0  0.00000000000E+00 -0.00000000000E+00 -0.29702676848E+01  0.29702713560E+01  0.46700000000E-02 0. -1.
        -13    1    1    2    0    0  0.24838278656E+01 -0.14750794581E+02  0.24202481327E+02  0.28452181226E+02  0.10570000000E+00 0. -1.
         13    1    1    2    0    0 -0.24838278656E+01  0.14750794581E+02  0.65324830671E+02  0.67015669931E+02  0.10570000000E+00 0.  1.
<mgrwt>
<rscale>  0 0.33150732E+02</rscale>
<asrwt>0</asrwt>
<pdfrwt beam="2">  1        1 0.45696461E-03 0.33150732E+02</pdfrwt>
<pdfrwt beam="1">  1       -1 0.14230395E-01 0.33150732E+02</pdfrwt>
<totfact> 0.10190438E+06</totfact>
</mgrwt>
</event>
<event>
 4    1  0.4261729E-001  0.8014227E+02  0.7818608E-02  0.1328648E+00
         -1   -1    0    0    0  501 -0.00000000000E+00  0.00000000000E+00  0.66015745183E+01  0.66015761701E+01  0.46700000000E-02 0.  1.
          1   -1    0    0  501    0  0.00000000000E+00 -0.00000000000E+00 -0.24322921841E+03  0.24322921845E+03  0.46700000000E-02 0. -1.
        -13    1    1    2    0    0  0.19777669456E+02  0.33723919167E+02 -0.14570847749E+03  0.15086228991E+03  0.10570000000E+00 0. -1.
         13    1    1    2    0    0 -0.19777669456E+02 -0.33723919167E+02 -0.90919166401E+02  0.98968504710E+02  0.10570000000E+00 0.  1.
<mgrwt>
<rscale>  0 0.80142274E+02</rscale>
<asrwt>0</asrwt>
<pdfrwt beam="2">  1        1 0.37419873E-01 0.80142274E+02</pdfrwt>
<pdfrwt beam="1">  1       -1 0.10156272E-02 0.80142274E+02</pdfrwt>
<totfact> 0.17321707E+05</totfact>
</mgrwt>
</event>
<event>
 4    1  0.4261729E-001  0.2610602E+02  0.7818608E-02  0.1645606E+00
         -1   -1    0    0    0  501 -0.00000000000E+00  0.00000000000E+00  0.12594323360E+02  0.12594324225E+02  0.46700000000E-02 0.  1.
          1   -1    0    0  501    0  0.00000000000E+00 -0.00000000000E+00 -0.13528401216E+02  0.13528402022E+02  0.46700000000E-02 0. -1.
        -13    1    1    2    0    0 -0.12105252767E+02  0.46402056937E+01  0.10509207137E+01  0.13007085003E+02  0.10570000000E+00 0. -1.
         13    1    1    2    0    0  0.12105252767E+02 -0.46402056937E+01 -0.19849985696E+01  0.13115641244E+02  0.10570000000E+00 0.  1.
<mgrwt>
<rscale>  0 0.26106021E+02</rscale>
<asrwt>0</asrwt>
<pdfrwt beam="2">  1        1 0.20812926E-02 0.26106021E+02</pdfrwt>
<pdfrwt beam="1">  1       -1 0.19375883E-02 0.26106021E+02</pdfrwt>
<totfact> 0.21106516E+06</totfact>
</mgrwt>
</event>
<event>
 4    1  0.4261729E-001  0.2275736E+02  0.7818608E-02  0.1695474E+00
         -1   -1    0    0    0  501 -0.00000000000E+00  0.00000000000E+00  0.13072185769E+02  0.13072186604E+02  0.46700000000E-02 0. -1.
          1   -1    0    0  501    0  0.00000000000E+00 -0.00000000000E+00 -0.99045645874E+01  0.99045656884E+01  0.46700000000E-02 0.  1.
        -13    1    1    2    0    0 -0.10749826965E+02 -0.49375654492E+00 -0.21478438630E+01  0.10973922774E+02  0.10570000000E+00 0.  1.
         13    1    1    2    0    0  0.10749826965E+02  0.49375654492E+00  0.53154650450E+01  0.12002829518E+02  0.10570000000E+00 0. -1.
<mgrwt>
<rscale>  0 0.22757358E+02</rscale>
<asrwt>0</asrwt>
<pdfrwt beam="2">  1        1 0.15237793E-02 0.22757358E+02</pdfrwt>
<pdfrwt beam="1">  1       -1 0.20111057E-02 0.22757358E+02</pdfrwt>
<totfact> 0.28695266E+06</totfact>
</mgrwt>
</event>
<event>
 4    1  0.4261729E-001  0.3176562E+02  0.7818608E-02  0.1579354E+00
          1   -1    0    0  501    0  0.00000000000E+00  0.00000000000E+00  0.26694245504E+01  0.26694286353E+01  0.46700000000E-02 0.  1.
         -1   -1    0    0    0  501 -0.00000000000E+00 -0.00000000000E+00 -0.94501048543E+02  0.94501048658E+02  0.46700000000E-02 0. -1.
        -13    1    1    2    0    0 -0.93247495787E+01 -0.12650895985E+02 -0.38902580089E+02  0.41957335878E+02  0.10570000000E+00 0.  1.
         13    1    1    2    0    0  0.93247495787E+01  0.12650895985E+02 -0.52929043903E+02  0.55213141415E+02  0.10570000000E+00 0. -1.
<mgrwt>
<rscale>  0 0.31765618E+02</rscale>
<asrwt>0</asrwt>
<pdfrwt beam="1">  1        1 0.41068110E-03 0.31765618E+02</pdfrwt>
<pdfrwt beam="2">  1       -1 0.14538621E-01 0.31765618E+02</pdfrwt>
<totfact> 0.11231504E+06</totfact>
</mgrwt>
</event>
<event>
 4    1  0.4261729E-001  0.5448337E+02  0.7818608E-02  0.1422558E+00
          1   -1    0    0  501    0  0.00000000000E+00  0.00000000000E+00  0.12522873106E+03  0.12522873115E+03  0.46700000000E-02 0. -1.
         -1   -1    0    0    0  501 -0.00000000000E+00 -0.00000000000E+00 -0.59260308069E+01  0.59260326470E+01  0.46700000000E-02 0.  1.
        -13    1    1    2    0    0  0.23276181933E+02 -0.61932881942E+01  0.90286856418E+02  0.93444449157E+02  0.10570000000E+00 0. -1.
         13    1    1    2    0    0 -0.23276181933E+02  0.61932881942E+01  0.29015843834E+02  0.37710314635E+02  0.10570000000E+00 0.  1.
<mgrwt>
<rscale>  0 0.54483372E+02</rscale>
<asrwt>0</asrwt>
<pdfrwt beam="1">  1        1 0.19265956E-01 0.54483372E+02</pdfrwt>
<pdfrwt beam="2">  1       -1 0.91169730E-03 0.54483372E+02</pdfrwt>
<totfact> 0.41937609E+05</totfact>
</mgrwt>
</event>
<event>
 4    1  0.4261729E-001  0.2215392E+02  0.7818608E-02  0.1705604E+00
          1   -1    0    0  501    0  0.00000000000E+00  0.00000000000E+00  0.43595103650E+02  0.43595103900E+02  0.46700000000E-02 0. -1.
         -1   -1    0    0    0  501 -0.00000000000E+00 -0.00000000000E+00 -0.28145125976E+01  0.28145164719E+01  0.46700000000E-02 0.  1.
        -13    1    1    2    0    0  0.16435532446E+01  0.10945055996E+02  0.19471476140E+02  0.22397434531E+02  0.10570000000E+00 0. -1.
         13    1    1    2    0    0 -0.16435532446E+01 -0.10945055996E+02  0.21309114912E+02  0.24012185841E+02  0.10570000000E+00 0.  1.
<mgrwt>
<rscale>  0 0.22153922E+02</rscale>
<asrwt>0</asrwt>
<pdfrwt beam="1">  1        1 0.67069391E-02 0.22153922E+02</pdfrwt>
<pdfrwt beam="2">  1       -1 0.43300227E-03 0.22153922E+02</pdfrwt>
<totfact> 0.32844362E+06</totfact>
</mgrwt>
</event>
<event>
 4    1  0.4261729E-001  0.5342177E+02  0.7818608E-02  0.1427713E+00
          1   -1    0    0  501    0  0.00000000000E+00  0.00000000000E+00  0.17658422945E+02  0.17658423563E+02  0.46700000000E-02 0. -1.
         -1   -1    0    0    0  501 -0.00000000000E+00 -0.00000000000E+00 -0.40404020837E+02  0.40404021107E+02  0.46700000000E-02 0.  1.
        -13    1    1    2    0    0  0.10836879585E+00  0.23768021016E+02  0.18731639069E+01  0.23842199612E+02  0.10570000000E+00 0. -1.
         13    1    1    2    0    0 -0.10836879585E+00 -0.23768021016E+02 -0.24618761799E+02  0.34220245058E+02  0.10570000000E+00 0.  1.
<mgrwt>
<rscale>  0 0.53421768E+02</rscale>
<asrwt>0</asrwt>
<pdfrwt beam="1">  1        1 0.27166805E-02 0.53421768E+02</pdfrwt>
<pdfrwt beam="2">  1       -1 0.62160032E-02 0.53421768E+02</pdfrwt>
<totfact> 0.35531862E+05</totfact>
</mgrwt>
</event>
<event>
 4    1  0.4261729E-001  0.2152011E+02  0.7818608E-02  0.1716686E+00
         -1   -1    0    0    0  501 -0.00000000000E+00  0.00000000000E+00  0.66300649983E+02  0.66300650148E+02  0.46700000000E-02 0.  1.
          1   -1    0    0  501    0  0.00000000000E+00 -0.00000000000E+00 -0.17462656888E+01  0.17462719332E+01  0.46700000000E-02 0. -1.
        -13    1    1    2    0    0 -0.94736871381E+01  0.49747001361E+01  0.28714894998E+02  0.30644000337E+02  0.10570000000E+00 0. -1.
         13    1    1    2    0    0  0.94736871381E+01 -0.49747001361E+01  0.35839489297E+02  0.37402921744E+02  0.10570000000E+00 0.  1.
<mgrwt>
<rscale>  0 0.21520109E+02</rscale>
<asrwt>0</asrwt>
<pdfrwt beam="2">  1        1 0.26865684E-03 0.21520109E+02</pdfrwt>
<pdfrwt beam="1">  1       -1 0.10200097E-01 0.21520109E+02</pdfrwt>
<totfact> 0.28775524E+06</totfact>
</mgrwt>
</event>
<event>
 4    1  0.4261729E-001  0.4255541E+02  0.7818608E-02  0.1490206E+00
         -1   -1    0    0    0  501 -0.00000000000E+00  0.00000000000E+00  0.16229544008E+02  0.16229544680E+02  0.46700000000E-02 0. -1.
          1   -1    0    0  501    0  0.00000000000E+00 -0.00000000000E+00 -0.27896076769E+02  0.27896077159E+02  0.46700000000E-02 0.  1.
        -13    1    1    2    0    0  0.92325448185E+01  0.38935752990E+01  0.13629774761E+02  0.16916907074E+02  0.10570000000E+00 0. -1.
         13    1    1    2    0    0 -0.92325448185E+01 -0.38935752990E+01 -0.25296307522E+02  0.27208714765E+02  0.10570000000E+00 0.  1.
<mgrwt>
<rscale>  0 0.42555405E+02</rscale>
<asrwt>0</asrwt>
<pdfrwt beam="2">  1        1 0.42917042E-02 0.42555405E+02</pdfrwt>
<pdfrwt beam="1">  1       -1 0.24968530E-02 0.42555405E+02</pdfrwt>
<totfact> 0.66739376E+05</totfact>
</mgrwt>
</event>
<event>
 4    1  0.4261729E-001  0.2533089E+02  0.7818608E-02  0.1656294E+00
          1   -1    0    0  501    0  0.00000000000E+00  0.00000000000E+00  0.13941416327E+02  0.13941417109E+02  0.46700000000E-02 0. -1.
         -1   -1    0    0    0  501 -0.00000000000E+00 -0.00000000000E+00 -0.11506255092E+02  0.11506256040E+02  0.46700000000E-02 0.  1.
        -13    1    1    2    0    0  0.11296077571E+02  0.15702923901E+01  0.67507086241E+01  0.13253317551E+02  0.10570000000E+00 0. -1.
         13    1    1    2    0    0 -0.11296077571E+02 -0.15702923901E+01 -0.43155473897E+01  0.12194355598E+02  0.10570000000E+00 0.  1.
<mgrwt>
<rscale>  0 0.25330891E+02</rscale>
<asrwt>0</asrwt>
<pdfrwt beam="1">  1        1 0.21448334E-02 0.25330891E+02</pdfrwt>
<pdfrwt beam="2">  1       -1 0.17701932E-02 0.25330891E+02</pdfrwt>
<totfact> 0.22698199E+06</totfact>
</mgrwt>
</event>
<event>
 4    1  0.4261729E-001  0.5598887E+02  0.7818608E-02  0.1415479E+00
          1   -1    0    0  501    0  0.00000000000E+00  0.00000000000E+00  0.10470248777E+03  0.10470248787E+03  0.46700000000E-02 0.  1.
         -1   -1    0    0    0  501 -0.00000000000E+00 -0.00000000000E+00 -0.74849065131E+01  0.74849079700E+01  0.46700000000E-02 0. -1.
        -13    1    1    2    0    0  0.49460051408E+01  0.27515923506E+02  0.51504346758E+02  0.58602883212E+02  0.10570000000E+00 0.  1.
         13    1    1    2    0    0 -0.49460051408E+01 -0.27515923506E+02  0.45713234499E+02  0.53584512633E+02  0.10570000000E+00 0. -1.
<mgrwt>
<rscale>  0 0.55988871E+02</rscale>
<asrwt>0</asrwt>
<pdfrwt beam="1">  1        1 0.16108075E-01 0.55988871E+02</pdfrwt>
<pdfrwt beam="2">  1       -1 0.11515242E-02 0.55988871E+02</pdfrwt>
<totfact> 0.38112254E+05</totfact>
</mgrwt>
</event>
<event>
 4    1  0.4261729E-001  0.5286948E+02  0.7818608E-02  0.1430451E+00
         -1   -1    0    0    0  501 -0.00000000000E+00  0.00000000000E+00  0.99811129470E+01  0.99811140395E+01  0.46700000000E-02 0.  1.
          1   -1    0    0  501    0  0.00000000000E+00 -0.00000000000E+00 -0.70011786913E+02  0.70011787069E+02  0.46700000000E-02 0. -1.
        -13    1    1    2    0    0 -0.22609799934E+02  0.13065956270E+02 -0.23802313093E+02  0.35333886673E+02  0.10570000000E+00 0. -1.
         13    1    1    2    0    0  0.22609799934E+02 -0.13065956270E+02 -0.36228360873E+02  0.44659014436E+02  0.10570000000E+00 0.  1.
<mgrwt>
<rscale>  0 0.52869485E+02</rscale>
<asrwt>0</asrwt>
<pdfrwt beam="2">  1        1 0.10771044E-01 0.52869485E+02</pdfrwt>
<pdfrwt beam="1">  1       -1 0.15355560E-02 0.52869485E+02</pdfrwt>
<totfact> 0.41916278E+05</totfact>
</mgrwt>
</event>
<event>
 4    1  0.4261729E-001  0.2588633E+02  0.7818608E-02  0.1648588E+00
         -1   -1    0    0    0  501 -0.00000000000E+00  0.00000000000E+00  0.61844812745E+01  0.61844830377E+01  0.46700000000E-02 0.  1.
          1   -1    0    0  501    0  0.00000000000E+00 -0.00000000000E+00 -0.27088040230E+02  0.27088040632E+02  0.46700000000E-02 0. -1.
        -13    1    1    2    0    0 -0.20879018183E+01 -0.12411851588E+02 -0.14329339834E+02  0.19072350312E+02  0.10570000000E+00 0. -1.
         13    1    1    2    0    0  0.20879018183E+01  0.12411851588E+02 -0.65742191212E+01  0.14200173358E+02  0.10570000000E+00 0.  1.
<mgrwt>
<rscale>  0 0.25886329E+02</rscale>
<asrwt>0</asrwt>
<pdfrwt beam="2">  1        1 0.41673909E-02 0.25886329E+02</pdfrwt>
<pdfrwt beam="1">  1       -1 0.95145884E-03 0.25886329E+02</pdfrwt>
<totfact> 0.22307072E+06</totfact>
</mgrwt>
</event>
<event>
 4    1  0.4261729E-001  0.2268894E+02  0.7818608E-02  0.1696603E+00
         -1   -1    0    0    0  501 -0.00000000000E+00  0.00000000000E+00  0.50239587071E+01  0.50239608776E+01  0.46700000000E-02 0.  1.
          1   -1    0    0  501    0  0.00000000000E+00 -0.00000000000E+00 -0.25616635033E+02  0.25616635459E+02  0.46700000000E-02 0. -1.
        -13    1    1    2    0    0 -0.97862476609E+01  0.41877353636E+01 -0.15592157897E+02  0.18879468508E+02  0.10570000000E+00 0. -1.
         13    1    1    2    0    0  0.97862476609E+01 -0.41877353636E+01 -0.50005184290E+01  0.11761127829E+02  0.10570000000E+00 0.  1.
<mgrwt>
<rscale>  0 0.22688936E+02</rscale>
<asrwt>0</asrwt>
<pdfrwt beam="2">  1        1 0.39410209E-02 0.22688936E+02</pdfrwt>
<pdfrwt beam="1">  1       -1 0.77291694E-03 0.22688936E+02</pdfrwt>
<totfact> 0.30170797E+06</totfact>
</mgrwt>
</event>
<event>
 4    1  0.4261729E-001  0.3235317E+02  0.7818608E-02  0.1573445E+00
          1   -1    0    0  501    0  0.00000000000E+00  0.00000000000E+00  0.46873082511E+02  0.46873082743E+02  0.46700000000E-02 0. -1.
         -1   -1    0    0    0  501 -0.00000000000E+00 -0.00000000000E+00 -0.55827741733E+01  0.55827761265E+01  0.46700000000E-02 0.  1.
        -13    1    1    2    0    0 -0.78309710758E+01  0.78136339685E+01  0.15095154112E+01  0.11165428476E+02  0.10570000000E+00 0.  1.
         13    1    1    2    0    0  0.78309710758E+01 -0.78136339685E+01  0.39780792926E+02  0.41290430394E+02  0.10570000000E+00 0. -1.
<mgrwt>
<rscale>  0 0.32353169E+02</rscale>
<asrwt>0</asrwt>
<pdfrwt beam="1">  1        1 0.72112433E-02 0.32353169E+02</pdfrwt>
<pdfrwt beam="2">  1       -1 0.85888855E-03 0.32353169E+02</pdfrwt>
<totfact> 0.13634708E+06</totfact>
</mgrwt>
</event>
<event>
 4    1  0.4261729E-001  0.3812640E+02  0.7818608E-02  0.1522470E+00
         -1   -1    0    0    0  501 -0.00000000000E+00  0.00000000000E+00  0.94974717534E+01  0.94974729015E+01  0.46700000000E-02 0. -1.
          1   -1    0    0  501    0  0.00000000000E+00 -0.00000000000E+00 -0.38263401614E+02  0.38263401899E+02  0.46700000000E-02 0.  1.
        -13    1    1    2    0    0  0.13914406344E+02 -0.19266482830E+01  0.17604109078E+01  0.14157432556E+02  0.10570000000E+00 0. -1.
         13    1    1    2    0    0 -0.13914406344E+02  0.19266482830E+01 -0.30526340769E+02  0.33603442245E+02  0.10570000000E+00 0.  1.
<mgrwt>
<rscale>  0 0.38126401E+02</rscale>
<asrwt>0</asrwt>
<pdfrwt beam="2">  1        1 0.58866772E-02 0.38126401E+02</pdfrwt>
<pdfrwt beam="1">  1       -1 0.14611496E-02 0.38126401E+02</pdfrwt>
<totfact> 0.89970628E+05</totfact>
</mgrwt>
</event>
<event>
 4    1  0.4261729E-001  0.2875554E+02  0.7818608E-02  0.1612266E+00
         -1   -1    0    0    0  501 -0.00000000000E+00  0.00000000000E+00  0.50250336300E+02  0.50250336517E+02  0.46700000000E-02 0.  1.
          1   -1    0    0  501    0  0.00000000000E+00 -0.00000000000E+00 -0.41138083652E+01  0.41138110159E+01  0.46700000000E-02 0. -1.
        -13    1    1    2    0    0  0.32313817582E+01  0.11155738190E+02  0.39089799079E+02  0.40778865693E+02  0.10570000000E+00 0.  1.
         13    1    1    2    0    0 -0.32313817582E+01 -0.11155738190E+02  0.70467288551E+01  0.13585281840E+02  0.10570000000E+00 0. -1.
<mgrwt>
<rscale>  0 0.28755544E+02</rscale>
<asrwt>0</asrwt>
<pdfrwt beam="2">  1        1 0.63289379E-03 0.28755544E+02</pdfrwt>
<pdfrwt beam="1">  1       -1 0.77308215E-02 0.28755544E+02</pdfrwt>
<totfact> 0.15356292E+06</totfact>
</mgrwt>
</event>
<event>
 4    1  0.4261729E-001  0.2378039E+02  0.7818608E-02  0.1679164E+00
         -1   -1    0    0    0  501 -0.00000000000E+00  0.00000000000E+00  0.43454584534E+01  0.43454609628E+01  0.46700000000E-02 0. -1.
          1   -1    0    0  501    0  0.00000000000E+00 -0.00000000000E+00 -0.32534342228E+02  0.32534342563E+02  0.46700000000E-02 0.  1.
        -13    1    1    2    0    0 -0.11781439710E+02  0.14442744823E+01 -0.15165833231E+02  0.19258814099E+02  0.10570000000E+00 0.  1.
         13    1    1    2    0    0  0.11781439710E+02 -0.14442744823E+01 -0.13023050543E+02  0.17620989426E+02  0.10570000000E+00 0. -1.
<mgrwt>
<rscale>  0 0.23780386E+02</rscale>
<asrwt>0</asrwt>
<pdfrwt beam="2">  1        1 0.50052835E-02 0.23780386E+02</pdfrwt>
<pdfrwt beam="1">  1       -1 0.66853231E-03 0.23780386E+02</pdfrwt>
<totfact> 0.27439528E+06</totfact>
</mgrwt>
</event>
<event>
 4    1  0.4261729E-001  0.4591831E+02  0.7818608E-02  0.1468689E+00
         -1   -1    0    0    0  501 -0.00000000000E+00  0.00000000000E+00  0.74065153140E+02  0.74065153288E+02  0.46700000000E-02 0.  1.
          1   -1    0    0  501    0  0.00000000000E+00 -0.00000000000E+00 -0.71170149157E+01  0.71170164479E+01  0.46700000000E-02 0. -1.
        -13    1    1    2    0    0  0.58330347295E+01  0.13418102517E+02  0.21934036561E+01  0.14794997851E+02  0.10570000000E+00 0. -1.
         13    1    1    2    0    0 -0.58330347295E+01 -0.13418102517E+02  0.64754734569E+02  0.66387171885E+02  0.10570000000E+00 0.  1.
<mgrwt>
<rscale>  0 0.45918313E+02</rscale>
<asrwt>0</asrwt>
<pdfrwt beam="2">  1        1 0.10949255E-02 0.45918313E+02</pdfrwt>
<pdfrwt beam="1">  1       -1 0.11394639E-01 0.45918313E+02</pdfrwt>
<totfact> 0.48011055E+05</totfact>
</mgrwt>
</event>
<event>
 4    1  0.4261729E-001  0.2387164E+02  0.7818608E-02  0.1677759E+00
          1   -1    0    0  501    0  0.00000000000E+00  0.00000000000E+00  0.63988974891E+02  0.63988975061E+02  0.46700000000E-02 0.  1.
         -1   -1    0    0    0  501 -0.00000000000E+00 -0.00000000000E+00 -0.22263782904E+01  0.22263831882E+01  0.46700000000E-02 0. -1.
        -13    1    1    2    0    0  0.21870836776E+01  0.11733144549E+02  0.30738674586E+02  0.32974646379E+02  0.10570000000E+00 0. -1.
         13    1    1    2    0    0 -0.21870836776E+01 -0.11733144549E+02  0.31023922014E+02  0.33240711871E+02  0.10570000000E+00 0.  1.
<mgrwt>
<rscale>  0 0.23871643E+02</rscale>
<asrwt>0</asrwt>
<pdfrwt beam="1">  1        1 0.98444577E-02 0.23871643E+02</pdfrwt>
<pdfrwt beam="2">  1       -1 0.34252014E-03 0.23871643E+02</pdfrwt>
<totfact> 0.28536535E+06</totfact>
</mgrwt>
</event>
<event>
 4    1  0.4261729E-001  0.2530637E+02  0.7818608E-02  0.1656640E+00
         -1   -1    0    0    0  501 -0.00000000000E+00  0.00000000000E+00  0.15920946619E+02  0.15920947304E+02  0.46700000000E-02 0.  1.
          1   -1    0    0  501    0  0.00000000000E+00 -0.00000000000E+00 -0.10056129944E+02  0.10056131028E+02  0.46700000000E-02 0. -1.
        -13    1    1    2    0    0 -0.81823429041E+01 -0.80213136291E+01 -0.25763631882E+01  0.11744829820E+02  0.10570000000E+00 0. -1.
         13    1    1    2    0    0  0.81823429041E+01  0.80213136291E+01  0.84411798632E+01  0.14232248512E+02  0.10570000000E+00 0.  1.
<mgrwt>
<rscale>  0 0.25306373E+02</rscale>
<asrwt>0</asrwt>
<pdfrwt beam="2">  1        1 0.15470971E-02 0.25306373E+02</pdfrwt>
<pdfrwt beam="1">  1       -1 0.24493765E-02 0.25306373E+02</pdfrwt>
<totfact> 0.22380238E+06</totfact>
</mgrwt>
</event>
<event>
 4    1  0.4261729E-001  0.3796583E+02  0.7818608E-02  0.1523738E+00
         -1   -1    0    0    0  501 -0.00000000000E+00  0.00000000000E+00  0.14419274286E+03  0.14419274294E+03  0.46700000000E-02 0. -1.
          1   -1    0    0  501    0  0.00000000000E+00 -0.00000000000E+00 -0.24990908286E+01  0.24990951920E+01  0.46700000000E-02 0.  1.
        -13    1    1    2    0    0 -0.16012829572E+02 -0.91224936516E+01  0.53263708329E+02  0.56361905564E+02  0.10570000000E+00 0.  1.
         13    1    1    2    0    0  0.16012829572E+02  0.91224936516E+01  0.88429943706E+02  0.90329932568E+02  0.10570000000E+00 0. -1.
<mgrwt>
<rscale>  0 0.37965831E+02</rscale>
<asrwt>0</asrwt>
<pdfrwt beam="2">  1        1 0.38447574E-03 0.37965831E+02</pdfrwt>
<pdfrwt beam="1">  1       -1 0.22183506E-01 0.37965831E+02</pdfrwt>
<totfact> 0.68006036E+05</totfact>
</mgrwt>
</event>
<event>
 4    1  0.4261729E-001  0.2715974E+02  0.7818608E-02  0.1631788E+00
         -1   -1    0    0    0  501 -0.00000000000E+00  0.00000000000E+00  0.92853458344E+01  0.92853470088E+01  0.46700000000E-02 0.  1.
          1   -1    0    0  501    0  0.00000000000E+00 -0.00000000000E+00 -0.19860628712E+02  0.19860629261E+02  0.46700000000E-02 0. -1.
        -13    1    1    2    0    0  0.10766394372E+02 -0.41008310560E+01 -0.13001480520E+02  0.17371866086E+02  0.10570000000E+00 0. -1.
         13    1    1    2    0    0 -0.10766394372E+02  0.41008310560E+01  0.24261976421E+01  0.11774110184E+02  0.10570000000E+00 0.  1.
<mgrwt>
<rscale>  0 0.27159737E+02</rscale>
<asrwt>0</asrwt>
<pdfrwt beam="2">  1        1 0.30554815E-02 0.27159737E+02</pdfrwt>
<pdfrwt beam="1">  1       -1 0.14285149E-02 0.27159737E+02</pdfrwt>
<totfact> 0.19597944E+06</totfact>
</mgrwt>
</event>
<event>
 4    1  0.4261729E-001  0.5011860E+02  0.7818608E-02  0.1444703E+00
          1   -1    0    0  501    0  0.00000000000E+00  0.00000000000E+00  0.30960604363E+02  0.30960604716E+02  0.46700000000E-02 0. -1.
         -1   -1    0    0    0  501 -0.00000000000E+00 -0.00000000000E+00 -0.20282823552E+02  0.20282824090E+02  0.46700000000E-02 0.  1.
        -13    1    1    2    0    0 -0.28201069382E+01 -0.12858631730E+02  0.27140200336E+02  0.30164533146E+02  0.10570000000E+00 0. -1.
         13    1    1    2    0    0  0.28201069382E+01  0.12858631730E+02 -0.16462419525E+02  0.21078895660E+02  0.10570000000E+00 0.  1.
<mgrwt>
<rscale>  0 0.50118599E+02</rscale>
<asrwt>0</asrwt>
<pdfrwt beam="1">  1        1 0.47631700E-02 0.50118599E+02</pdfrwt>
<pdfrwt beam="2">  1       -1 0.31204345E-02 0.50118599E+02</pdfrwt>
<totfact> 0.44312607E+05</totfact>
</mgrwt>
</event>
<event>
 4    1  0.4261729E-001  0.3261758E+02  0.7818608E-02  0.1570835E+00
          1   -1    0    0  501    0  0.00000000000E+00  0.00000000000E+00  0.14109439902E+02  0.14109440675E+02  0.46700000000E-02 0.  1.
         -1   -1    0    0    0  501 -0.00000000000E+00 -0.00000000000E+00 -0.18850967374E+02  0.18850967953E+02  0.46700000000E-02 0. -1.
        -13    1    1    2    0    0  0.67383000127E+01  0.14232685281E+02 -0.66569755688E+01  0.17096798343E+02  0.10570000000E+00 0. -1.
         13    1    1    2    0    0 -0.67383000127E+01 -0.14232685281E+02  0.19154480970E+01  0.15863610285E+02  0.10570000000E+00 0.  1.
<mgrwt>
<rscale>  0 0.32617579E+02</rscale>
<asrwt>0</asrwt>
<pdfrwt beam="1">  1        1 0.21706832E-02 0.32617579E+02</pdfrwt>
<pdfrwt beam="2">  1       -1 0.29001489E-02 0.32617579E+02</pdfrwt>
<totfact> 0.12356506E+06</totfact>
</mgrwt>
</event>
<event>
 4    1  0.4261729E-001  0.2238875E+02  0.7818608E-02  0.1701614E+00
         -1   -1    0    0    0  501 -0.00000000000E+00  0.00000000000E+00  0.10973802515E+02  0.10973803509E+02  0.46700000000E-02 0. -1.
          1   -1    0    0  501    0  0.00000000000E+00 -0.00000000000E+00 -0.11419379568E+02  0.11419380523E+02  0.46700000000E-02 0.  1.
        -13    1    1    2    0    0  0.33020266657E+01 -0.10688804927E+02 -0.60878551834E+00  0.11204272540E+02  0.10570000000E+00 0.  1.
         13    1    1    2    0    0 -0.33020266657E+01  0.10688804927E+02  0.16320846539E+00  0.11188911491E+02  0.10570000000E+00 0. -1.
<mgrwt>
<rscale>  0 0.22388751E+02</rscale>
<asrwt>0</asrwt>
<pdfrwt beam="2">  1        1 0.17568278E-02 0.22388751E+02</pdfrwt>
<pdfrwt beam="1">  1       -1 0.16882775E-02 0.22388751E+02</pdfrwt>
<totfact> 0.29994318E+06</totfact>
</mgrwt>
</event>
<event>
 4    1  0.4261729E-001  0.4629925E+02  0.7818608E-02  0.1466390E+00
          1   -1    0    0  501    0  0.00000000000E+00  0.00000000000E+00  0.48740116085E+02  0.48740116309E+02  0.46700000000E-02 0. -1.
         -1   -1    0    0    0  501 -0.00000000000E+00 -0.00000000000E+00 -0.10995152842E+02  0.10995153834E+02  0.46700000000E-02 0.  1.
        -13    1    1    2    0    0  0.99884807789E+00  0.12966206641E+02  0.43581528117E+02  0.45480556039E+02  0.10570000000E+00 0. -1.
         13    1    1    2    0    0 -0.99884807789E+00 -0.12966206641E+02 -0.58365648741E+01  0.14254714103E+02  0.10570000000E+00 0.  1.
<mgrwt>
<rscale>  0 0.46299247E+02</rscale>
<asrwt>0</asrwt>
<pdfrwt beam="1">  1        1 0.74984795E-02 0.46299247E+02</pdfrwt>
<pdfrwt beam="2">  1       -1 0.16915621E-02 0.46299247E+02</pdfrwt>
<totfact> 0.56543664E+05</totfact>
</mgrwt>
</event>
<event>
 4    1  0.4261729E-001  0.2867746E+02  0.7818608E-02  0.1613185E+00
          1   -1    0    0  501    0  0.00000000000E+00  0.00000000000E+00  0.95181304855E+01  0.95181316312E+01  0.46700000000E-02 0.  1.
         -1   -1    0    0    0  501 -0.00000000000E+00 -0.00000000000E+00 -0.21600797484E+02  0.21600797989E+02  0.46700000000E-02 0. -1.
        -13    1    1    2    0    0 -0.53029577893E+01  0.13255384589E+02 -0.74815334929E+01  0.16118656824E+02  0.10570000000E+00 0. -1.
         13    1    1    2    0    0  0.53029577893E+01 -0.13255384589E+02 -0.46011335053E+01  0.15000272796E+02  0.10570000000E+00 0.  1.
<mgrwt>
<rscale>  0 0.28677464E+02</rscale>
<asrwt>0</asrwt>
<pdfrwt beam="1">  1        1 0.14643279E-02 0.28677464E+02</pdfrwt>
<pdfrwt beam="2">  1       -1 0.33231997E-02 0.28677464E+02</pdfrwt>
<totfact> 0.16521383E+06</totfact>
</mgrwt>
</event>
<event>
 4    1  0.4261729E-001  0.3020572E+02  0.7818608E-02  0.1595826E+00
          1   -1    0    0  501    0  0.00000000000E+00  0.00000000000E+00  0.33096107304E+02  0.33096107633E+02  0.46700000000E-02 0. -1.
         -1   -1    0    0    0  501 -0.00000000000E+00 -0.00000000000E+00 -0.68919404434E+01  0.68919420256E+01  0.46700000000E-02 0.  1.
        -13    1    1    2    0    0 -0.20968211015E+01 -0.14245624606E+02  0.70715148401E+01  0.16042193546E+02  0.10570000000E+00 0.  1.
         13    1    1    2    0    0  0.20968211015E+01  0.14245624606E+02  0.19132652020E+02  0.23945856113E+02  0.10570000000E+00 0. -1.
<mgrwt>
<rscale>  0 0.30205724E+02</rscale>
<asrwt>0</asrwt>
<pdfrwt beam="1">  1        1 0.50917091E-02 0.30205724E+02</pdfrwt>
<pdfrwt beam="2">  1       -1 0.10602986E-02 0.30205724E+02</pdfrwt>
<totfact> 0.15678289E+06</totfact>
</mgrwt>
</event>
<event>
 4    1  0.4261729E-001  0.2268945E+02  0.7818608E-02  0.1696594E+00
          1   -1    0    0  501    0  0.00000000000E+00  0.00000000000E+00  0.55313896846E+02  0.55313897044E+02  0.46700000000E-02 0.  1.
         -1   -1    0    0    0  501 -0.00000000000E+00 -0.00000000000E+00 -0.23267696758E+01  0.23267743623E+01  0.46700000000E-02 0. -1.
        -13    1    1    2    0    0 -0.32857180641E+01  0.10570144280E+02  0.20184438240E+02  0.23020569342E+02  0.10570000000E+00 0. -1.
         13    1    1    2    0    0  0.32857180641E+01 -0.10570144280E+02  0.32802688931E+02  0.34620102064E+02  0.10570000000E+00 0.  1.
<mgrwt>
<rscale>  0 0.22689455E+02</rscale>
<asrwt>0</asrwt>
<pdfrwt beam="1">  1        1 0.85098308E-02 0.22689455E+02</pdfrwt>
<pdfrwt beam="2">  1       -1 0.35796494E-03 0.22689455E+02</pdfrwt>
<totfact> 0.31652176E+06</totfact>
</mgrwt>
</event>
<event>
 4    1  0.4261729E-001  0.3964767E+02  0.7818608E-02  0.1510820E+00
          1   -1    0    0  501    0  0.00000000000E+00  0.00000000000E+00  0.17311942349E+03  0.17311942355E+03  0.46700000000E-02 0. -1.
         -1   -1    0    0    0  501 -0.00000000000E+00 -0.00000000000E+00 -0.22700170347E+01  0.22700218384E+01  0.46700000000E-02 0.  1.
        -13    1    1    2    0    0  0.14311047998E+02  0.13710071447E+02  0.87408676470E+02  0.89627339850E+02  0.10570000000E+00 0. -1.
         13    1    1    2    0    0 -0.14311047998E+02 -0.13710071447E+02  0.83440729982E+02  0.85762105538E+02  0.10570000000E+00 0.  1.
<mgrwt>
<rscale>  0 0.39647672E+02</rscale>
<asrwt>0</asrwt>
<pdfrwt beam="1">  1        1 0.26633753E-01 0.39647672E+02</pdfrwt>
<pdfrwt beam="2">  1       -1 0.34923383E-03 0.39647672E+02</pdfrwt>
<totfact> 0.97315142E+05</totfact>
</mgrwt>
</event>
<event>
 4    1  0.4261729E-001  0.4267109E+02  0.7818608E-02  0.1489427E+00
         -1   -1    0    0    0  501 -0.00000000000E+00  0.00000000000E+00  0.53918957467E+02  0.53918957670E+02  0.46700000000E-02 0. -1.
          1   -1    0    0  501    0  0.00000000000E+00 -0.00000000000E+00 -0.84424005973E+01  0.84424018889E+01  0.46700000000E-02 0.  1.
        -13    1    1    2    0    0  0.10148834194E+02  0.13564374767E+02  0.41692195737E+02  0.45002682766E+02  0.10570000000E+00 0.  1.
         13    1    1    2    0    0 -0.10148834194E+02 -0.13564374767E+02  0.37843611333E+01  0.17358676792E+02  0.10570000000E+00 0. -1.
<mgrwt>
<rscale>  0 0.42671090E+02</rscale>
<asrwt>0</asrwt>
<pdfrwt beam="2">  1        1 0.12988309E-02 0.42671090E+02</pdfrwt>
<pdfrwt beam="1">  1       -1 0.82952246E-02 0.42671090E+02</pdfrwt>
<totfact> 0.59692982E+05</totfact>
</mgrwt>
</event>
<event>
 4    1  0.4261729E-001  0.5747389E+02  0.7818608E-02  0.1408749E+00
         -1   -1    0    0    0  501 -0.00000000000E+00  0.00000000000E+00  0.40987309929E+01  0.40987336533E+01  0.46700000000E-02 0.  1.
          1   -1    0    0  501    0  0.00000000000E+00 -0.00000000000E+00 -0.20147986268E+03  0.20147986274E+03  0.46700000000E-02 0. -1.
        -13    1    1    2    0    0 -0.26685811828E+02 -0.68973419037E+01 -0.12777037511E+03  0.13070954750E+03  0.10570000000E+00 0. -1.
         13    1    1    2    0    0  0.26685811828E+02  0.68973419037E+01 -0.69610756576E+02  0.74869048891E+02  0.10570000000E+00 0.  1.
<mgrwt>
<rscale>  0 0.57473891E+02</rscale>
<asrwt>0</asrwt>
<pdfrwt beam="2">  1        1 0.30996894E-01 0.57473891E+02</pdfrwt>
<pdfrwt beam="1">  1       -1 0.63057437E-03 0.57473891E+02</pdfrwt>
<totfact> 0.39591390E+05</totfact>
</mgrwt>
</event>
<event>
 4    1  0.4261729E-001  0.2317265E+02  0.7818608E-02  0.1688727E+00
         -1   -1    0    0    0  501 -0.00000000000E+00  0.00000000000E+00  0.15749914346E+02  0.15749915038E+02  0.46700000000E-02 0. -1.
          1   -1    0    0  501    0  0.00000000000E+00 -0.00000000000E+00 -0.85234054832E+01  0.85234067626E+01  0.46700000000E-02 0.  1.
        -13    1    1    2    0    0  0.60845387550E+01  0.82096863869E+01  0.93325586912E+01  0.13839378116E+02  0.10570000000E+00 0. -1.
         13    1    1    2    0    0 -0.60845387550E+01 -0.82096863869E+01 -0.21060498288E+01  0.10433943684E+02  0.10570000000E+00 0.  1.
<mgrwt>
<rscale>  0 0.23172650E+02</rscale>
<asrwt>0</asrwt>
<pdfrwt beam="2">  1        1 0.13112933E-02 0.23172650E+02</pdfrwt>
<pdfrwt beam="1">  1       -1 0.24230639E-02 0.23172650E+02</pdfrwt>
<totfact> 0.27311531E+06</totfact>
</mgrwt>
</event>
<event>
 4    1  0.4261729E-001  0.2566737E+02  0.7818608E-02  0.1651597E+00
          1   -1    0    0  501    0  0.00000000000E+00  0.00000000000E+00  0.13479999608E+02  0.13480000417E+02  0.46700000000E-02 0.  1.
         -1   -1    0    0    0  501 -0.00000000000E+00 -0.00000000000E+00 -0.12218356691E+02  0.12218357584E+02  0.46700000000E-02 0. -1.
        -13    1    1    2    0    0  0.12337126711E+02  0.35295960319E+01  0.80292764818E+00  0.12857628434E+02  0.10570000000E+00 0. -1.
         13    1    1    2    0    0 -0.12337126711E+02 -0.35295960319E+01  0.45871526879E+00  0.12840729567E+02  0.10570000000E+00 0.  1.
<mgrwt>
<rscale>  0 0.25667370E+02</rscale>
<asrwt>0</asrwt>
<pdfrwt beam="1">  1        1 0.20738462E-02 0.25667370E+02</pdfrwt>
<pdfrwt beam="2">  1       -1 0.18797473E-02 0.25667370E+02</pdfrwt>
<totfact> 0.21966056E+06</totfact>
</mgrwt>
</event>
<event>
 4    1  0.4261729E-001  0.3994208E+02  0.7818608E-02  0.1508638E+00
          1   -1    0    0  501    0  0.00000000000E+00  0.00000000000E+00  0.21344653374E+02  0.21344653885E+02  0.46700000000E-02 0.  1.
         -1   -1    0    0    0  501 -0.00000000000E+00 -0.00000000000E+00 -0.18685825121E+02  0.18685825705E+02  0.46700000000E-02 0. -1.
        -13    1    1    2    0    0  0.42653506734E+00 -0.15609955499E+02  0.13806008405E+02  0.20843936371E+02  0.10570000000E+00 0.  1.
         13    1    1    2    0    0 -0.42653506734E+00  0.15609955499E+02 -0.11147180153E+02  0.19186543219E+02  0.10570000000E+00 0. -1.
<mgrwt>
<rscale>  0 0.39942082E+02</rscale>
<asrwt>0</asrwt>
<pdfrwt beam="1">  1        1 0.32837929E-02 0.39942082E+02</pdfrwt>
<pdfrwt beam="2">  1       -1 0.28747424E-02 0.39942082E+02</pdfrwt>
<totfact> 0.76736473E+05</totfact>
</mgrwt>
</event>
<event>
 4    1  0.4261729E-001  0.4910025E+02  0.7818608E-02  0.1450256E+00
          1   -1    0    0  501    0  0.00000000000E+00  0.00000000000E+00  0.26315918273E+02  0.26315918687E+02  0.46700000000E-02 0.  1.
         -1   -1    0    0    0  501 -0.00000000000E+00 -0.00000000000E+00 -0.22902813255E+02  0.22902813731E+02  0.46700000000E-02 0. -1.
        -13    1    1    2    0    0 -0.15793046027E+02  0.39507689114E+01  0.20126654752E+02  0.25886720182E+02  0.10570000000E+00 0.  1.
         13    1    1    2    0    0  0.15793046027E+02 -0.39507689114E+01 -0.16713549734E+02  0.23332012236E+02  0.10570000000E+00 0. -1.
<mgrwt>
<rscale>  0 0.49100248E+02</rscale>
<asrwt>0</asrwt>
<pdfrwt beam="1">  1        1 0.40486028E-02 0.49100248E+02</pdfrwt>
<pdfrwt beam="2">  1       -1 0.35235098E-02 0.49100248E+02</pdfrwt>
<totfact> 0.46057170E+05</totfact>
</mgrwt>
</event>
<event>
 4    1  0.4261729E-001  0.2416415E+02  0.7818608E-02  0.1673306E+00
         -1   -1    0    0    0  501 -0.00000000000E+00  0.00000000000E+00  0.13105546128E+03  0.13105546136E+03  0.46700000000E-02 0. -1.
          1   -1    0    0  501    0  0.00000000000E+00 -0.00000000000E+00 -0.11138480119E+01  0.11138578018E+01  0.46700000000E-02 0.  1.
        -13    1    1    2    0    0 -0.32322163929E+01  0.11568163324E+02  0.72093367353E+02  0.73087169970E+02  0.10570000000E+00 0. -1.
         13    1    1    2    0    0  0.32322163929E+01 -0.11568163324E+02  0.57848245917E+02  0.59082149196E+02  0.10570000000E+00 0.  1.
<mgrwt>
<rscale>  0 0.24164148E+02</rscale>
<asrwt>0</asrwt>
<pdfrwt beam="2">  1        1 0.17136203E-03 0.24164148E+02</pdfrwt>
<pdfrwt beam="1">  1       -1 0.20162376E-01 0.24164148E+02</pdfrwt>
<totfact> 0.19902584E+06</totfact>
</mgrwt>
</event>
<event>
 4    1  0.4261729E-001  0.3318360E+02  0.7818608E-02  0.1565349E+00
          1   -1    0    0  501    0  0.00000000000E+00  0.00000000000E+00  0.20809053765E+02  0.20809054289E+02  0.46700000000E-02 0.  1.
         -1   -1    0    0    0  501 -0.00000000000E+00 -0.00000000000E+00 -0.13229235563E+02  0.13229236387E+02  0.46700000000E-02 0. -1.
        -13    1    1    2    0    0 -0.13872861760E+02  0.77689237337E+01  0.86516319735E+01  0.18101778302E+02  0.10570000000E+00 0.  1.
         13    1    1    2    0    0  0.13872861760E+02 -0.77689237337E+01 -0.10718137711E+01  0.15936512374E+02  0.10570000000E+00 0. -1.
<mgrwt>
<rscale>  0 0.33183604E+02</rscale>
<asrwt>0</asrwt>
<pdfrwt beam="1">  1        1 0.32013930E-02 0.33183604E+02</pdfrwt>
<pdfrwt beam="2">  1       -1 0.20352671E-02 0.33183604E+02</pdfrwt>
<totfact> 0.12135688E+06</totfact>
</mgrwt>
</event>
<event>
 4    1  0.4261729E-001  0.2679752E+02  0.7818608E-02  0.1636450E+00
          1   -1    0    0  501    0  0.00000000000E+00  0.00000000000E+00  0.70756904959E+02  0.70756905113E+02  0.46700000000E-02 0.  1.
         -1   -1    0    0    0  501 -0.00000000000E+00 -0.00000000000E+00 -0.25372305043E+01  0.25372348020E+01  0.46700000000E-02 0. -1.
        -13    1    1    2    0    0 -0.13356874721E+02  0.10454113541E+01  0.33757643868E+02  0.36319260445E+02  0.10570000000E+00 0.  1.
         13    1    1    2    0    0  0.13356874721E+02 -0.10454113541E+01  0.34462030587E+02  0.36974879471E+02  0.10570000000E+00 0. -1.
<mgrwt>
<rscale>  0 0.26797518E+02</rscale>
<asrwt>0</asrwt>
<pdfrwt beam="1">  1        1 0.10885677E-01 0.26797518E+02</pdfrwt>
<pdfrwt beam="2">  1       -1 0.39034352E-03 0.26797518E+02</pdfrwt>
<totfact> 0.22059058E+06</totfact>
</mgrwt>
</event>
<event>
 4    1  0.4261729E-001  0.2800515E+02  0.7818608E-02  0.1621247E+00
          1   -1    0    0  501    0  0.00000000000E+00  0.00000000000E+00  0.68275924880E+02  0.68275925039E+02  0.46700000000E-02 0.  1.
         -1   -1    0    0    0  501 -0.00000000000E+00 -0.00000000000E+00 -0.28717587593E+01  0.28717625564E+01  0.46700000000E-02 0. -1.
        -13    1    1    2    0    0  0.90425376417E+01 -0.77237586663E+01  0.51480819275E+02  0.52836633699E+02  0.10570000000E+00 0.  1.
         13    1    1    2    0    0 -0.90425376417E+01  0.77237586663E+01  0.13923346845E+02  0.18311053896E+02  0.10570000000E+00 0. -1.
<mgrwt>
<rscale>  0 0.28005151E+02</rscale>
<asrwt>0</asrwt>
<pdfrwt beam="1">  1        1 0.10503988E-01 0.28005151E+02</pdfrwt>
<pdfrwt beam="2">  1       -1 0.44180939E-03 0.28005151E+02</pdfrwt>
<totfact> 0.19835618E+06</totfact>
</mgrwt>
</event>
<event>
 4    1  0.4261729E-001  0.2515199E+02  0.7818608E-02  0.1658828E+00
         -1   -1    0    0    0  501 -0.00000000000E+00  0.00000000000E+00  0.47946330848E+02  0.47946331075E+02  0.46700000000E-02 0. -1.
          1   -1    0    0  501    0  0.00000000000E+00 -0.00000000000E+00 -0.32985956293E+01  0.32985989351E+01  0.46700000000E-02 0.  1.
        -13    1    1    2    0    0  0.48158359428E+01  0.11307247713E+02  0.27752084871E+02  0.30351861786E+02  0.10570000000E+00 0. -1.
         13    1    1    2    0    0 -0.48158359428E+01 -0.11307247713E+02  0.16895650347E+02  0.20893068224E+02  0.10570000000E+00 0.  1.
<mgrwt>
<rscale>  0 0.25151990E+02</rscale>
<asrwt>0</asrwt>
<pdfrwt beam="2">  1        1 0.50747654E-03 0.25151990E+02</pdfrwt>
<pdfrwt beam="1">  1       -1 0.73763586E-02 0.25151990E+02</pdfrwt>
<totfact> 0.20991136E+06</totfact>
</mgrwt>
</event>
<event>
 4    1  0.4261729E-001  0.3607981E+02  0.7818608E-02  0.1539215E+00
          1   -1    0    0  501    0  0.00000000000E+00  0.00000000000E+00  0.97774326895E+02  0.97774327007E+02  0.46700000000E-02 0.  1.
         -1   -1    0    0    0  501 -0.00000000000E+00 -0.00000000000E+00 -0.33284604237E+01  0.33284636998E+01  0.46700000000E-02 0. -1.
        -13    1    1    2    0    0 -0.17449469843E+02 -0.43052891971E+01  0.42875041064E+02  0.46489782013E+02  0.10570000000E+00 0. -1.
         13    1    1    2    0    0  0.17449469843E+02  0.43052891971E+01  0.51570825408E+02  0.54613008694E+02  0.10570000000E+00 0.  1.
<mgrwt>
<rscale>  0 0.36079809E+02</rscale>
<asrwt>0</asrwt>
<pdfrwt beam="1">  1        1 0.15042201E-01 0.36079809E+02</pdfrwt>
<pdfrwt beam="2">  1       -1 0.51207120E-03 0.36079809E+02</pdfrwt>
<totfact> 0.11280954E+06</totfact>
</mgrwt>
</event>
<event>
 4    1  0.4261729E-001  0.2234690E+02  0.7818608E-02  0.1702321E+00
         -1   -1    0    0    0  501 -0.00000000000E+00  0.00000000000E+00  0.73811995756E+02  0.73811995904E+02  0.46700000000E-02 0.  1.
          1   -1    0    0  501    0  0.00000000000E+00 -0.00000000000E+00 -0.16914010941E+01  0.16914075410E+01  0.46700000000E-02 0. -1.
        -13    1    1    2    0    0  0.11049563033E+02 -0.87498261944E+00  0.31310457667E+02  0.33214671000E+02  0.10570000000E+00 0. -1.
         13    1    1    2    0    0 -0.11049563033E+02  0.87498261944E+00  0.40810136995E+02  0.42288732445E+02  0.10570000000E+00 0.  1.
<mgrwt>
<rscale>  0 0.22346896E+02</rscale>
<asrwt>0</asrwt>
<pdfrwt beam="2">  1        1 0.26021607E-03 0.22346896E+02</pdfrwt>
<pdfrwt beam="1">  1       -1 0.11355692E-01 0.22346896E+02</pdfrwt>
<totfact> 0.26092358E+06</totfact>
</mgrwt>
</event>
<event>
 4    1  0.4261729E-001  0.3415810E+02  0.7818608E-02  0.1556206E+00
         -1   -1    0    0    0  501 -0.00000000000E+00  0.00000000000E+00  0.11836952684E+02  0.11836953605E+02  0.46700000000E-02 0.  1.
          1   -1    0    0  501    0  0.00000000000E+00 -0.00000000000E+00 -0.24642658807E+02  0.24642659250E+02  0.46700000000E-02 0. -1.
        -13    1    1    2    0    0  0.14970858401E+02 -0.50764849153E+01 -0.13306355292E+02  0.20663193461E+02  0.10570000000E+00 0. -1.
         13    1    1    2    0    0 -0.14970858401E+02  0.50764849153E+01  0.50064916912E+00  0.15816419394E+02  0.10570000000E+00 0.  1.
<mgrwt>
<rscale>  0 0.34158104E+02</rscale>
<asrwt>0</asrwt>
<pdfrwt beam="2">  1        1 0.37911784E-02 0.34158104E+02</pdfrwt>
<pdfrwt beam="1">  1       -1 0.18210698E-02 0.34158104E+02</pdfrwt>
<totfact> 0.11427919E+06</totfact>
</mgrwt>
</event>
<event>
 4    1  0.4261729E-001  0.2319413E+02  0.7818608E-02  0.1688382E+00
          1   -1    0    0  501    0  0.00000000000E+00  0.00000000000E+00  0.30760415737E+01  0.30760451187E+01  0.46700000000E-02 0. -1.
         -1   -1    0    0    0  501 -0.00000000000E+00 -0.00000000000E+00 -0.43722384783E+02  0.43722385033E+02  0.46700000000E-02 0.  1.
        -13    1    1    2    0    0 -0.44763002758E+01  0.10278505756E+02 -0.14339167199E+02  0.18201863454E+02  0.10570000000E+00 0.  1.
         13    1    1    2    0    0  0.44763002758E+01 -0.10278505756E+02 -0.26307176010E+02  0.28596566697E+02  0.10570000000E+00 0. -1.
<mgrwt>
<rscale>  0 0.23194134E+02</rscale>
<asrwt>0</asrwt>
<pdfrwt beam="1">  1        1 0.47323749E-03 0.23194134E+02</pdfrwt>
<pdfrwt beam="2">  1       -1 0.67265206E-02 0.23194134E+02</pdfrwt>
<totfact> 0.25442126E+06</totfact>
</mgrwt>
</event>
<event>
 4    1  0.4261729E-001  0.3251210E+02  0.7818608E-02  0.1571873E+00
          1   -1    0    0  501    0  0.00000000000E+00  0.00000000000E+00  0.46271091767E+02  0.46271092003E+02  0.46700000000E-02 0.  1.
         -1   -1    0    0    0  501 -0.00000000000E+00 -0.00000000000E+00 -0.57111064860E+01  0.57111083954E+01  0.46700000000E-02 0. -1.
        -13    1    1    2    0    0 -0.10719038898E+02  0.69271853667E+01  0.41827244906E+01  0.13430936254E+02  0.10570000000E+00 0. -1.
         13    1    1    2    0    0  0.10719038898E+02 -0.69271853667E+01  0.36377260790E+02  0.38551264144E+02  0.10570000000E+00 0.  1.
<mgrwt>
<rscale>  0 0.32512102E+02</rscale>
<asrwt>0</asrwt>
<pdfrwt beam="1">  1        1 0.71186292E-02 0.32512102E+02</pdfrwt>
<pdfrwt beam="2">  1       -1 0.87863199E-03 0.32512102E+02</pdfrwt>
<totfact> 0.13461287E+06</totfact>
</mgrwt>
</event>
<event>
 4    1  0.4261729E-001  0.3277687E+02  0.7818608E-02  0.1569278E+00
         -1   -1    0    0    0  501 -0.00000000000E+00  0.00000000000E+00  0.22622118474E+01  0.22622166676E+01  0.46700000000E-02 0.  1.
          1   -1    0    0  501    0  0.00000000000E+00 -0.00000000000E+00 -0.11872473700E+03  0.11872473709E+03  0.46700000000E-02 0. -1.
        -13    1    1    2    0    0  0.13798359911E+02 -0.76741975558E+01 -0.74439748529E+02  0.76095830227E+02  0.10570000000E+00 0. -1.
         13    1    1    2    0    0 -0.13798359911E+02  0.76741975558E+01 -0.42022776621E+02  0.44891123530E+02  0.10570000000E+00 0.  1.
<mgrwt>
<rscale>  0 0.32776870E+02</rscale>
<asrwt>0</asrwt>
<pdfrwt beam="2">  1        1 0.18265340E-01 0.32776870E+02</pdfrwt>
<pdfrwt beam="1">  1       -1 0.34803306E-03 0.32776870E+02</pdfrwt>
<totfact> 0.14562387E+06</totfact>
</mgrwt>
</event>
<event>
 4    1  0.4261729E-001  0.2546064E+02  0.7818608E-02  0.1654472E+00
          1   -1    0    0  501    0  0.00000000000E+00  0.00000000000E+00  0.22151378103E+02  0.22151378595E+02  0.46700000000E-02 0. -1.
         -1   -1    0    0    0  501 -0.00000000000E+00 -0.00000000000E+00 -0.73160687164E+01  0.73160702069E+01  0.46700000000E-02 0.  1.
        -13    1    1    2    0    0 -0.68894518130E+00 -0.10043381271E+02  0.16435193189E+02  0.19273580375E+02  0.10570000000E+00 0. -1.
         13    1    1    2    0    0  0.68894518130E+00  0.10043381271E+02 -0.15998838033E+01  0.10193868426E+02  0.10570000000E+00 0.  1.
<mgrwt>
<rscale>  0 0.25460639E+02</rscale>
<asrwt>0</asrwt>
<pdfrwt beam="1">  1        1 0.34079045E-02 0.25460639E+02</pdfrwt>
<pdfrwt beam="2">  1       -1 0.11255492E-02 0.25460639E+02</pdfrwt>
<totfact> 0.22943477E+06</totfact>
</mgrwt>
</event>
<event>
 4    1  0.4261729E-001  0.3342639E+02  0.7818608E-02  0.1563036E+00
          1   -1    0    0  501    0  0.00000000000E+00  0.00000000000E+00  0.81299068937E+02  0.81299069071E+02  0.46700000000E-02 0.  1.
         -1   -1    0    0    0  501 -0.00000000000E+00 -0.00000000000E+00 -0.34358429184E+01  0.34358460921E+01  0.46700000000E-02 0. -1.
        -13    1    1    2    0    0  0.87073651868E+00  0.16649876300E+02  0.35993632809E+02  0.39667736741E+02  0.10570000000E+00 0.  1.
         13    1    1    2    0    0 -0.87073651868E+00 -0.16649876300E+02  0.41869593210E+02  0.45067178423E+02  0.10570000000E+00 0. -1.
<mgrwt>
<rscale>  0 0.33426395E+02</rscale>
<asrwt>0</asrwt>
<pdfrwt beam="1">  1        1 0.12507549E-01 0.33426395E+02</pdfrwt>
<pdfrwt beam="2">  1       -1 0.52859149E-03 0.33426395E+02</pdfrwt>
<totfact> 0.13272395E+06</totfact>
</mgrwt>
</event>
<event>
 4    1  0.4261729E-001  0.5680105E+02  0.7818608E-02  0.1411769E+00
          1   -1    0    0  501    0  0.00000000000E+00  0.00000000000E+00  0.55966837543E+01  0.55966857026E+01  0.46700000000E-02 0.  1.
         -1   -1    0    0    0  501 -0.00000000000E+00 -0.00000000000E+00 -0.14411923340E+03  0.14411923348E+03  0.46700000000E-02 0. -1.
        -13    1    1    2    0    0  0.21321437313E+02 -0.97343616597E+01 -0.26988413256E+02  0.35745588659E+02  0.10570000000E+00 0.  1.
         13    1    1    2    0    0 -0.21321437313E+02  0.97343616597E+01 -0.11153413639E+03  0.11397033052E+03  0.10570000000E+00 0. -1.
<mgrwt>
<rscale>  0 0.56801054E+02</rscale>
<asrwt>0</asrwt>
<pdfrwt beam="1">  1        1 0.86102854E-03 0.56801054E+02</pdfrwt>
<pdfrwt beam="2">  1       -1 0.22172187E-01 0.56801054E+02</pdfrwt>
<totfact> 0.25276015E+05</totfact>
</mgrwt>
</event>
<event>
 4    1  0.4261729E-001  0.2419672E+02  0.7818608E-02  0.1672815E+00
          1   -1    0    0  501    0  0.00000000000E+00  0.00000000000E+00  0.36454832910E+02  0.36454833209E+02  0.46700000000E-02 0. -1.
         -1   -1    0    0    0  501 -0.00000000000E+00 -0.00000000000E+00 -0.40151110788E+01  0.40151137947E+01  0.46700000000E-02 0.  1.
        -13    1    1    2    0    0  0.82649079168E+01 -0.84973330047E+01  0.12176008929E+02  0.16993520442E+02  0.10570000000E+00 0.  1.
         13    1    1    2    0    0 -0.82649079168E+01  0.84973330047E+01  0.20263712902E+02  0.23476426562E+02  0.10570000000E+00 0. -1.
<mgrwt>
<rscale>  0 0.24196716E+02</rscale>
<asrwt>0</asrwt>
<pdfrwt beam="1">  1        1 0.56084360E-02 0.24196716E+02</pdfrwt>
<pdfrwt beam="2">  1       -1 0.61770964E-03 0.24196716E+02</pdfrwt>
<totfact> 0.26545389E+06</totfact>
</mgrwt>
</event>
<event>
 4    1  0.4261729E-001  0.4332320E+02  0.7818608E-02  0.1485090E+00
         -1   -1    0    0    0  501 -0.00000000000E+00  0.00000000000E+00  0.60642586742E+01  0.60642604724E+01  0.46700000000E-02 0. -1.
          1   -1    0    0  501    0  0.00000000000E+00 -0.00000000000E+00 -0.77375451777E+02  0.77375451918E+02  0.46700000000E-02 0.  1.
        -13    1    1    2    0    0  0.18470650676E+02 -0.87608237777E+01 -0.49449811621E+02  0.53508990007E+02  0.10570000000E+00 0.  1.
         13    1    1    2    0    0 -0.18470650676E+02  0.87608237777E+01 -0.21861381481E+02  0.29930722384E+02  0.10570000000E+00 0. -1.
<mgrwt>
<rscale>  0 0.43323196E+02</rscale>
<asrwt>0</asrwt>
<pdfrwt beam="2">  1        1 0.11903915E-01 0.43323196E+02</pdfrwt>
<pdfrwt beam="1">  1       -1 0.93296308E-03 0.43323196E+02</pdfrwt>
<totfact> 0.70055971E+05</totfact>
</mgrwt>
</event>
<event>
 4    1  0.4261729E-001  0.5144607E+02  0.7818608E-02  0.1437694E+00
          1   -1    0    0  501    0  0.00000000000E+00  0.00000000000E+00  0.14317621022E+02  0.14317621783E+02  0.46700000000E-02 0. -1.
         -1   -1    0    0    0  501 -0.00000000000E+00 -0.00000000000E+00 -0.46214002700E+02  0.46214002936E+02  0.46700000000E-02 0.  1.
        -13    1    1    2    0    0  0.17245138952E+02 -0.19155043789E+00  0.65071217976E+01  0.18433266548E+02  0.10570000000E+00 0. -1.
         13    1    1    2    0    0 -0.17245138952E+02  0.19155043789E+00 -0.38403503476E+02  0.42098358172E+02  0.10570000000E+00 0.  1.
<mgrwt>
<rscale>  0 0.51446073E+02</rscale>
<asrwt>0</asrwt>
<pdfrwt beam="1">  1        1 0.22027110E-02 0.51446073E+02</pdfrwt>
<pdfrwt beam="2">  1       -1 0.71098466E-02 0.51446073E+02</pdfrwt>
<totfact> 0.38434596E+05</totfact>
</mgrwt>
</event>
<event>
 4    1  0.4261729E-001  0.2992597E+02  0.7818608E-02  0.1598908E+00
          1   -1    0    0  501    0  0.00000000000E+00  0.00000000000E+00  0.24056207359E+02  0.24056207812E+02  0.46700000000E-02 0. -1.
         -1   -1    0    0    0  501 -0.00000000000E+00 -0.00000000000E+00 -0.93069887568E+01  0.93069899285E+01  0.46700000000E-02 0.  1.
        -13    1    1    2    0    0  0.12138055596E+02 -0.51761767988E+01 -0.48924907499E+00  0.13205140554E+02  0.10570000000E+00 0.  1.
         13    1    1    2    0    0 -0.12138055596E+02  0.51761767988E+01  0.15238467677E+02  0.20158057186E+02  0.10570000000E+00 0. -1.
<mgrwt>
<rscale>  0 0.29925967E+02</rscale>
<asrwt>0</asrwt>
<pdfrwt beam="1">  1        1 0.37009551E-02 0.29925967E+02</pdfrwt>
<pdfrwt beam="2">  1       -1 0.14318446E-02 0.29925967E+02</pdfrwt>
<totfact> 0.15721792E+06</totfact>
</mgrwt>
</event>
<event>
 4    1  0.4261729E-001  0.4454880E+02  0.7818608E-02  0.1477178E+00
          1   -1    0    0  501    0  0.00000000000E+00  0.00000000000E+00  0.10407273451E+03  0.10407273461E+03  0.46700000000E-02 0.  1.
         -1   -1    0    0    0  501 -0.00000000000E+00 -0.00000000000E+00 -0.47673267992E+01  0.47673290866E+01  0.46700000000E-02 0. -1.
        -13    1    1    2    0    0 -0.18581988490E+02  0.39270241620E+01  0.78084455797E+02  0.80361092729E+02  0.10570000000E+00 0.  1.
         13    1    1    2    0    0  0.18581988490E+02 -0.39270241620E+01  0.21220951913E+02  0.28478970972E+02  0.10570000000E+00 0. -1.
<mgrwt>
<rscale>  0 0.44548799E+02</rscale>
<asrwt>0</asrwt>
<pdfrwt beam="1">  1        1 0.16011189E-01 0.44548799E+02</pdfrwt>
<pdfrwt beam="2">  1       -1 0.73343513E-03 0.44548799E+02</pdfrwt>
<totfact> 0.67785382E+05</totfact>
</mgrwt>
</event>
<event>
 4    1  0.4261729E-001  0.2164809E+02  0.7818608E-02  0.1714410E+00
          1   -1    0    0  501    0  0.00000000000E+00  0.00000000000E+00  0.51004787657E+02  0.51004787870E+02  0.46700000000E-02 0. -1.
         -1   -1    0    0    0  501 -0.00000000000E+00 -0.00000000000E+00 -0.22970355618E+01  0.22970403090E+01  0.46700000000E-02 0.  1.
        -13    1    1    2    0    0  0.77007830799E+01 -0.71391163031E+01  0.30812027174E+02  0.32552438199E+02  0.10570000000E+00 0. -1.
         13    1    1    2    0    0 -0.77007830799E+01  0.71391163031E+01  0.17895724921E+02  0.20749389981E+02  0.10570000000E+00 0.  1.
<mgrwt>
<rscale>  0 0.21648089E+02</rscale>
<asrwt>0</asrwt>
<pdfrwt beam="1">  1        1 0.78468906E-02 0.21648089E+02</pdfrwt>
<pdfrwt beam="2">  1       -1 0.35339048E-03 0.21648089E+02</pdfrwt>
<totfact> 0.34986169E+06</totfact>
</mgrwt>
</event>
<event>
 4    1  0.4261729E-001  0.2037789E+02  0.7818608E-02  0.1737916E+00
          1   -1    0    0  501    0  0.00000000000E+00  0.00000000000E+00  0.17436316150E+01  0.17436378689E+01  0.46700000000E-02 0. -1.
         -1   -1    0    0    0  501 -0.00000000000E+00 -0.00000000000E+00 -0.59539201235E+02  0.59539201418E+02  0.46700000000E-02 0.  1.
        -13    1    1    2    0    0 -0.99298986134E+01 -0.18035211075E+01 -0.24700571030E+02  0.26683046238E+02  0.10570000000E+00 0.  1.
         13    1    1    2    0    0  0.99298986134E+01  0.18035211075E+01 -0.33094998590E+02  0.34599793049E+02  0.10570000000E+00 0. -1.
<mgrwt>
<rscale>  0 0.20377893E+02</rscale>
<asrwt>0</asrwt>
<pdfrwt beam="1">  1        1 0.26825156E-03 0.20377893E+02</pdfrwt>
<pdfrwt beam="2">  1       -1 0.91598760E-02 0.20377893E+02</pdfrwt>
<totfact> 0.32890569E+06</totfact>
</mgrwt>
</event>
<event>
 4    1  0.4261729E-001  0.3030059E+02  0.7818608E-02  0.1594790E+00
          1   -1    0    0  501    0  0.00000000000E+00  0.00000000000E+00  0.10141867565E+02  0.10141868640E+02  0.46700000000E-02 0.  1.
         -1   -1    0    0    0  501 -0.00000000000E+00 -0.00000000000E+00 -0.22632064916E+02  0.22632065398E+02  0.46700000000E-02 0. -1.
        -13    1    1    2    0    0 -0.50178483715E+01 -0.10232939001E+02  0.45510562713E+01  0.12272535539E+02  0.10570000000E+00 0. -1.
         13    1    1    2    0    0  0.50178483715E+01  0.10232939001E+02 -0.17041253623E+02  0.20501398499E+02  0.10570000000E+00 0.  1.
<mgrwt>
<rscale>  0 0.30300589E+02</rscale>
<asrwt>0</asrwt>
<pdfrwt beam="1">  1        1 0.15602874E-02 0.30300589E+02</pdfrwt>
<pdfrwt beam="2">  1       -1 0.34818562E-02 0.30300589E+02</pdfrwt>
<totfact> 0.14500495E+06</totfact>
</mgrwt>
</event>
<event>
 4    1  0.4261729E-001  0.2504112E+02  0.7818608E-02  0.1660412E+00
         -1   -1    0    0    0  501 -0.00000000000E+00  0.00000000000E+00  0.71227251144E+01  0.71227266454E+01  0.46700000000E-02 0.  1.
          1   -1    0    0  501    0  0.00000000000E+00 -0.00000000000E+00 -0.22009038764E+02  0.22009039260E+02  0.46700000000E-02 0. -1.
        -13    1    1    2    0    0 -0.52739752900E+01  0.11062035575E+02 -0.44612960590E+01  0.13042154018E+02  0.10570000000E+00 0. -1.
         13    1    1    2    0    0  0.52739752900E+01 -0.11062035575E+02 -0.10425017591E+02  0.16089611887E+02  0.10570000000E+00 0.  1.
<mgrwt>
<rscale>  0 0.25041115E+02</rscale>
<asrwt>0</asrwt>
<pdfrwt beam="2">  1        1 0.33860061E-02 0.25041115E+02</pdfrwt>
<pdfrwt beam="1">  1       -1 0.10958040E-02 0.25041115E+02</pdfrwt>
<totfact> 0.23843782E+06</totfact>
</mgrwt>
</event>
<event>
 4    1  0.4261729E-001  0.2253193E+02  0.7818608E-02  0.1699212E+00
          1   -1    0    0  501    0  0.00000000000E+00  0.00000000000E+00  0.44671792568E+01  0.44671816979E+01  0.46700000000E-02 0. -1.
         -1   -1    0    0    0  501 -0.00000000000E+00 -0.00000000000E+00 -0.28412099647E+02  0.28412100031E+02  0.46700000000E-02 0.  1.
        -13    1    1    2    0    0 -0.62325655371E+01 -0.92229756962E+01 -0.94438776520E+01  0.14598155755E+02  0.10570000000E+00 0. -1.
         13    1    1    2    0    0  0.62325655371E+01  0.92229756962E+01 -0.14501042739E+02  0.18281125974E+02  0.10570000000E+00 0.  1.
<mgrwt>
<rscale>  0 0.22531932E+02</rscale>
<asrwt>0</asrwt>
<pdfrwt beam="1">  1        1 0.68725858E-03 0.22531932E+02</pdfrwt>
<pdfrwt beam="2">  1       -1 0.43710924E-02 0.22531932E+02</pdfrwt>
<totfact> 0.28101571E+06</totfact>
</mgrwt>
</event>
<event>
 4    1  0.4261729E-001  0.3101153E+02  0.7818608E-02  0.1587169E+00
          1   -1    0    0  501    0  0.00000000000E+00  0.00000000000E+00  0.12844264201E+02  0.12844265050E+02  0.46700000000E-02 0. -1.
         -1   -1    0    0    0  501 -0.00000000000E+00 -0.00000000000E+00 -0.18718760988E+02  0.18718761571E+02  0.46700000000E-02 0.  1.
        -13    1    1    2    0    0 -0.13493532110E+02  0.15605494338E+00 -0.10709664200E+02  0.17228111960E+02  0.10570000000E+00 0.  1.
         13    1    1    2    0    0  0.13493532110E+02 -0.15605494338E+00  0.48351674126E+01  0.14334914661E+02  0.10570000000E+00 0. -1.
<mgrwt>
<rscale>  0 0.31011529E+02</rscale>
<asrwt>0</asrwt>
<pdfrwt beam="1">  1        1 0.19760408E-02 0.31011529E+02</pdfrwt>
<pdfrwt beam="2">  1       -1 0.28798095E-02 0.31011529E+02</pdfrwt>
<totfact> 0.13905069E+06</totfact>
</mgrwt>
</event>
<event>
 4    1  0.4261729E-001  0.3360691E+02  0.7818608E-02  0.1561331E+00
         -1   -1    0    0    0  501 -0.00000000000E+00  0.00000000000E+00  0.30897575930E+01  0.30897611222E+01  0.46700000000E-02 0. -1.
          1   -1    0    0  501    0  0.00000000000E+00 -0.00000000000E+00 -0.91384500709E+02  0.91384500828E+02  0.46700000000E-02 0.  1.
        -13    1    1    2    0    0 -0.16011226797E+02 -0.50864755354E+01 -0.45093766607E+02  0.48121622751E+02  0.10570000000E+00 0.  1.
         13    1    1    2    0    0  0.16011226797E+02  0.50864755354E+01 -0.43200976508E+02  0.46352639199E+02  0.10570000000E+00 0. -1.
<mgrwt>
<rscale>  0 0.33606912E+02</rscale>
<asrwt>0</asrwt>
<pdfrwt beam="2">  1        1 0.14059152E-01 0.33606912E+02</pdfrwt>
<pdfrwt beam="1">  1       -1 0.47534767E-03 0.33606912E+02</pdfrwt>
<totfact> 0.13276448E+06</totfact>
</mgrwt>
</event>
<event>
 4    1  0.4261729E-001  0.2136202E+02  0.7818608E-02  0.1719525E+00
         -1   -1    0    0    0  501 -0.00000000000E+00  0.00000000000E+00  0.10546138062E+02  0.10546139096E+02  0.46700000000E-02 0. -1.
          1   -1    0    0  501    0  0.00000000000E+00 -0.00000000000E+00 -0.10817603495E+02  0.10817604503E+02  0.46700000000E-02 0.  1.
        -13    1    1    2    0    0  0.96785788477E+01  0.41213531430E+01  0.17116708945E+01  0.10658397158E+02  0.10570000000E+00 0. -1.
         13    1    1    2    0    0 -0.96785788477E+01 -0.41213531430E+01 -0.19831363275E+01  0.10705346441E+02  0.10570000000E+00 0.  1.
<mgrwt>
<rscale>  0 0.21362019E+02</rscale>
<asrwt>0</asrwt>
<pdfrwt beam="2">  1        1 0.16642469E-02 0.21362019E+02</pdfrwt>
<pdfrwt beam="1">  1       -1 0.16224829E-02 0.21362019E+02</pdfrwt>
<totfact> 0.33340374E+06</totfact>
</mgrwt>
</event>
<event>
 4    1  0.4261729E-001  0.2922826E+02  0.7818608E-02  0.1606779E+00
         -1   -1    0    0    0  501 -0.00000000000E+00  0.00000000000E+00  0.33022295876E+02  0.33022296206E+02  0.46700000000E-02 0. -1.
          1   -1    0    0  501    0  0.00000000000E+00 -0.00000000000E+00 -0.64675324664E+01  0.64675341525E+01  0.46700000000E-02 0.  1.
        -13    1    1    2    0    0  0.11253247184E+02  0.72725977952E+01  0.21159585120E+02  0.25045268332E+02  0.10570000000E+00 0. -1.
         13    1    1    2    0    0 -0.11253247184E+02 -0.72725977952E+01  0.53951782902E+01  0.14444562027E+02  0.10570000000E+00 0.  1.
<mgrwt>
<rscale>  0 0.29228261E+02</rscale>
<asrwt>0</asrwt>
<pdfrwt beam="2">  1        1 0.99500518E-03 0.29228261E+02</pdfrwt>
<pdfrwt beam="1">  1       -1 0.50803532E-02 0.29228261E+02</pdfrwt>
<totfact> 0.15349729E+06</totfact>
</mgrwt>
</event>
<event>
 4    1  0.4261729E-001  0.2365408E+02  0.7818608E-02  0.1681122E+00
          1   -1    0    0  501    0  0.00000000000E+00  0.00000000000E+00  0.20398832853E+02  0.20398833388E+02  0.46700000000E-02 0.  1.
         -1   -1    0    0    0  501 -0.00000000000E+00 -0.00000000000E+00 -0.68572000355E+01  0.68572016257E+01  0.46700000000E-02 0. -1.
        -13    1    1    2    0    0  0.40700708619E+01 -0.10816795220E+02  0.96628225102E+01  0.15064854696E+02  0.10570000000E+00 0. -1.
         13    1    1    2    0    0 -0.40700708619E+01  0.10816795220E+02  0.38788103076E+01  0.12191180318E+02  0.10570000000E+00 0.  1.
<mgrwt>
<rscale>  0 0.23654083E+02</rscale>
<asrwt>0</asrwt>
<pdfrwt beam="1">  1        1 0.31382821E-02 0.23654083E+02</pdfrwt>
<pdfrwt beam="2">  1       -1 0.10549540E-02 0.23654083E+02</pdfrwt>
<totfact> 0.27114474E+06</totfact>
</mgrwt>
</event>
<event>
 4    1  0.4261729E-001  0.5114362E+02  0.7818608E-02  0.1439269E+00
          1   -1    0    0  501    0  0.00000000000E+00  0.00000000000E+00  0.21798443496E+02  0.21798443997E+02  0.46700000000E-02 0.  1.
         -1   -1    0    0    0  501 -0.00000000000E+00 -0.00000000000E+00 -0.29998359204E+02  0.29998359567E+02  0.46700000000E-02 0. -1.
        -13    1    1    2    0    0 -0.12153043904E+02  0.22317285843E+02 -0.12089139932E+01  0.25440722653E+02  0.10570000000E+00 0.  1.
         13    1    1    2    0    0  0.12153043904E+02 -0.22317285843E+02 -0.69910017143E+01  0.26356080911E+02  0.10570000000E+00 0. -1.
<mgrwt>
<rscale>  0 0.51143624E+02</rscale>
<asrwt>0</asrwt>
<pdfrwt beam="1">  1        1 0.33536068E-02 0.51143624E+02</pdfrwt>
<pdfrwt beam="2">  1       -1 0.46151323E-02 0.51143624E+02</pdfrwt>
<totfact> 0.40714016E+05</totfact>
</mgrwt>
</event>
<event>
 4    1  0.4261729E-001  0.2419470E+02  0.7818608E-02  0.1672846E+00
          1   -1    0    0  501    0  0.00000000000E+00  0.00000000000E+00  0.10559803008E+02  0.10559804040E+02  0.46700000000E-02 0.  1.
         -1   -1    0    0    0  501 -0.00000000000E+00 -0.00000000000E+00 -0.13858766645E+02  0.13858767432E+02  0.46700000000E-02 0. -1.
        -13    1    1    2    0    0  0.10456107248E+02  0.58470585927E+01  0.44266687960E-01  0.11980459298E+02  0.10570000000E+00 0.  1.
         13    1    1    2    0    0 -0.10456107248E+02 -0.58470585927E+01 -0.33432303256E+01  0.12438112175E+02  0.10570000000E+00 0. -1.
<mgrwt>
<rscale>  0 0.24194699E+02</rscale>
<asrwt>0</asrwt>
<pdfrwt beam="1">  1        1 0.16245852E-02 0.24194699E+02</pdfrwt>
<pdfrwt beam="2">  1       -1 0.21321181E-02 0.24194699E+02</pdfrwt>
<totfact> 0.24947006E+06</totfact>
</mgrwt>
</event>
<event>
 4    1  0.4261729E-001  0.2771710E+02  0.7818608E-02  0.1624787E+00
         -1   -1    0    0    0  501 -0.00000000000E+00  0.00000000000E+00  0.21767074707E+01  0.21767124803E+01  0.46700000000E-02 0. -1.
          1   -1    0    0  501    0  0.00000000000E+00 -0.00000000000E+00 -0.88233809792E+02  0.88233809916E+02  0.46700000000E-02 0.  1.
        -13    1    1    2    0    0 -0.59114462147E+01 -0.12204567752E+02 -0.33715497079E+02  0.36340646474E+02  0.10570000000E+00 0.  1.
         13    1    1    2    0    0  0.59114462147E+01  0.12204567752E+02 -0.52341605242E+02  0.54069875922E+02  0.10570000000E+00 0. -1.
<mgrwt>
<rscale>  0 0.27717101E+02</rscale>
<asrwt>0</asrwt>
<pdfrwt beam="2">  1        1 0.13574430E-01 0.27717101E+02</pdfrwt>
<pdfrwt beam="1">  1       -1 0.33487854E-03 0.27717101E+02</pdfrwt>
<totfact> 0.20858962E+06</totfact>
</mgrwt>
</event>
<event>
 4    1  0.4261729E-001  0.2597566E+02  0.7818608E-02  0.1647371E+00
         -1   -1    0    0    0  501 -0.00000000000E+00  0.00000000000E+00  0.75689401715E+02  0.75689401859E+02  0.46700000000E-02 0. -1.
          1   -1    0    0  501    0  0.00000000000E+00 -0.00000000000E+00 -0.22286282915E+01  0.22286331844E+01  0.46700000000E-02 0.  1.
        -13    1    1    2    0    0  0.73193974657E+01  0.10679840315E+02  0.33671330167E+02  0.36074952753E+02  0.10570000000E+00 0. -1.
         13    1    1    2    0    0 -0.73193974657E+01 -0.10679840315E+02  0.39789443257E+02  0.41843082291E+02  0.10570000000E+00 0.  1.
<mgrwt>
<rscale>  0 0.25975661E+02</rscale>
<asrwt>0</asrwt>
<pdfrwt beam="2">  1        1 0.34286632E-03 0.25975661E+02</pdfrwt>
<pdfrwt beam="1">  1       -1 0.11644522E-01 0.25975661E+02</pdfrwt>
<totfact> 0.18501862E+06</totfact>
</mgrwt>
</event>
<event>
 4    1  0.4261729E-001  0.4511223E+02  0.7818608E-02  0.1473642E+00
         -1   -1    0    0    0  501 -0.00000000000E+00  0.00000000000E+00  0.13847745511E+02  0.13847746298E+02  0.46700000000E-02 0.  1.
          1   -1    0    0  501    0  0.00000000000E+00 -0.00000000000E+00 -0.36740876267E+02  0.36740876564E+02  0.46700000000E-02 0. -1.
        -13    1    1    2    0    0  0.21704911180E+02 -0.32295888874E+01 -0.17298672217E+02  0.27942595560E+02  0.10570000000E+00 0. -1.
         13    1    1    2    0    0 -0.21704911180E+02  0.32295888874E+01 -0.55944585396E+01  0.22646027301E+02  0.10570000000E+00 0.  1.
<mgrwt>
<rscale>  0 0.45112230E+02</rscale>
<asrwt>0</asrwt>
<pdfrwt beam="2">  1        1 0.56524425E-02 0.45112230E+02</pdfrwt>
<pdfrwt beam="1">  1       -1 0.21304225E-02 0.45112230E+02</pdfrwt>
<totfact> 0.58878105E+05</totfact>
</mgrwt>
</event>
<event>
 4    1  0.4261729E-001  0.2180668E+02  0.7818608E-02  0.1711617E+00
         -1   -1    0    0    0  501 -0.00000000000E+00  0.00000000000E+00  0.12973848710E+01  0.12973932760E+01  0.46700000000E-02 0.  1.
          1   -1    0    0  501    0  0.00000000000E+00 -0.00000000000E+00 -0.91632327625E+02  0.91632327744E+02  0.46700000000E-02 0. -1.
        -13    1    1    2    0    0  0.77196306997E+01 -0.68233509380E+01 -0.60366729949E+02  0.61239726268E+02  0.10570000000E+00 0. -1.
         13    1    1    2    0    0 -0.77196306997E+01  0.68233509380E+01 -0.29968212805E+02  0.31689994752E+02  0.10570000000E+00 0.  1.
<mgrwt>
<rscale>  0 0.21806677E+02</rscale>
<asrwt>0</asrwt>
<pdfrwt beam="2">  1        1 0.14097277E-01 0.21806677E+02</pdfrwt>
<pdfrwt beam="1">  1       -1 0.19959840E-03 0.21806677E+02</pdfrwt>
<totfact> 0.36254944E+06</totfact>
</mgrwt>
</event>
<event>
 4    1  0.4261729E-001  0.2791807E+02  0.7818608E-02  0.1622312E+00
         -1   -1    0    0    0  501 -0.00000000000E+00  0.00000000000E+00  0.49474567566E+02  0.49474567786E+02  0.46700000000E-02 0. -1.
          1   -1    0    0  501    0  0.00000000000E+00 -0.00000000000E+00 -0.39384798083E+01  0.39384825770E+01  0.46700000000E-02 0.  1.
        -13    1    1    2    0    0 -0.99295640551E+01  0.68449231773E+01  0.93218212398E+01  0.15243252256E+02  0.10570000000E+00 0.  1.
         13    1    1    2    0    0  0.99295640551E+01 -0.68449231773E+01  0.36214266517E+02  0.38169798107E+02  0.10570000000E+00 0. -1.
<mgrwt>
<rscale>  0 0.27918071E+02</rscale>
<asrwt>0</asrwt>
<pdfrwt beam="2">  1        1 0.60592022E-03 0.27918071E+02</pdfrwt>
<pdfrwt beam="1">  1       -1 0.76114719E-02 0.27918071E+02</pdfrwt>
<totfact> 0.16469228E+06</totfact>
</mgrwt>
</event>
<event>
 4    1  0.4261729E-001  0.2585711E+02  0.7818608E-02  0.1648988E+00
          1   -1    0    0  501    0  0.00000000000E+00  0.00000000000E+00  0.78451418382E+01  0.78451432282E+01  0.46700000000E-02 0. -1.
         -1   -1    0    0    0  501 -0.00000000000E+00 -0.00000000000E+00 -0.21305854242E+02  0.21305854754E+02  0.46700000000E-02 0.  1.
        -13    1    1    2    0    0  0.17531234397E+01 -0.12624606989E+02 -0.91698328195E+01  0.15701947327E+02  0.10570000000E+00 0.  1.
         13    1    1    2    0    0 -0.17531234397E+01  0.12624606989E+02 -0.42908795847E+01  0.13449050655E+02  0.10570000000E+00 0. -1.
<mgrwt>
<rscale>  0 0.25857106E+02</rscale>
<asrwt>0</asrwt>
<pdfrwt beam="1">  1        1 0.12069451E-02 0.25857106E+02</pdfrwt>
<pdfrwt beam="2">  1       -1 0.32778238E-02 0.25857106E+02</pdfrwt>
<totfact> 0.20966580E+06</totfact>
</mgrwt>
</event>
<event>
 4    1  0.4261729E-001  0.2751332E+02  0.7818608E-02  0.1627323E+00
          1   -1    0    0  501    0  0.00000000000E+00  0.00000000000E+00  0.10614687996E+02  0.10614689023E+02  0.46700000000E-02 0. -1.
         -1   -1    0    0    0  501 -0.00000000000E+00 -0.00000000000E+00 -0.17828666264E+02  0.17828666875E+02  0.46700000000E-02 0.  1.
        -13    1    1    2    0    0 -0.84772976405E+01 -0.10825478388E+02 -0.40444026042E+01  0.14332617435E+02  0.10570000000E+00 0.  1.
         13    1    1    2    0    0  0.84772976405E+01  0.10825478388E+02 -0.31695756636E+01  0.14110738464E+02  0.10570000000E+00 0. -1.
<mgrwt>
<rscale>  0 0.27513324E+02</rscale>
<asrwt>0</asrwt>
<pdfrwt beam="1">  1        1 0.16330291E-02 0.27513324E+02</pdfrwt>
<pdfrwt beam="2">  1       -1 0.27428719E-02 0.27513324E+02</pdfrwt>
<totfact> 0.18381367E+06</totfact>
</mgrwt>
</event>
<event>
 4    1  0.4261729E-001  0.2239600E+02  0.7818608E-02  0.1701492E+00
         -1   -1    0    0    0  501 -0.00000000000E+00  0.00000000000E+00  0.15885813582E+01  0.15885882224E+01  0.46700000000E-02 0.  1.
          1   -1    0    0  501    0  0.00000000000E+00 -0.00000000000E+00 -0.78935134691E+02  0.78935134829E+02  0.46700000000E-02 0. -1.
        -13    1    1    2    0    0  0.45288574316E+01 -0.99398038778E+01 -0.47534254086E+02  0.48773217392E+02  0.10570000000E+00 0.  1.
         13    1    1    2    0    0 -0.45288574316E+01  0.99398038778E+01 -0.29812299247E+02  0.31750505659E+02  0.10570000000E+00 0. -1.
<mgrwt>
<rscale>  0 0.22395997E+02</rscale>
<asrwt>0</asrwt>
<pdfrwt beam="2">  1        1 0.12143864E-01 0.22395997E+02</pdfrwt>
<pdfrwt beam="1">  1       -1 0.24439773E-03 0.22395997E+02</pdfrwt>
<totfact> 0.33629780E+06</totfact>
</mgrwt>
</event>
<event>
 4    1  0.4261729E-001  0.1530776E+03  0.7818608E-02  0.1196741E+00
         -1   -1    0    0    0  501 -0.00000000000E+00  0.00000000000E+00  0.15527333950E+03  0.15527333957E+03  0.46700000000E-02 0.  1.
          1   -1    0    0  501    0  0.00000000000E+00 -0.00000000000E+00 -0.37728236767E+02  0.37728237056E+02  0.46700000000E-02 0. -1.
        -13    1    1    2    0    0 -0.44747131389E+01 -0.75363300300E+02  0.42897970404E+02  0.86832581023E+02  0.10570000000E+00 0.  1.
         13    1    1    2    0    0  0.44747131389E+01  0.75363300300E+02  0.74647132328E+02  0.10616899560E+03  0.10570000000E+00 0. -1.
<mgrwt>
<rscale>  0 0.15307762E+03</rscale>
<asrwt>0</asrwt>
<pdfrwt beam="2">  1        1 0.58043441E-02 0.15307762E+03</pdfrwt>
<pdfrwt beam="1">  1       -1 0.23888206E-01 0.15307762E+03</pdfrwt>
<totfact> 0.19079155E+04</totfact>
</mgrwt>
</event>
<event>
 4    1  0.4261729E-001  0.2492287E+02  0.7818608E-02  0.1662112E+00
          1   -1    0    0  501    0  0.00000000000E+00  0.00000000000E+00  0.63095977789E+01  0.63095995072E+01  0.46700000000E-02 0. -1.
         -1   -1    0    0    0  501 -0.00000000000E+00 -0.00000000000E+00 -0.24611287448E+02  0.24611287891E+02  0.46700000000E-02 0.  1.
        -13    1    1    2    0    0  0.11320202083E+02 -0.33726422987E+01 -0.42264129090E+01  0.12545733531E+02  0.10570000000E+00 0. -1.
         13    1    1    2    0    0 -0.11320202083E+02  0.33726422987E+01 -0.14075276760E+02  0.18375153867E+02  0.10570000000E+00 0.  1.
<mgrwt>
<rscale>  0 0.24922870E+02</rscale>
<asrwt>0</asrwt>
<pdfrwt beam="1">  1        1 0.97070754E-03 0.24922870E+02</pdfrwt>
<pdfrwt beam="2">  1       -1 0.37863520E-02 0.24922870E+02</pdfrwt>
<totfact> 0.22597260E+06</totfact>
</mgrwt>
</event>
<event>
 4    1  0.4261729E-001  0.9592443E+02  0.7818608E-02  0.1289108E+00
         -1   -1    0    0    0  501 -0.00000000000E+00  0.00000000000E+00  0.18075876509E+02  0.18075877113E+02  0.46700000000E-02 0.  1.
          1   -1    0    0  501    0  0.00000000000E+00 -0.00000000000E+00 -0.12726209611E+03  0.12726209620E+03  0.46700000000E-02 0. -1.
        -13    1    1    2    0    0  0.18108553616E+02 -0.40064325928E+02 -0.25555816033E+02  0.50854506503E+02  0.10570000000E+00 0.  1.
         13    1    1    2    0    0 -0.18108553616E+02  0.40064325928E+02 -0.83630403568E+02  0.94483466806E+02  0.10570000000E+00 0. -1.
<mgrwt>
<rscale>  0 0.95924428E+02</rscale>
<asrwt>0</asrwt>
<pdfrwt beam="2">  1        1 0.19578784E-01 0.95924428E+02</pdfrwt>
<pdfrwt beam="1">  1       -1 0.27809042E-02 0.95924428E+02</pdfrwt>
<totfact> 0.94824082E+04</totfact>
</mgrwt>
</event>
<event>
 4    1  0.4261729E-001  0.3216992E+02  0.7818608E-02  0.1575271E+00
         -1   -1    0    0    0  501 -0.00000000000E+00  0.00000000000E+00  0.10348621269E+03  0.10348621280E+03  0.46700000000E-02 0.  1.
          1   -1    0    0  501    0  0.00000000000E+00 -0.00000000000E+00 -0.25000989030E+01  0.25001032646E+01  0.46700000000E-02 0. -1.
        -13    1    1    2    0    0 -0.11194416602E+02 -0.95763025357E+01  0.29219598763E+02  0.32723335064E+02  0.10570000000E+00 0. -1.
         13    1    1    2    0    0  0.11194416602E+02  0.95763025357E+01  0.71766515026E+02  0.73262980999E+02  0.10570000000E+00 0.  1.
<mgrwt>
<rscale>  0 0.32169924E+02</rscale>
<asrwt>0</asrwt>
<pdfrwt beam="2">  1        1 0.38463098E-03 0.32169924E+02</pdfrwt>
<pdfrwt beam="1">  1       -1 0.15920955E-01 0.32169924E+02</pdfrwt>
<totfact> 0.10742408E+06</totfact>
</mgrwt>
</event>
<event>
 4    1  0.4261729E-001  0.4281679E+02  0.7818608E-02  0.1488450E+00
         -1   -1    0    0    0  501 -0.00000000000E+00  0.00000000000E+00  0.22801999959E+02  0.22802000437E+02  0.46700000000E-02 0.  1.
          1   -1    0    0  501    0  0.00000000000E+00 -0.00000000000E+00 -0.20099959043E+02  0.20099959585E+02  0.46700000000E-02 0. -1.
        -13    1    1    2    0    0 -0.81604705931E+01 -0.15851881645E+02 -0.10522982900E+02  0.20703134391E+02  0.10570000000E+00 0. -1.
         13    1    1    2    0    0  0.81604705931E+01  0.15851881645E+02  0.13225023816E+02  0.22198825632E+02  0.10570000000E+00 0.  1.
<mgrwt>
<rscale>  0 0.42816786E+02</rscale>
<asrwt>0</asrwt>
<pdfrwt beam="2">  1        1 0.30923015E-02 0.42816786E+02</pdfrwt>
<pdfrwt beam="1">  1       -1 0.35080000E-02 0.42816786E+02</pdfrwt>
<totfact> 0.64050508E+05</totfact>
</mgrwt>
</event>
<event>
 4    1  0.4261729E-001  0.3150494E+02  0.7818608E-02  0.1582025E+00
          1   -1    0    0  501    0  0.00000000000E+00  0.00000000000E+00  0.46662396121E+01  0.46662419490E+01  0.46700000000E-02 0. -1.
         -1   -1    0    0    0  501 -0.00000000000E+00 -0.00000000000E+00 -0.53177762940E+02  0.53177763146E+02  0.46700000000E-02 0.  1.
        -13    1    1    2    0    0  0.12373218252E+01  0.13090686595E+02 -0.40180825317E+02  0.42277735706E+02  0.10570000000E+00 0.  1.
         13    1    1    2    0    0 -0.12373218252E+01 -0.13090686595E+02 -0.83306980116E+01  0.15566269388E+02  0.10570000000E+00 0. -1.
<mgrwt>
<rscale>  0 0.31504937E+02</rscale>
<asrwt>0</asrwt>
<pdfrwt beam="1">  1        1 0.71788325E-03 0.31504937E+02</pdfrwt>
<pdfrwt beam="2">  1       -1 0.81811941E-02 0.31504937E+02</pdfrwt>
<totfact> 0.12335453E+06</totfact>
</mgrwt>
</event>
<event>
 4    1  0.4261729E-001  0.4340650E+02  0.7818608E-02  0.1484542E+00
          1   -1    0    0  501    0  0.00000000000E+00  0.00000000000E+00  0.43490543260E+01  0.43490568333E+01  0.46700000000E-02 0. -1.
         -1   -1    0    0    0  501 -0.00000000000E+00 -0.00000000000E+00 -0.10830650212E+03  0.10830650222E+03  0.46700000000E-02 0.  1.
        -13    1    1    2    0    0 -0.18210563005E+02 -0.11137989733E+02 -0.41813511741E+02  0.46947421195E+02  0.10570000000E+00 0. -1.
         13    1    1    2    0    0  0.18210563005E+02  0.11137989733E+02 -0.62143936057E+02  0.65708137863E+02  0.10570000000E+00 0.  1.
<mgrwt>
<rscale>  0 0.43406498E+02</rscale>
<asrwt>0</asrwt>
<pdfrwt beam="1">  1        1 0.66908556E-03 0.43406498E+02</pdfrwt>
<pdfrwt beam="2">  1       -1 0.16662537E-01 0.43406498E+02</pdfrwt>
<totfact> 0.51972777E+05</totfact>
</mgrwt>
</event>
<event>
 4    1  0.4261729E-001  0.2394976E+02  0.7818608E-02  0.1676562E+00
         -1   -1    0    0    0  501 -0.00000000000E+00  0.00000000000E+00  0.74703994610E+02  0.74703994756E+02  0.46700000000E-02 0.  1.
          1   -1    0    0  501    0  0.00000000000E+00 -0.00000000000E+00 -0.19195432593E+01  0.19195489400E+01  0.46700000000E-02 0. -1.
        -13    1    1    2    0    0 -0.10784035601E+02  0.51776601190E+01  0.38094240615E+02  0.39928510223E+02  0.10570000000E+00 0.  1.
         13    1    1    2    0    0  0.10784035601E+02 -0.51776601190E+01  0.34690210736E+02  0.36695033473E+02  0.10570000000E+00 0. -1.
<mgrwt>
<rscale>  0 0.23949762E+02</rscale>
<asrwt>0</asrwt>
<pdfrwt beam="2">  1        1 0.29531481E-03 0.23949762E+02</pdfrwt>
<pdfrwt beam="1">  1       -1 0.11492922E-01 0.23949762E+02</pdfrwt>
<totfact> 0.22294608E+06</totfact>
</mgrwt>
</event>
<event>
 4    1  0.4261729E-001  0.3340360E+02  0.7818608E-02  0.1563252E+00
          1   -1    0    0  501    0  0.00000000000E+00  0.00000000000E+00  0.52984167607E+02  0.52984167813E+02  0.46700000000E-02 0. -1.
         -1   -1    0    0    0  501 -0.00000000000E+00 -0.00000000000E+00 -0.52647806874E+01  0.52647827586E+01  0.46700000000E-02 0.  1.
        -13    1    1    2    0    0 -0.94599723775E+01  0.12707820458E+02  0.33080241751E+02  0.36678240756E+02  0.10570000000E+00 0. -1.
         13    1    1    2    0    0  0.94599723775E+01 -0.12707820458E+02  0.14639145168E+02  0.21570709815E+02  0.10570000000E+00 0.  1.
<mgrwt>
<rscale>  0 0.33403598E+02</rscale>
<asrwt>0</asrwt>
<pdfrwt beam="1">  1        1 0.81514103E-02 0.33403598E+02</pdfrwt>
<pdfrwt beam="2">  1       -1 0.80996646E-03 0.33403598E+02</pdfrwt>
<totfact> 0.12753934E+06</totfact>
</mgrwt>
</event>
<event>
 4    1  0.4261729E-001  0.4536078E+02  0.7818608E-02  0.1472102E+00
         -1   -1    0    0    0  501 -0.00000000000E+00  0.00000000000E+00  0.37948533536E+02  0.37948533823E+02  0.46700000000E-02 0.  1.
          1   -1    0    0  501    0  0.00000000000E+00 -0.00000000000E+00 -0.13555203561E+02  0.13555204365E+02  0.46700000000E-02 0. -1.
        -13    1    1    2    0    0  0.58862445244E+01  0.12367375722E+02 -0.83287525998E+01  0.16030569210E+02  0.10570000000E+00 0. -1.
         13    1    1    2    0    0 -0.58862445244E+01 -0.12367375722E+02  0.32722082575E+02  0.35473168978E+02  0.10570000000E+00 0.  1.
<mgrwt>
<rscale>  0 0.45360782E+02</rscale>
<asrwt>0</asrwt>
<pdfrwt beam="2">  1        1 0.20854160E-02 0.45360782E+02</pdfrwt>
<pdfrwt beam="1">  1       -1 0.58382360E-02 0.45360782E+02</pdfrwt>
<totfact> 0.53330041E+05</totfact>
</mgrwt>
</event>
<event>
 4    1  0.4261729E-001  0.2015434E+02  0.7818608E-02  0.1742276E+00
          1   -1    0    0  501    0  0.00000000000E+00  0.00000000000E+00  0.17112508971E+02  0.17112509608E+02  0.46700000000E-02 0. -1.
         -1   -1    0    0    0  501 -0.00000000000E+00 -0.00000000000E+00 -0.59342143927E+01  0.59342162303E+01  0.46700000000E-02 0.  1.
        -13    1    1    2    0    0  0.57852784895E+01 -0.82212523954E+01  0.63811603165E+01  0.11907510975E+02  0.10570000000E+00 0.  1.
         13    1    1    2    0    0 -0.57852784895E+01  0.82212523954E+01  0.47971342613E+01  0.11139214863E+02  0.10570000000E+00 0. -1.
<mgrwt>
<rscale>  0 0.20154337E+02</rscale>
<asrwt>0</asrwt>
<pdfrwt beam="1">  1        1 0.26326939E-02 0.20154337E+02</pdfrwt>
<pdfrwt beam="2">  1       -1 0.91295626E-03 0.20154337E+02</pdfrwt>
<totfact> 0.38775326E+06</totfact>
</mgrwt>
</event>
<event>
 4    1  0.4261729E-001  0.2021922E+02  0.7818608E-02  0.1741003E+00
          1   -1    0    0  501    0  0.00000000000E+00  0.00000000000E+00  0.89965401627E+00  0.89966613690E+00  0.46700000000E-02 0. -1.
         -1   -1    0    0    0  501 -0.00000000000E+00 -0.00000000000E+00 -0.11360311122E+03  0.11360311132E+03  0.46700000000E-02 0.  1.
        -13    1    1    2    0    0 -0.95313100149E+01 -0.32743866397E+01 -0.60830722846E+02  0.61659999132E+02  0.10570000000E+00 0. -1.
         13    1    1    2    0    0  0.95313100149E+01  0.32743866397E+01 -0.51872734360E+02  0.52842778323E+02  0.10570000000E+00 0.  1.
<mgrwt>
<rscale>  0 0.20219218E+02</rscale>
<asrwt>0</asrwt>
<pdfrwt beam="1">  1        1 0.13840934E-03 0.20219218E+02</pdfrwt>
<pdfrwt beam="2">  1       -1 0.17477391E-01 0.20219218E+02</pdfrwt>
<totfact> 0.30422067E+06</totfact>
</mgrwt>
</event>
<event>
 4    1  0.4261729E-001  0.2625046E+02  0.7818608E-02  0.1643665E+00
         -1   -1    0    0    0  501 -0.00000000000E+00  0.00000000000E+00  0.18693828721E+01  0.18693887053E+01  0.46700000000E-02 0. -1.
          1   -1    0    0  501    0  0.00000000000E+00 -0.00000000000E+00 -0.92154152997E+02  0.92154153115E+02  0.46700000000E-02 0.  1.
        -13    1    1    2    0    0  0.51864104436E+01 -0.11353611921E+02 -0.59672763589E+02  0.60964360439E+02  0.10570000000E+00 0.  1.
         13    1    1    2    0    0 -0.51864104436E+01  0.11353611921E+02 -0.30612006535E+02  0.33059181381E+02  0.10570000000E+00 0. -1.
<mgrwt>
<rscale>  0 0.26250461E+02</rscale>
<asrwt>0</asrwt>
<pdfrwt beam="2">  1        1 0.14177559E-01 0.26250461E+02</pdfrwt>
<pdfrwt beam="1">  1       -1 0.28759790E-03 0.26250461E+02</pdfrwt>
<totfact> 0.23779452E+06</totfact>
</mgrwt>
</event>
<event>
 4    1  0.4261729E-001  0.2617703E+02  0.7818608E-02  0.1644649E+00
          1   -1    0    0  501    0  0.00000000000E+00  0.00000000000E+00  0.24274062711E+02  0.24274063161E+02  0.46700000000E-02 0. -1.
         -1   -1    0    0    0  501 -0.00000000000E+00 -0.00000000000E+00 -0.70572945933E+01  0.70572961384E+01  0.46700000000E-02 0.  1.
        -13    1    1    2    0    0 -0.52776670938E+01  0.11526674522E+02  0.12501552663E+02  0.17804998932E+02  0.10570000000E+00 0. -1.
         13    1    1    2    0    0  0.52776670938E+01 -0.11526674522E+02  0.47152154552E+01  0.13526360367E+02  0.10570000000E+00 0.  1.
<mgrwt>
<rscale>  0 0.26177031E+02</rscale>
<asrwt>0</asrwt>
<pdfrwt beam="1">  1        1 0.37344713E-02 0.26177031E+02</pdfrwt>
<pdfrwt beam="2">  1       -1 0.10857378E-02 0.26177031E+02</pdfrwt>
<totfact> 0.21602351E+06</totfact>
</mgrwt>
</event>
<event>
 4    1  0.4261729E-001  0.3668460E+02  0.7818608E-02  0.1534130E+00
         -1   -1    0    0    0  501 -0.00000000000E+00  0.00000000000E+00  0.29285775289E+02  0.29285775661E+02  0.46700000000E-02 0.  1.
          1   -1    0    0  501    0  0.00000000000E+00 -0.00000000000E+00 -0.11488168720E+02  0.11488169669E+02  0.46700000000E-02 0. -1.
        -13    1    1    2    0    0 -0.10314734877E+02  0.13402261382E+02  0.10069985751E+01  0.16942242601E+02  0.10570000000E+00 0.  1.
         13    1    1    2    0    0  0.10314734877E+02 -0.13402261382E+02  0.16790607993E+02  0.23831702730E+02  0.10570000000E+00 0. -1.
<mgrwt>
<rscale>  0 0.36684599E+02</rscale>
<asrwt>0</asrwt>
<pdfrwt beam="2">  1        1 0.17674107E-02 0.36684599E+02</pdfrwt>
<pdfrwt beam="1">  1       -1 0.45055040E-02 0.36684599E+02</pdfrwt>
<totfact> 0.90833013E+05</totfact>
</mgrwt>
</event>
<event>
 4    1  0.4261729E-001  0.4067094E+02  0.7818608E-02  0.1503331E+00
         -1   -1    0    0    0  501 -0.00000000000E+00  0.00000000000E+00  0.93517824074E+01  0.93517835734E+01  0.46700000000E-02 0.  1.
          1   -1    0    0  501    0  0.00000000000E+00 -0.00000000000E+00 -0.44219522309E+02  0.44219522556E+02  0.46700000000E-02 0. -1.
        -13    1    1    2    0    0  0.98566908788E+01 -0.13669333565E+02 -0.32424101382E+02  0.36542284522E+02  0.10570000000E+00 0. -1.
         13    1    1    2    0    0 -0.98566908788E+01  0.13669333565E+02 -0.24436385197E+01  0.17029021607E+02  0.10570000000E+00 0.  1.
<mgrwt>
<rscale>  0 0.40670942E+02</rscale>
<asrwt>0</asrwt>
<pdfrwt beam="2">  1        1 0.68030034E-02 0.40670942E+02</pdfrwt>
<pdfrwt beam="1">  1       -1 0.14387359E-02 0.40670942E+02</pdfrwt>
<totfact> 0.77574089E+05</totfact>
</mgrwt>
</event>
<event>
 4    1  0.4261729E-001  0.2286315E+02  0.7818608E-02  0.1693738E+00
         -1   -1    0    0    0  501 -0.00000000000E+00  0.00000000000E+00  0.11187793673E+03  0.11187793683E+03  0.46700000000E-02 0. -1.
          1   -1    0    0  501    0  0.00000000000E+00 -0.00000000000E+00 -0.11680620382E+01  0.11680713737E+01  0.46700000000E-02 0.  1.
        -13    1    1    2    0    0  0.62703427533E+01 -0.95462871786E+01  0.53030858778E+02  0.54246953393E+02  0.10570000000E+00 0.  1.
         13    1    1    2    0    0 -0.62703427533E+01  0.95462871786E+01  0.57679015917E+02  0.58799054812E+02  0.10570000000E+00 0. -1.
<mgrwt>
<rscale>  0 0.22863150E+02</rscale>
<asrwt>0</asrwt>
<pdfrwt beam="2">  1        1 0.17970259E-03 0.22863150E+02</pdfrwt>
<pdfrwt beam="1">  1       -1 0.17211990E-01 0.22863150E+02</pdfrwt>
<totfact> 0.23234219E+06</totfact>
</mgrwt>
</event>
<event>
 4    1  0.4261729E-001  0.2059580E+02  0.7818608E-02  0.1733733E+00
          1   -1    0    0  501    0  0.00000000000E+00  0.00000000000E+00  0.17611383199E+02  0.17611383818E+02  0.46700000000E-02 0. -1.
         -1   -1    0    0    0  501 -0.00000000000E+00 -0.00000000000E+00 -0.60214874897E+01  0.60214893007E+01  0.46700000000E-02 0.  1.
        -13    1    1    2    0    0 -0.61646217807E+01  0.82134504782E+01  0.66629693988E+01  0.12242126619E+02  0.10570000000E+00 0. -1.
         13    1    1    2    0    0  0.61646217807E+01 -0.82134504782E+01  0.49269263102E+01  0.11390746499E+02  0.10570000000E+00 0.  1.
<mgrwt>
<rscale>  0 0.20595801E+02</rscale>
<asrwt>0</asrwt>
<pdfrwt beam="1">  1        1 0.27094438E-02 0.20595801E+02</pdfrwt>
<pdfrwt beam="2">  1       -1 0.92638288E-03 0.20595801E+02</pdfrwt>
<totfact> 0.36967677E+06</totfact>
</mgrwt>
</event>
<event>
 4    1  0.4261729E-001  0.2793018E+02  0.7818608E-02  0.1622163E+00
          1   -1    0    0  501    0  0.00000000000E+00  0.00000000000E+00  0.65517896792E+01  0.65517913435E+01  0.46700000000E-02 0.  1.
         -1   -1    0    0    0  501 -0.00000000000E+00 -0.00000000000E+00 -0.29766477072E+02  0.29766477438E+02  0.46700000000E-02 0. -1.
        -13    1    1    2    0    0 -0.52785154273E+01 -0.86313457042E+01 -0.24123570839E+02  0.26159524007E+02  0.10570000000E+00 0. -1.
         13    1    1    2    0    0  0.52785154273E+01  0.86313457042E+01  0.90888344626E+00  0.10158744774E+02  0.10570000000E+00 0.  1.
<mgrwt>
<rscale>  0 0.27930180E+02</rscale>
<asrwt>0</asrwt>
<pdfrwt beam="1">  1        1 0.10079678E-02 0.27930180E+02</pdfrwt>
<pdfrwt beam="2">  1       -1 0.45794581E-02 0.27930180E+02</pdfrwt>
<totfact> 0.17183850E+06</totfact>
</mgrwt>
</event>
<event>
 4    1  0.4261729E-001  0.8159004E+02  0.7818608E-02  0.1324599E+00
         -1   -1    0    0    0  501 -0.00000000000E+00  0.00000000000E+00  0.59663370630E+02  0.59663370813E+02  0.46700000000E-02 0.  1.
          1   -1    0    0  501    0  0.00000000000E+00 -0.00000000000E+00 -0.27893722260E+02  0.27893722651E+02  0.46700000000E-02 0. -1.
        -13    1    1    2    0    0 -0.33023261078E+02  0.15972900393E+01 -0.97614148375E+01  0.34472938660E+02  0.10570000000E+00 0.  1.
         13    1    1    2    0    0  0.33023261078E+02 -0.15972900393E+01  0.41531063207E+02  0.53084154804E+02  0.10570000000E+00 0. -1.
<mgrwt>
<rscale>  0 0.81590037E+02</rscale>
<asrwt>0</asrwt>
<pdfrwt beam="2">  1        1 0.42913420E-02 0.81590037E+02</pdfrwt>
<pdfrwt beam="1">  1       -1 0.91789799E-02 0.81590037E+02</pdfrwt>
<totfact> 0.11758737E+05</totfact>
</mgrwt>
</event>
<event>
 4    1  0.4261729E-001  0.4417637E+02  0.7818608E-02  0.1479550E+00
          1   -1    0    0  501    0  0.00000000000E+00  0.00000000000E+00  0.17460785408E+02  0.17460786033E+02  0.46700000000E-02 0. -1.
         -1   -1    0    0    0  501 -0.00000000000E+00 -0.00000000000E+00 -0.27941924012E+02  0.27941924402E+02  0.46700000000E-02 0.  1.
        -13    1    1    2    0    0 -0.29342775144E+01  0.99156937796E+01  0.14819080198E+02  0.18070619194E+02  0.10570000000E+00 0. -1.
         13    1    1    2    0    0  0.29342775144E+01 -0.99156937796E+01 -0.25300218802E+02  0.27332091241E+02  0.10570000000E+00 0.  1.
<mgrwt>
<rscale>  0 0.44176372E+02</rscale>
<asrwt>0</asrwt>
<pdfrwt beam="1">  1        1 0.26862748E-02 0.44176372E+02</pdfrwt>
<pdfrwt beam="2">  1       -1 0.42987576E-02 0.44176372E+02</pdfrwt>
<totfact> 0.58433060E+05</totfact>
</mgrwt>
</event>
<event>
 4    1  0.4261729E-001  0.3308942E+02  0.7818608E-02  0.1566252E+00
          1   -1    0    0  501    0  0.00000000000E+00  0.00000000000E+00  0.38951563890E+01  0.38951591885E+01  0.46700000000E-02 0. -1.
         -1   -1    0    0    0  501 -0.00000000000E+00 -0.00000000000E+00 -0.70273781506E+02  0.70273781661E+02  0.46700000000E-02 0.  1.
        -13    1    1    2    0    0 -0.16181758209E+02  0.31773853452E+01 -0.30206195276E+02  0.34414684103E+02  0.10570000000E+00 0. -1.
         13    1    1    2    0    0  0.16181758209E+02 -0.31773853452E+01 -0.36172429842E+02  0.39754256747E+02  0.10570000000E+00 0.  1.
<mgrwt>
<rscale>  0 0.33089423E+02</rscale>
<asrwt>0</asrwt>
<pdfrwt beam="1">  1        1 0.59925511E-03 0.33089423E+02</pdfrwt>
<pdfrwt beam="2">  1       -1 0.10811350E-01 0.33089423E+02</pdfrwt>
<totfact> 0.10638473E+06</totfact>
</mgrwt>
</event>
<event>
 4    1  0.4261729E-001  0.3509597E+02  0.7818608E-02  0.1547750E+00
          1   -1    0    0  501    0  0.00000000000E+00  0.00000000000E+00  0.36830215549E+01  0.36830245156E+01  0.46700000000E-02 0.  1.
         -1   -1    0    0    0  501 -0.00000000000E+00 -0.00000000000E+00 -0.83608415279E+02  0.83608415409E+02  0.46700000000E-02 0. -1.
        -13    1    1    2    0    0  0.80121904733E+01  0.15126717679E+02 -0.49566004524E+02  0.52438657124E+02  0.10570000000E+00 0. -1.
         13    1    1    2    0    0 -0.80121904733E+01 -0.15126717679E+02 -0.30359389199E+02  0.34852782801E+02  0.10570000000E+00 0.  1.
<mgrwt>
<rscale>  0 0.35095967E+02</rscale>
<asrwt>0</asrwt>
<pdfrwt beam="1">  1        1 0.56661900E-03 0.35095967E+02</pdfrwt>
<pdfrwt beam="2">  1       -1 0.12862832E-01 0.35095967E+02</pdfrwt>
<totfact> 0.90373108E+05</totfact>
</mgrwt>
</event>
<event>
 4    1  0.4261729E-001  0.3160573E+02  0.7818608E-02  0.1580989E+00
         -1   -1    0    0    0  501 -0.00000000000E+00  0.00000000000E+00  0.18044414845E+02  0.18044415449E+02  0.46700000000E-02 0. -1.
          1   -1    0    0  501    0  0.00000000000E+00 -0.00000000000E+00 -0.13839764372E+02  0.13839765160E+02  0.46700000000E-02 0.  1.
        -13    1    1    2    0    0  0.89996871707E+01  0.11191047087E+02  0.87547689290E+01  0.16819365492E+02  0.10570000000E+00 0. -1.
         13    1    1    2    0    0 -0.89996871707E+01 -0.11191047087E+02 -0.45501184558E+01  0.15064815117E+02  0.10570000000E+00 0.  1.
<mgrwt>
<rscale>  0 0.31605726E+02</rscale>
<asrwt>0</asrwt>
<pdfrwt beam="2">  1        1 0.21291946E-02 0.31605726E+02</pdfrwt>
<pdfrwt beam="1">  1       -1 0.27760639E-02 0.31605726E+02</pdfrwt>
<totfact> 0.13334637E+06</totfact>
</mgrwt>
</event>
<event>
 4    1  0.4261729E-001  0.3635065E+02  0.7818608E-02  0.1536923E+00
          1   -1    0    0  501    0  0.00000000000E+00  0.00000000000E+00  0.46525991463E+02  0.46525991697E+02  0.46700000000E-02 0. -1.
         -1   -1    0    0    0  501 -0.00000000000E+00 -0.00000000000E+00 -0.71001684565E+01  0.71001699923E+01  0.46700000000E-02 0.  1.
        -13    1    1    2    0    0  0.18210618102E+01 -0.10567512749E+02  0.41361499663E+02  0.42729069948E+02  0.10570000000E+00 0. -1.
         13    1    1    2    0    0 -0.18210618102E+01  0.10567512749E+02 -0.19356766564E+01  0.10897091741E+02  0.10570000000E+00 0.  1.
<mgrwt>
<rscale>  0 0.36350649E+02</rscale>
<asrwt>0</asrwt>
<pdfrwt beam="1">  1        1 0.71578450E-02 0.36350649E+02</pdfrwt>
<pdfrwt beam="2">  1       -1 0.10923337E-02 0.36350649E+02</pdfrwt>
<totfact> 0.10275684E+06</totfact>
</mgrwt>
</event>
<event>
 4    1  0.4261729E-001  0.6732092E+02  0.7818608E-02  0.1369448E+00
          1   -1    0    0  501    0  0.00000000000E+00  0.00000000000E+00  0.17048102377E+02  0.17048103017E+02  0.46700000000E-02 0. -1.
         -1   -1    0    0    0  501 -0.00000000000E+00 -0.00000000000E+00 -0.66460566526E+02  0.66460566690E+02  0.46700000000E-02 0.  1.
        -13    1    1    2    0    0  0.19658718708E+02  0.16314690497E+02  0.24815924180E+01  0.25667173990E+02  0.10570000000E+00 0. -1.
         13    1    1    2    0    0 -0.19658718708E+02 -0.16314690497E+02 -0.51894056567E+02  0.57841495717E+02  0.10570000000E+00 0.  1.
<mgrwt>
<rscale>  0 0.67320920E+02</rscale>
<asrwt>0</asrwt>
<pdfrwt beam="1">  1        1 0.26227851E-02 0.67320920E+02</pdfrwt>
<pdfrwt beam="2">  1       -1 0.10224702E-01 0.67320920E+02</pdfrwt>
<totfact> 0.18817454E+05</totfact>
</mgrwt>
</event>
<event>
 4    1  0.4261729E-001  0.2164051E+02  0.7818608E-02  0.1714544E+00
         -1   -1    0    0    0  501 -0.00000000000E+00  0.00000000000E+00  0.71361462169E+02  0.71361462322E+02  0.46700000000E-02 0. -1.
          1   -1    0    0  501    0  0.00000000000E+00 -0.00000000000E+00 -0.16406286939E+01  0.16406353404E+01  0.46700000000E-02 0.  1.
        -13    1    1    2    0    0 -0.10282035715E+02  0.13826820719E+00  0.46213981588E+02  0.47344298951E+02  0.10570000000E+00 0. -1.
         13    1    1    2    0    0  0.10282035715E+02 -0.13826820719E+00  0.23506851888E+02  0.25657798711E+02  0.10570000000E+00 0.  1.
<mgrwt>
<rscale>  0 0.21640509E+02</rscale>
<asrwt>0</asrwt>
<pdfrwt beam="2">  1        1 0.25240495E-03 0.21640509E+02</pdfrwt>
<pdfrwt beam="1">  1       -1 0.10978686E-01 0.21640509E+02</pdfrwt>
<totfact> 0.28155672E+06</totfact>
</mgrwt>
</event>
<event>
 4    1  0.4261729E-001  0.6463035E+02  0.7818608E-02  0.1379367E+00
          1   -1    0    0  501    0  0.00000000000E+00  0.00000000000E+00  0.19741930669E+02  0.19741931221E+02  0.46700000000E-02 0. -1.
         -1   -1    0    0    0  501 -0.00000000000E+00 -0.00000000000E+00 -0.52896064277E+02  0.52896064483E+02  0.46700000000E-02 0.  1.
        -13    1    1    2    0    0 -0.27344698532E+01 -0.31674011962E+02 -0.23085882264E+02  0.39289814094E+02  0.10570000000E+00 0. -1.
         13    1    1    2    0    0  0.27344698532E+01  0.31674011962E+02 -0.10068251343E+02  0.33348181611E+02  0.10570000000E+00 0.  1.
<mgrwt>
<rscale>  0 0.64630348E+02</rscale>
<asrwt>0</asrwt>
<pdfrwt beam="1">  1        1 0.30372202E-02 0.64630348E+02</pdfrwt>
<pdfrwt beam="2">  1       -1 0.81378561E-02 0.64630348E+02</pdfrwt>
<totfact> 0.21482460E+05</totfact>
</mgrwt>
</event>
<event>
 4    1  0.4261729E-001  0.2680874E+02  0.7818608E-02  0.1636304E+00
          1   -1    0    0  501    0  0.00000000000E+00  0.00000000000E+00  0.19963182607E+02  0.19963183154E+02  0.46700000000E-02 0.  1.
         -1   -1    0    0    0  501 -0.00000000000E+00 -0.00000000000E+00 -0.90004224010E+01  0.90004236126E+01  0.46700000000E-02 0. -1.
        -13    1    1    2    0    0  0.11292650526E+02  0.68983750534E+01  0.77870206943E+01  0.15354491137E+02  0.10570000000E+00 0.  1.
         13    1    1    2    0    0 -0.11292650526E+02 -0.68983750534E+01  0.31757395121E+01  0.13609115630E+02  0.10570000000E+00 0. -1.
<mgrwt>
<rscale>  0 0.26808737E+02</rscale>
<asrwt>0</asrwt>
<pdfrwt beam="1">  1        1 0.30712590E-02 0.26808737E+02</pdfrwt>
<pdfrwt beam="2">  1       -1 0.13846805E-02 0.26808737E+02</pdfrwt>
<totfact> 0.20215387E+06</totfact>
</mgrwt>
</event>
<event>
 4    1  0.4261729E-001  0.3640534E+02  0.7818608E-02  0.1536464E+00
         -1   -1    0    0    0  501 -0.00000000000E+00  0.00000000000E+00  0.63578173513E+01  0.63578190665E+01  0.46700000000E-02 0.  1.
          1   -1    0    0  501    0  0.00000000000E+00 -0.00000000000E+00 -0.52114924389E+02  0.52114924598E+02  0.46700000000E-02 0. -1.
        -13    1    1    2    0    0  0.13294677943E+02 -0.47199840359E+01 -0.41352820033E+02  0.43693175761E+02  0.10570000000E+00 0. -1.
         13    1    1    2    0    0 -0.13294677943E+02  0.47199840359E+01 -0.44042870044E+01  0.14779567903E+02  0.10570000000E+00 0.  1.
<mgrwt>
<rscale>  0 0.36405342E+02</rscale>
<asrwt>0</asrwt>
<pdfrwt beam="2">  1        1 0.80176806E-02 0.36405342E+02</pdfrwt>
<pdfrwt beam="1">  1       -1 0.97812593E-03 0.36405342E+02</pdfrwt>
<totfact> 0.10337257E+06</totfact>
</mgrwt>
</event>
<event>
 4    1  0.4261729E-001  0.2416315E+02  0.7818608E-02  0.1673321E+00
         -1   -1    0    0    0  501 -0.00000000000E+00  0.00000000000E+00  0.15183408400E+02  0.15183409118E+02  0.46700000000E-02 0.  1.
          1   -1    0    0  501    0  0.00000000000E+00 -0.00000000000E+00 -0.96134197801E+01  0.96134209144E+01  0.46700000000E-02 0. -1.
        -13    1    1    2    0    0  0.15632306250E+01 -0.11876794775E+02  0.11782443136E+01  0.12037498755E+02  0.10570000000E+00 0. -1.
         13    1    1    2    0    0 -0.15632306250E+01  0.11876794775E+02  0.43917443059E+01  0.12759331278E+02  0.10570000000E+00 0.  1.
<mgrwt>
<rscale>  0 0.24163154E+02</rscale>
<asrwt>0</asrwt>
<pdfrwt beam="2">  1        1 0.14789878E-02 0.24163154E+02</pdfrwt>
<pdfrwt beam="1">  1       -1 0.23359091E-02 0.24163154E+02</pdfrwt>
<totfact> 0.24907219E+06</totfact>
</mgrwt>
</event>
<event>
 4    1  0.4261729E-001  0.4949299E+02  0.7818608E-02  0.1448096E+00
          1   -1    0    0  501    0  0.00000000000E+00  0.00000000000E+00  0.42818106421E+02  0.42818106675E+02  0.46700000000E-02 0. -1.
         -1   -1    0    0    0  501 -0.00000000000E+00 -0.00000000000E+00 -0.14302101256E+02  0.14302102018E+02  0.46700000000E-02 0.  1.
        -13    1    1    2    0    0  0.16152532577E+01 -0.23144710707E+02  0.24192114992E+02  0.33519491003E+02  0.10570000000E+00 0. -1.
         13    1    1    2    0    0 -0.16152532577E+01  0.23144710707E+02  0.43238901733E+01  0.23600717691E+02  0.10570000000E+00 0.  1.
<mgrwt>
<rscale>  0 0.49492986E+02</rscale>
<asrwt>0</asrwt>
<pdfrwt beam="1">  1        1 0.65874008E-02 0.49492986E+02</pdfrwt>
<pdfrwt beam="2">  1       -1 0.22003234E-02 0.49492986E+02</pdfrwt>
<totfact> 0.47143983E+05</totfact>
</mgrwt>
</event>
<event>
 4    1  0.4261729E-001  0.3761461E+02  0.7818608E-02  0.1526537E+00
          1   -1    0    0  501    0  0.00000000000E+00  0.00000000000E+00  0.55729537395E+01  0.55729556961E+01  0.46700000000E-02 0.  1.
         -1   -1    0    0    0  501 -0.00000000000E+00 -0.00000000000E+00 -0.63469881601E+02  0.63469881773E+02  0.46700000000E-02 0. -1.
        -13    1    1    2    0    0  0.13326902107E+02  0.12920454903E+02 -0.23393395873E+02  0.29863131411E+02  0.10570000000E+00 0. -1.
         13    1    1    2    0    0 -0.13326902107E+02 -0.12920454903E+02 -0.34503531988E+02  0.39179706059E+02  0.10570000000E+00 0.  1.
<mgrwt>
<rscale>  0 0.37614614E+02</rscale>
<asrwt>0</asrwt>
<pdfrwt beam="1">  1        1 0.85737770E-03 0.37614614E+02</pdfrwt>
<pdfrwt beam="2">  1       -1 0.97645969E-02 0.37614614E+02</pdfrwt>
<totfact> 0.79404652E+05</totfact>
</mgrwt>
</event>
<event>
 4    1  0.4261729E-001  0.2193457E+02  0.7818608E-02  0.1709386E+00
         -1   -1    0    0    0  501 -0.00000000000E+00  0.00000000000E+00  0.10670879892E+02  0.10670880914E+02  0.46700000000E-02 0. -1.
          1   -1    0    0  501    0  0.00000000000E+00 -0.00000000000E+00 -0.11271917629E+02  0.11271918596E+02  0.46700000000E-02 0.  1.
        -13    1    1    2    0    0 -0.43880884959E+01  0.10049778803E+02 -0.17103358018E+00  0.10967853009E+02  0.10570000000E+00 0.  1.
         13    1    1    2    0    0  0.43880884959E+01 -0.10049778803E+02 -0.43000415684E+00  0.10974946501E+02  0.10570000000E+00 0. -1.
<mgrwt>
<rscale>  0 0.21934566E+02</rscale>
<asrwt>0</asrwt>
<pdfrwt beam="2">  1        1 0.17341413E-02 0.21934566E+02</pdfrwt>
<pdfrwt beam="1">  1       -1 0.16416740E-02 0.21934566E+02</pdfrwt>
<totfact> 0.31428792E+06</totfact>
</mgrwt>
</event>
<event>
 4    1  0.4261729E-001  0.2259535E+02  0.7818608E-02  0.1698155E+00
          1   -1    0    0  501    0  0.00000000000E+00  0.00000000000E+00  0.64332107202E+02  0.64332107372E+02  0.46700000000E-02 0. -1.
         -1   -1    0    0    0  501 -0.00000000000E+00 -0.00000000000E+00 -0.19840373123E+01  0.19840428084E+01  0.46700000000E-02 0.  1.
        -13    1    1    2    0    0  0.74900287252E+01 -0.83689560007E+01  0.34752216913E+02  0.36522153657E+02  0.10570000000E+00 0. -1.
         13    1    1    2    0    0 -0.74900287252E+01  0.83689560007E+01  0.27595852977E+02  0.29793996524E+02  0.10570000000E+00 0.  1.
<mgrwt>
<rscale>  0 0.22595353E+02</rscale>
<asrwt>0</asrwt>
<pdfrwt beam="1">  1        1 0.98972483E-02 0.22595353E+02</pdfrwt>
<pdfrwt beam="2">  1       -1 0.30523693E-03 0.22595353E+02</pdfrwt>
<totfact> 0.32350318E+06</totfact>
</mgrwt>
</event>
<event>
 4    1  0.4261729E-001  0.4693808E+02  0.7818608E-02  0.1462593E+00
          1   -1    0    0  501    0  0.00000000000E+00  0.00000000000E+00  0.64784966848E+01  0.64784983680E+01  0.46700000000E-02 0.  1.
         -1   -1    0    0    0  501 -0.00000000000E+00 -0.00000000000E+00 -0.85019068469E+02  0.85019068597E+02  0.46700000000E-02 0. -1.
        -13    1    1    2    0    0  0.18219680491E+02  0.10451226949E+01 -0.68034265491E+02  0.70439488158E+02  0.10570000000E+00 0. -1.
         13    1    1    2    0    0 -0.18219680491E+02 -0.10451226949E+01 -0.10506306294E+02  0.21058078807E+02  0.10570000000E+00 0.  1.
<mgrwt>
<rscale>  0 0.46938080E+02</rscale>
<asrwt>0</asrwt>
<pdfrwt beam="1">  1        1 0.99669200E-03 0.46938080E+02</pdfrwt>
<pdfrwt beam="2">  1       -1 0.13079856E-01 0.46938080E+02</pdfrwt>
<totfact> 0.44612942E+05</totfact>
</mgrwt>
</event>
<event>
 4    1  0.4261729E-001  0.2668435E+02  0.7818608E-02  0.1637925E+00
          1   -1    0    0  501    0  0.00000000000E+00  0.00000000000E+00  0.73736952240E+02  0.73736952388E+02  0.46700000000E-02 0. -1.
         -1   -1    0    0    0  501 -0.00000000000E+00 -0.00000000000E+00 -0.24141685798E+01  0.24141730967E+01  0.46700000000E-02 0.  1.
        -13    1    1    2    0    0  0.89233638808E+01  0.82917855532E+01  0.20129327845E+02  0.23528305136E+02  0.10570000000E+00 0. -1.
         13    1    1    2    0    0 -0.89233638808E+01 -0.82917855532E+01  0.51193455815E+02  0.52622820348E+02  0.10570000000E+00 0.  1.
<mgrwt>
<rscale>  0 0.26684348E+02</rscale>
<asrwt>0</asrwt>
<pdfrwt beam="1">  1        1 0.11344147E-01 0.26684348E+02</pdfrwt>
<pdfrwt beam="2">  1       -1 0.37141092E-03 0.26684348E+02</pdfrwt>
<totfact> 0.22366098E+06</totfact>
</mgrwt>
</event>
<event>
 4    1  0.4261729E-001  0.6458074E+02  0.7818608E-02  0.1379556E+00
          1   -1    0    0  501    0  0.00000000000E+00  0.00000000000E+00  0.20037362212E+02  0.20037362756E+02  0.46700000000E-02 0.  1.
         -1   -1    0    0    0  501 -0.00000000000E+00 -0.00000000000E+00 -0.52036186934E+02  0.52036187143E+02  0.46700000000E-02 0. -1.
        -13    1    1    2    0    0 -0.19154222001E+02  0.24866141355E+02 -0.75406124542E+01  0.32281282735E+02  0.10570000000E+00 0.  1.
         13    1    1    2    0    0  0.19154222001E+02 -0.24866141355E+02 -0.24458212268E+02  0.39792267165E+02  0.10570000000E+00 0. -1.
<mgrwt>
<rscale>  0 0.64580739E+02</rscale>
<asrwt>0</asrwt>
<pdfrwt beam="1">  1        1 0.30826712E-02 0.64580739E+02</pdfrwt>
<pdfrwt beam="2">  1       -1 0.80055672E-02 0.64580739E+02</pdfrwt>
<totfact> 0.21567710E+05</totfact>
</mgrwt>
</event>
<event>
 4    1  0.4261729E-001  0.2723989E+02  0.7818608E-02  0.1630768E+00
         -1   -1    0    0    0  501 -0.00000000000E+00  0.00000000000E+00  0.44983713999E+02  0.44983714241E+02  0.46700000000E-02 0. -1.
          1   -1    0    0  501    0  0.00000000000E+00 -0.00000000000E+00 -0.41237761499E+01  0.41237787942E+01  0.46700000000E-02 0.  1.
        -13    1    1    2    0    0  0.91773851040E+01  0.83037357087E+01  0.10181802007E+02  0.16026749161E+02  0.10570000000E+00 0. -1.
         13    1    1    2    0    0 -0.91773851040E+01 -0.83037357087E+01  0.30678135841E+02  0.33080743874E+02  0.10570000000E+00 0.  1.
<mgrwt>
<rscale>  0 0.27239885E+02</rscale>
<asrwt>0</asrwt>
<pdfrwt beam="2">  1        1 0.63442733E-03 0.27239885E+02</pdfrwt>
<pdfrwt beam="1">  1       -1 0.69205715E-02 0.27239885E+02</pdfrwt>
<totfact> 0.17592259E+06</totfact>
</mgrwt>
</event>
<event>
 4    1  0.4261729E-001  0.2197029E+02  0.7818608E-02  0.1708766E+00
         -1   -1    0    0    0  501 -0.00000000000E+00  0.00000000000E+00  0.15337876959E+02  0.15337877670E+02  0.46700000000E-02 0.  1.
          1   -1    0    0  501    0  0.00000000000E+00 -0.00000000000E+00 -0.78676724329E+01  0.78676738188E+01  0.46700000000E-02 0. -1.
        -13    1    1    2    0    0  0.28521557418E+01 -0.96710096016E+01  0.83389584200E+01  0.13084824000E+02  0.10570000000E+00 0.  1.
         13    1    1    2    0    0 -0.28521557418E+01  0.96710096016E+01 -0.86875389364E+00  0.10120727489E+02  0.10570000000E+00 0. -1.
<mgrwt>
<rscale>  0 0.21970290E+02</rscale>
<asrwt>0</asrwt>
<pdfrwt beam="2">  1        1 0.12104113E-02 0.21970290E+02</pdfrwt>
<pdfrwt beam="1">  1       -1 0.23596735E-02 0.21970290E+02</pdfrwt>
<totfact> 0.30803134E+06</totfact>
</mgrwt>
</event>
<event>
 4    1  0.4261729E-001  0.3587458E+02  0.7818608E-02  0.1540968E+00
         -1   -1    0    0    0  501 -0.00000000000E+00  0.00000000000E+00  0.17859775580E+02  0.17859776191E+02  0.46700000000E-02 0.  1.
          1   -1    0    0  501    0  0.00000000000E+00 -0.00000000000E+00 -0.18015136017E+02  0.18015136623E+02  0.46700000000E-02 0. -1.
        -13    1    1    2    0    0  0.41640318809E+01 -0.11477726558E+02 -0.13217733693E+02  0.17994360920E+02  0.10570000000E+00 0. -1.
         13    1    1    2    0    0 -0.41640318809E+01  0.11477726558E+02  0.13062373256E+02  0.17880551893E+02  0.10570000000E+00 0.  1.
<mgrwt>
<rscale>  0 0.35874576E+02</rscale>
<asrwt>0</asrwt>
<pdfrwt beam="2">  1        1 0.27715595E-02 0.35874576E+02</pdfrwt>
<pdfrwt beam="1">  1       -1 0.27476579E-02 0.35874576E+02</pdfrwt>
<totfact> 0.99224195E+05</totfact>
</mgrwt>
</event>
<event>
 4    1  0.4261729E-001  0.2149829E+02  0.7818608E-02  0.1717076E+00
         -1   -1    0    0    0  501 -0.00000000000E+00  0.00000000000E+00  0.11030971480E+01  0.11031070332E+01  0.46700000000E-02 0. -1.
          1   -1    0    0  501    0  0.00000000000E+00 -0.00000000000E+00 -0.10474468369E+03  0.10474468379E+03  0.46700000000E-02 0.  1.
        -13    1    1    2    0    0 -0.10113563644E+02  0.35465877759E+01 -0.55852282799E+02  0.56871355890E+02  0.10570000000E+00 0. -1.
         13    1    1    2    0    0  0.10113563644E+02 -0.35465877759E+01 -0.47789303740E+02  0.48976434934E+02  0.10570000000E+00 0.  1.
<mgrwt>
<rscale>  0 0.21498287E+02</rscale>
<asrwt>0</asrwt>
<pdfrwt beam="2">  1        1 0.16114560E-01 0.21498287E+02</pdfrwt>
<pdfrwt beam="1">  1       -1 0.16970810E-03 0.21498287E+02</pdfrwt>
<totfact> 0.37984128E+06</totfact>
</mgrwt>
</event>
<event>
 4    1  0.4261729E-001  0.2115338E+02  0.7818608E-02  0.1723319E+00
          1   -1    0    0  501    0  0.00000000000E+00  0.00000000000E+00  0.23792041818E+02  0.23792042276E+02  0.46700000000E-02 0.  1.
         -1   -1    0    0    0  501 -0.00000000000E+00 -0.00000000000E+00 -0.47018385326E+01  0.47018408518E+01  0.46700000000E-02 0. -1.
        -13    1    1    2    0    0  0.90466203824E+01 -0.44941668584E+01  0.53247714791E+01  0.11419423799E+02  0.10570000000E+00 0. -1.
         13    1    1    2    0    0 -0.90466203824E+01  0.44941668584E+01  0.13765431806E+02  0.17074459329E+02  0.10570000000E+00 0.  1.
<mgrwt>
<rscale>  0 0.21153381E+02</rscale>
<asrwt>0</asrwt>
<pdfrwt beam="1">  1        1 0.36603143E-02 0.21153381E+02</pdfrwt>
<pdfrwt beam="2">  1       -1 0.72336000E-03 0.21153381E+02</pdfrwt>
<totfact> 0.35261303E+06</totfact>
</mgrwt>
</event>
<event>
 4    1  0.4261729E-001  0.2190228E+02  0.7818608E-02  0.1709948E+00
          1   -1    0    0  501    0  0.00000000000E+00  0.00000000000E+00  0.10343095674E+02  0.10343096728E+02  0.46700000000E-02 0. -1.
         -1   -1    0    0    0  501 -0.00000000000E+00 -0.00000000000E+00 -0.11594925410E+02  0.11594926350E+02  0.46700000000E-02 0.  1.
        -13    1    1    2    0    0  0.23006051071E+00  0.10827406585E+02 -0.22504777355E+01  0.11061712513E+02  0.10570000000E+00 0.  1.
         13    1    1    2    0    0 -0.23006051071E+00 -0.10827406585E+02  0.99864799986E+00  0.10876310565E+02  0.10570000000E+00 0. -1.
<mgrwt>
<rscale>  0 0.21902278E+02</rscale>
<asrwt>0</asrwt>
<pdfrwt beam="1">  1        1 0.15912457E-02 0.21902278E+02</pdfrwt>
<pdfrwt beam="2">  1       -1 0.17838348E-02 0.21902278E+02</pdfrwt>
<totfact> 0.31417697E+06</totfact>
</mgrwt>
</event>
<event>
 4    1  0.4261729E-001  0.2522831E+02  0.7818608E-02  0.1657744E+00
          1   -1    0    0  501    0  0.00000000000E+00  0.00000000000E+00  0.35017841784E+02  0.35017842096E+02  0.46700000000E-02 0.  1.
         -1   -1    0    0    0  501 -0.00000000000E+00 -0.00000000000E+00 -0.45438790068E+01  0.45438814066E+01  0.46700000000E-02 0. -1.
        -13    1    1    2    0    0  0.11932334082E+02 -0.23794576659E+01  0.20452883692E+02  0.23798614229E+02  0.10570000000E+00 0. -1.
         13    1    1    2    0    0 -0.11932334082E+02  0.23794576659E+01  0.10021079086E+02  0.15763109273E+02  0.10570000000E+00 0.  1.
<mgrwt>
<rscale>  0 0.25228309E+02</rscale>
<asrwt>0</asrwt>
<pdfrwt beam="1">  1        1 0.53873605E-02 0.25228309E+02</pdfrwt>
<pdfrwt beam="2">  1       -1 0.69905851E-03 0.25228309E+02</pdfrwt>
<totfact> 0.24041945E+06</totfact>
</mgrwt>
</event>
<event>
 4    1  0.4261729E-001  0.2140551E+02  0.7818608E-02  0.1718741E+00
          1   -1    0    0  501    0  0.00000000000E+00  0.00000000000E+00  0.58720643365E+02  0.58720643551E+02  0.46700000000E-02 0. -1.
         -1   -1    0    0    0  501 -0.00000000000E+00 -0.00000000000E+00 -0.19507406963E+01  0.19507462862E+01  0.46700000000E-02 0.  1.
        -13    1    1    2    0    0  0.10083922171E+02 -0.35179871067E+01  0.26429367569E+02  0.28505865400E+02  0.10570000000E+00 0. -1.
         13    1    1    2    0    0 -0.10083922171E+02  0.35179871067E+01  0.30340535100E+02  0.32165524436E+02  0.10570000000E+00 0.  1.
<mgrwt>
<rscale>  0 0.21405506E+02</rscale>
<asrwt>0</asrwt>
<pdfrwt beam="1">  1        1 0.90339438E-02 0.21405506E+02</pdfrwt>
<pdfrwt beam="2">  1       -1 0.30011446E-03 0.21405506E+02</pdfrwt>
<totfact> 0.36273225E+06</totfact>
</mgrwt>
</event>
<event>
 4    1  0.4261729E-001  0.3905395E+02  0.7818608E-02  0.1515291E+00
         -1   -1    0    0    0  501 -0.00000000000E+00  0.00000000000E+00  0.48785588593E+02  0.48785588816E+02  0.46700000000E-02 0.  1.
          1   -1    0    0  501    0  0.00000000000E+00 -0.00000000000E+00 -0.78158890427E+01  0.78158904379E+01  0.46700000000E-02 0. -1.
        -13    1    1    2    0    0  0.18840020705E+02  0.44848788697E+01  0.24102655347E+02  0.30919406299E+02  0.10570000000E+00 0. -1.
         13    1    1    2    0    0 -0.18840020705E+02 -0.44848788697E+01  0.16867044204E+02  0.25682072955E+02  0.10570000000E+00 0.  1.
<mgrwt>
<rscale>  0 0.39053952E+02</rscale>
<asrwt>0</asrwt>
<pdfrwt beam="2">  1        1 0.12024446E-02 0.39053952E+02</pdfrwt>
<pdfrwt beam="1">  1       -1 0.75054752E-02 0.39053952E+02</pdfrwt>
<totfact> 0.74711821E+05</totfact>
</mgrwt>
</event>
<event>
 4    1  0.4261729E-001  0.2848107E+02  0.7818608E-02  0.1615512E+00
         -1   -1    0    0    0  501 -0.00000000000E+00  0.00000000000E+00  0.12403363610E+03  0.12403363619E+03  0.46700000000E-02 0.  1.
          1   -1    0    0  501    0  0.00000000000E+00 -0.00000000000E+00 -0.16349796784E+01  0.16349863479E+01  0.46700000000E-02 0. -1.
        -13    1    1    2    0    0  0.14075687917E+02 -0.45133720463E+00  0.51888284944E+02  0.53765546426E+02  0.10570000000E+00 0. -1.
         13    1    1    2    0    0 -0.14075687917E+02  0.45133720463E+00  0.70510371476E+02  0.71903076108E+02  0.10570000000E+00 0.  1.
<mgrwt>
<rscale>  0 0.28481074E+02</rscale>
<asrwt>0</asrwt>
<pdfrwt beam="2">  1        1 0.25153595E-03 0.28481074E+02</pdfrwt>
<pdfrwt beam="1">  1       -1 0.19082092E-01 0.28481074E+02</pdfrwt>
<totfact> 0.13818344E+06</totfact>
</mgrwt>
</event>
<event>
 4    1  0.4261729E-001  0.2223669E+02  0.7818608E-02  0.1704190E+00
         -1   -1    0    0    0  501 -0.00000000000E+00  0.00000000000E+00  0.27180630037E+02  0.27180630438E+02  0.46700000000E-02 0. -1.
          1   -1    0    0  501    0  0.00000000000E+00 -0.00000000000E+00 -0.45480013021E+01  0.45480036997E+01  0.46700000000E-02 0.  1.
        -13    1    1    2    0    0  0.10501045805E+02  0.31488562649E+01  0.13954714015E+02  0.17746336932E+02  0.10570000000E+00 0. -1.
         13    1    1    2    0    0 -0.10501045805E+02 -0.31488562649E+01  0.86779147203E+01  0.13982297206E+02  0.10570000000E+00 0.  1.
<mgrwt>
<rscale>  0 0.22236689E+02</rscale>
<asrwt>0</asrwt>
<pdfrwt beam="2">  1        1 0.69969272E-03 0.22236689E+02</pdfrwt>
<pdfrwt beam="1">  1       -1 0.41816356E-02 0.22236689E+02</pdfrwt>
<totfact> 0.29030859E+06</totfact>
</mgrwt>
</event>
<event>
 4    1  0.4261729E-001  0.2359796E+02  0.7818608E-02  0.1681997E+00
          1   -1    0    0  501    0  0.00000000000E+00  0.00000000000E+00  0.99927399464E+02  0.99927399573E+02  0.46700000000E-02 0.  1.
         -1   -1    0    0    0  501 -0.00000000000E+00 -0.00000000000E+00 -0.13931667353E+01  0.13931745624E+01  0.46700000000E-02 0. -1.
        -13    1    1    2    0    0  0.67778401042E+01 -0.94715114426E+01  0.57363870508E+02  0.58534378425E+02  0.10570000000E+00 0. -1.
         13    1    1    2    0    0 -0.67778401042E+01  0.94715114426E+01  0.41170362221E+02  0.42786195711E+02  0.10570000000E+00 0.  1.
<mgrwt>
<rscale>  0 0.23597960E+02</rscale>
<asrwt>0</asrwt>
<pdfrwt beam="1">  1        1 0.15373446E-01 0.23597960E+02</pdfrwt>
<pdfrwt beam="2">  1       -1 0.21433396E-03 0.23597960E+02</pdfrwt>
<totfact> 0.30630527E+06</totfact>
</mgrwt>
</event>
<event>
 4    1  0.4261729E-001  0.2376686E+02  0.7818608E-02  0.1679373E+00
         -1   -1    0    0    0  501 -0.00000000000E+00  0.00000000000E+00  0.67524449213E+01  0.67524465362E+01  0.46700000000E-02 0.  1.
          1   -1    0    0  501    0  0.00000000000E+00 -0.00000000000E+00 -0.20913295220E+02  0.20913295742E+02  0.46700000000E-02 0. -1.
        -13    1    1    2    0    0 -0.22802228369E+01 -0.11244090974E+02 -0.34783186912E+01  0.11989114705E+02  0.10570000000E+00 0.  1.
         13    1    1    2    0    0  0.22802228369E+01  0.11244090974E+02 -0.10682531608E+02  0.15676627573E+02  0.10570000000E+00 0. -1.
<mgrwt>
<rscale>  0 0.23766860E+02</rscale>
<asrwt>0</asrwt>
<pdfrwt beam="2">  1        1 0.32174302E-02 0.23766860E+02</pdfrwt>
<pdfrwt beam="1">  1       -1 0.10388379E-02 0.23766860E+02</pdfrwt>
<totfact> 0.26850080E+06</totfact>
</mgrwt>
</event>
<event>
 4    1  0.4261729E-001  0.2271102E+02  0.7818608E-02  0.1696238E+00
         -1   -1    0    0    0  501 -0.00000000000E+00  0.00000000000E+00  0.39768754130E+01  0.39768781550E+01  0.46700000000E-02 0. -1.
          1   -1    0    0  501    0  0.00000000000E+00 -0.00000000000E+00 -0.32424348130E+02  0.32424348467E+02  0.46700000000E-02 0.  1.
        -13    1    1    2    0    0 -0.62444370637E+01 -0.86712833967E+01 -0.80675810853E+01  0.13389592490E+02  0.10570000000E+00 0. -1.
         13    1    1    2    0    0  0.62444370637E+01  0.86712833967E+01 -0.20379891632E+02  0.23011634132E+02  0.10570000000E+00 0.  1.
<mgrwt>
<rscale>  0 0.22711024E+02</rscale>
<asrwt>0</asrwt>
<pdfrwt beam="2">  1        1 0.49883613E-02 0.22711024E+02</pdfrwt>
<pdfrwt beam="1">  1       -1 0.61182725E-03 0.22711024E+02</pdfrwt>
<totfact> 0.30482823E+06</totfact>
</mgrwt>
</event>
<event>
 4    1  0.4261729E-001  0.3382528E+02  0.7818608E-02  0.1559287E+00
         -1   -1    0    0    0  501 -0.00000000000E+00  0.00000000000E+00  0.22530226219E+02  0.22530226703E+02  0.46700000000E-02 0. -1.
          1   -1    0    0  501    0  0.00000000000E+00 -0.00000000000E+00 -0.12695720309E+02  0.12695721168E+02  0.46700000000E-02 0.  1.
        -13    1    1    2    0    0 -0.16075541191E+01  0.15801538812E+02  0.10967599670E+02  0.19302131336E+02  0.10570000000E+00 0. -1.
         13    1    1    2    0    0  0.16075541191E+01 -0.15801538812E+02 -0.11330937609E+01  0.15923816535E+02  0.10570000000E+00 0.  1.
<mgrwt>
<rscale>  0 0.33825285E+02</rscale>
<asrwt>0</asrwt>
<pdfrwt beam="2">  1        1 0.19531879E-02 0.33825285E+02</pdfrwt>
<pdfrwt beam="1">  1       -1 0.34661887E-02 0.33825285E+02</pdfrwt>
<totfact> 0.11215732E+06</totfact>
</mgrwt>
</event>
<event>
 4    1  0.4261729E-001  0.3089214E+02  0.7818608E-02  0.1588432E+00
          1   -1    0    0  501    0  0.00000000000E+00  0.00000000000E+00  0.18443671370E+01  0.18443730493E+01  0.46700000000E-02 0.  1.
         -1   -1    0    0    0  501 -0.00000000000E+00 -0.00000000000E+00 -0.12935636233E+03  0.12935636241E+03  0.46700000000E-02 0. -1.
        -13    1    1    2    0    0  0.11981574793E+02  0.86072871058E+01 -0.83184295249E+02  0.84482434118E+02  0.10570000000E+00 0. -1.
         13    1    1    2    0    0 -0.11981574793E+02 -0.86072871058E+01 -0.44327699940E+02  0.46718301342E+02  0.10570000000E+00 0.  1.
<mgrwt>
<rscale>  0 0.30892136E+02</rscale>
<asrwt>0</asrwt>
<pdfrwt beam="1">  1        1 0.28374935E-03 0.30892136E+02</pdfrwt>
<pdfrwt beam="2">  1       -1 0.19900972E-01 0.30892136E+02</pdfrwt>
<totfact> 0.11342923E+06</totfact>
</mgrwt>
</event>
<event>
 4    1  0.4261729E-001  0.5478239E+02  0.7818608E-02  0.1421131E+00
          1   -1    0    0  501    0  0.00000000000E+00  0.00000000000E+00  0.13461091685E+03  0.13461091693E+03  0.46700000000E-02 0. -1.
         -1   -1    0    0    0  501 -0.00000000000E+00 -0.00000000000E+00 -0.55736745494E+01  0.55736765058E+01  0.46700000000E-02 0.  1.
        -13    1    1    2    0    0 -0.14767001531E+02  0.13428448977E+02  0.11252023933E+03  0.11427686996E+03  0.10570000000E+00 0. -1.
         13    1    1    2    0    0  0.14767001531E+02 -0.13428448977E+02  0.16517002968E+02  0.25907723475E+02  0.10570000000E+00 0.  1.
<mgrwt>
<rscale>  0 0.54782391E+02</rscale>
<asrwt>0</asrwt>
<pdfrwt beam="1">  1        1 0.20709371E-01 0.54782391E+02</pdfrwt>
<pdfrwt beam="2">  1       -1 0.85748857E-03 0.54782391E+02</pdfrwt>
<totfact> 0.41818108E+05</totfact>
</mgrwt>
</event>
<event>
 4    1  0.4261729E-001  0.2524194E+02  0.7818608E-02  0.1657551E+00
          1   -1    0    0  501    0  0.00000000000E+00  0.00000000000E+00  0.95208628960E+01  0.95208640413E+01  0.46700000000E-02 0.  1.
         -1   -1    0    0    0  501 -0.00000000000E+00 -0.00000000000E+00 -0.16730503457E+02  0.16730504108E+02  0.46700000000E-02 0. -1.
        -13    1    1    2    0    0  0.83936006379E+01 -0.67595843089E+01 -0.10435044136E+02  0.15001527599E+02  0.10570000000E+00 0. -1.
         13    1    1    2    0    0 -0.83936006379E+01  0.67595843089E+01  0.32254035754E+01  0.11249840550E+02  0.10570000000E+00 0.  1.
<mgrwt>
<rscale>  0 0.25241938E+02</rscale>
<asrwt>0</asrwt>
<pdfrwt beam="1">  1        1 0.14647483E-02 0.25241938E+02</pdfrwt>
<pdfrwt beam="2">  1       -1 0.25739237E-02 0.25241938E+02</pdfrwt>
<totfact> 0.22451256E+06</totfact>
</mgrwt>
</event>
<event>
 4    1  0.4261729E-001  0.2715778E+02  0.7818608E-02  0.1631813E+00
          1   -1    0    0  501    0  0.00000000000E+00  0.00000000000E+00  0.18514571314E+02  0.18514571903E+02  0.46700000000E-02 0.  1.
         -1   -1    0    0    0  501 -0.00000000000E+00 -0.00000000000E+00 -0.99589815382E+01  0.99589826331E+01  0.46700000000E-02 0. -1.
        -13    1    1    2    0    0  0.97128176887E+01  0.94471712588E+01  0.33475344137E+01  0.13957257302E+02  0.10570000000E+00 0. -1.
         13    1    1    2    0    0 -0.97128176887E+01 -0.94471712588E+01  0.52080553618E+01  0.14516297234E+02  0.10570000000E+00 0.  1.
<mgrwt>
<rscale>  0 0.27157783E+02</rscale>
<asrwt>0</asrwt>
<pdfrwt beam="1">  1        1 0.28483957E-02 0.27157783E+02</pdfrwt>
<pdfrwt beam="2">  1       -1 0.15321512E-02 0.27157783E+02</pdfrwt>
<totfact> 0.19529859E+06</totfact>
</mgrwt>
</event>
<event>
 4    1  0.4261729E-001  0.2032448E+02  0.7818608E-02  0.1738951E+00
         -1   -1    0    0    0  501 -0.00000000000E+00  0.00000000000E+00  0.39239353051E+01  0.39239380841E+01  0.46700000000E-02 0. -1.
          1   -1    0    0  501    0  0.00000000000E+00 -0.00000000000E+00 -0.26318229889E+02  0.26318230303E+02  0.46700000000E-02 0.  1.
        -13    1    1    2    0    0  0.75535526890E+01 -0.66612110025E+01 -0.13211141977E+02  0.16612445186E+02  0.10570000000E+00 0.  1.
         13    1    1    2    0    0 -0.75535526890E+01  0.66612110025E+01 -0.91831526074E+01  0.13629723201E+02  0.10570000000E+00 0. -1.
<mgrwt>
<rscale>  0 0.20324476E+02</rscale>
<asrwt>0</asrwt>
<pdfrwt beam="2">  1        1 0.40489586E-02 0.20324476E+02</pdfrwt>
<pdfrwt beam="1">  1       -1 0.60368262E-03 0.20324476E+02</pdfrwt>
<totfact> 0.38772902E+06</totfact>
</mgrwt>
</event>
<event>
 4    1  0.4261729E-001  0.4462242E+02  0.7818608E-02  0.1476713E+00
          1   -1    0    0  501    0  0.00000000000E+00  0.00000000000E+00  0.12724200960E+03  0.12724200969E+03  0.46700000000E-02 0.  1.
         -1   -1    0    0    0  501 -0.00000000000E+00 -0.00000000000E+00 -0.39121514690E+01  0.39121542563E+01  0.46700000000E-02 0. -1.
        -13    1    1    2    0    0 -0.12317732018E+02  0.11955611785E+02  0.10355400965E+03  0.10496717231E+03  0.10570000000E+00 0.  1.
         13    1    1    2    0    0  0.12317732018E+02 -0.11955611785E+02  0.19775848479E+02  0.26186991633E+02  0.10570000000E+00 0. -1.
<mgrwt>
<rscale>  0 0.44622425E+02</rscale>
<asrwt>0</asrwt>
<pdfrwt beam="1">  1        1 0.19575694E-01 0.44622425E+02</pdfrwt>
<pdfrwt beam="2">  1       -1 0.60186968E-03 0.44622425E+02</pdfrwt>
<totfact> 0.69422027E+05</totfact>
</mgrwt>
</event>
<event>
 4    1  0.4261729E-001  0.2840271E+02  0.7818608E-02  0.1616447E+00
          1   -1    0    0  501    0  0.00000000000E+00  0.00000000000E+00  0.36119694402E+01  0.36119724592E+01  0.46700000000E-02 0.  1.
         -1   -1    0    0    0  501 -0.00000000000E+00 -0.00000000000E+00 -0.55836109025E+02  0.55836109220E+02  0.46700000000E-02 0. -1.
        -13    1    1    2    0    0  0.18268515735E+01  0.98709461235E+01 -0.50882604707E+01  0.11254978061E+02  0.10570000000E+00 0.  1.
         13    1    1    2    0    0 -0.18268515735E+01 -0.98709461235E+01 -0.47135879114E+02  0.48193103618E+02  0.10570000000E+00 0. -1.
<mgrwt>
<rscale>  0 0.28402705E+02</rscale>
<asrwt>0</asrwt>
<pdfrwt beam="1">  1        1 0.55568789E-03 0.28402705E+02</pdfrwt>
<pdfrwt beam="2">  1       -1 0.85901703E-02 0.28402705E+02</pdfrwt>
<totfact> 0.15627868E+06</totfact>
</mgrwt>
</event>
<event>
 4    1  0.4261729E-001  0.2246972E+02  0.7818608E-02  0.1700253E+00
          1   -1    0    0  501    0  0.00000000000E+00  0.00000000000E+00  0.42903881115E+01  0.42903906531E+01  0.46700000000E-02 0. -1.
         -1   -1    0    0    0  501 -0.00000000000E+00 -0.00000000000E+00 -0.29419723211E+02  0.29419723582E+02  0.46700000000E-02 0.  1.
        -13    1    1    2    0    0  0.51135438331E+01 -0.93541994265E+01 -0.17881877762E+02  0.20818792045E+02  0.10570000000E+00 0.  1.
         13    1    1    2    0    0 -0.51135438331E+01  0.93541994265E+01 -0.72474573378E+01  0.12891322190E+02  0.10570000000E+00 0. -1.
<mgrwt>
<rscale>  0 0.22469720E+02</rscale>
<asrwt>0</asrwt>
<pdfrwt beam="1">  1        1 0.66005995E-03 0.22469720E+02</pdfrwt>
<pdfrwt beam="2">  1       -1 0.45261114E-02 0.22469720E+02</pdfrwt>
<totfact> 0.28207702E+06</totfact>
</mgrwt>
</event>
<event>
 4    1  0.4261729E-001  0.3470598E+02  0.7818608E-02  0.1551227E+00
          1   -1    0    0  501    0  0.00000000000E+00  0.00000000000E+00  0.57663119745E+02  0.57663119934E+02  0.46700000000E-02 0. -1.
         -1   -1    0    0    0  501 -0.00000000000E+00 -0.00000000000E+00 -0.52221638284E+01  0.52221659165E+01  0.46700000000E-02 0.  1.
        -13    1    1    2    0    0  0.12046461664E+02 -0.30738985440E+01  0.48155405611E+02  0.49734498620E+02  0.10570000000E+00 0. -1.
         13    1    1    2    0    0 -0.12046461664E+02  0.30738985440E+01  0.42855503054E+01  0.13150787231E+02  0.10570000000E+00 0.  1.
<mgrwt>
<rscale>  0 0.34705984E+02</rscale>
<asrwt>0</asrwt>
<pdfrwt beam="1">  1        1 0.88712499E-02 0.34705984E+02</pdfrwt>
<pdfrwt beam="2">  1       -1 0.80340995E-03 0.34705984E+02</pdfrwt>
<totfact> 0.11716135E+06</totfact>
</mgrwt>
</event>
<event>
 4    1  0.4261729E-001  0.4150414E+02  0.7818608E-02  0.1497426E+00
          1   -1    0    0  501    0  0.00000000000E+00  0.00000000000E+00  0.98607595758E+01  0.98607606817E+01  0.46700000000E-02 0. -1.
         -1   -1    0    0    0  501 -0.00000000000E+00 -0.00000000000E+00 -0.43672939902E+02  0.43672940152E+02  0.46700000000E-02 0.  1.
        -13    1    1    2    0    0  0.92882896954E+01 -0.10463872699E+02  0.28614087812E+01  0.14281589198E+02  0.10570000000E+00 0. -1.
         13    1    1    2    0    0 -0.92882896954E+01  0.10463872699E+02 -0.36673589108E+02  0.39252111636E+02  0.10570000000E+00 0.  1.
<mgrwt>
<rscale>  0 0.41504139E+02</rscale>
<asrwt>0</asrwt>
<pdfrwt beam="1">  1        1 0.15170401E-02 0.41504139E+02</pdfrwt>
<pdfrwt beam="2">  1       -1 0.67189139E-02 0.41504139E+02</pdfrwt>
<totfact> 0.65250687E+05</totfact>
</mgrwt>
</event>
<event>
 4    1  0.4261729E-001  0.9130938E+02  0.7818608E-02  0.1299711E+00
         -1   -1    0    0    0  501 -0.00000000000E+00  0.00000000000E+00  0.19459757923E+02  0.19459758484E+02  0.46700000000E-02 0.  1.
          1   -1    0    0  501    0  0.00000000000E+00 -0.00000000000E+00 -0.10711083153E+03  0.10711083163E+03  0.46700000000E-02 0. -1.
        -13    1    1    2    0    0 -0.40278242063E+02 -0.10309455869E+02 -0.17681638286E+02  0.45180451181E+02  0.10570000000E+00 0.  1.
         13    1    1    2    0    0  0.40278242063E+02  0.10309455869E+02 -0.69969435316E+02  0.81390138930E+02  0.10570000000E+00 0. -1.
<mgrwt>
<rscale>  0 0.91309384E+02</rscale>
<asrwt>0</asrwt>
<pdfrwt beam="2">  1        1 0.16478589E-01 0.91309384E+02</pdfrwt>
<pdfrwt beam="1">  1       -1 0.29938090E-02 0.91309384E+02</pdfrwt>
<totfact> 0.10524447E+05</totfact>
</mgrwt>
</event>
<event>
 4    1  0.4261729E-001  0.2636586E+02  0.7818608E-02  0.1642125E+00
          1   -1    0    0  501    0  0.00000000000E+00  0.00000000000E+00  0.68228450315E+02  0.68228450475E+02  0.46700000000E-02 0.  1.
         -1   -1    0    0    0  501 -0.00000000000E+00 -0.00000000000E+00 -0.25471712165E+01  0.25471754975E+01  0.46700000000E-02 0. -1.
        -13    1    1    2    0    0  0.68202846437E+01 -0.11058267016E+02  0.26852050116E+02  0.29830275224E+02  0.10570000000E+00 0.  1.
         13    1    1    2    0    0 -0.68202846437E+01  0.11058267016E+02  0.38829228983E+02  0.40945350748E+02  0.10570000000E+00 0. -1.
<mgrwt>
<rscale>  0 0.26365864E+02</rscale>
<asrwt>0</asrwt>
<pdfrwt beam="1">  1        1 0.10496685E-01 0.26365864E+02</pdfrwt>
<pdfrwt beam="2">  1       -1 0.39187286E-03 0.26365864E+02</pdfrwt>
<totfact> 0.22828776E+06</totfact>
</mgrwt>
</event>
<event>
 4    1  0.4261729E-001  0.2764767E+02  0.7818608E-02  0.1625648E+00
          1   -1    0    0  501    0  0.00000000000E+00  0.00000000000E+00  0.87539102708E+01  0.87539115165E+01  0.46700000000E-02 0. -1.
         -1   -1    0    0    0  501 -0.00000000000E+00 -0.00000000000E+00 -0.21830066493E+02  0.21830066993E+02  0.46700000000E-02 0.  1.
        -13    1    1    2    0    0 -0.85776168526E+01 -0.71759009376E+01  0.24500100814E+01  0.11449139139E+02  0.10570000000E+00 0. -1.
         13    1    1    2    0    0  0.85776168526E+01  0.71759009376E+01 -0.15526166304E+02  0.19134839370E+02  0.10570000000E+00 0.  1.
<mgrwt>
<rscale>  0 0.27647674E+02</rscale>
<asrwt>0</asrwt>
<pdfrwt beam="1">  1        1 0.13467556E-02 0.27647674E+02</pdfrwt>
<pdfrwt beam="2">  1       -1 0.33584719E-02 0.27647674E+02</pdfrwt>
<totfact> 0.17960423E+06</totfact>
</mgrwt>
</event>
<event>
 4    1  0.4261729E-001  0.3200373E+02  0.7818608E-02  0.1576941E+00
         -1   -1    0    0    0  501 -0.00000000000E+00  0.00000000000E+00  0.29269747848E+02  0.29269748221E+02  0.46700000000E-02 0. -1.
          1   -1    0    0  501    0  0.00000000000E+00 -0.00000000000E+00 -0.87482703010E+01  0.87482715474E+01  0.46700000000E-02 0.  1.
        -13    1    1    2    0    0 -0.19881346594E+01  0.12448957305E+02 -0.14461547929E+01  0.12689828745E+02  0.10570000000E+00 0.  1.
         13    1    1    2    0    0  0.19881346594E+01 -0.12448957305E+02  0.21967632340E+02  0.25328191024E+02  0.10570000000E+00 0. -1.
<mgrwt>
<rscale>  0 0.32003731E+02</rscale>
<asrwt>0</asrwt>
<pdfrwt beam="2">  1        1 0.13458879E-02 0.32003731E+02</pdfrwt>
<pdfrwt beam="1">  1       -1 0.45030382E-02 0.32003731E+02</pdfrwt>
<totfact> 0.12535639E+06</totfact>
</mgrwt>
</event>
<event>
 4    1  0.4261729E-001  0.4212456E+02  0.7818608E-02  0.1493135E+00
         -1   -1    0    0    0  501 -0.00000000000E+00  0.00000000000E+00  0.58072680814E+02  0.58072681002E+02  0.46700000000E-02 0. -1.
          1   -1    0    0  501    0  0.00000000000E+00 -0.00000000000E+00 -0.76390400073E+01  0.76390414348E+01  0.46700000000E-02 0.  1.
        -13    1    1    2    0    0  0.20961125492E+02 -0.11930067921E+01  0.22598926688E+02  0.30846632021E+02  0.10570000000E+00 0.  1.
         13    1    1    2    0    0 -0.20961125492E+02  0.11930067921E+01  0.27834714119E+02  0.34865090415E+02  0.10570000000E+00 0. -1.
<mgrwt>
<rscale>  0 0.42124557E+02</rscale>
<asrwt>0</asrwt>
<pdfrwt beam="2">  1        1 0.11752371E-02 0.42124557E+02</pdfrwt>
<pdfrwt beam="1">  1       -1 0.89342585E-02 0.42124557E+02</pdfrwt>
<totfact> 0.61071932E+05</totfact>
</mgrwt>
</event>
<event>
 4    1  0.4261729E-001  0.4092910E+02  0.7818608E-02  0.1501483E+00
         -1   -1    0    0    0  501 -0.00000000000E+00  0.00000000000E+00  0.22934740813E+02  0.22934741288E+02  0.46700000000E-02 0.  1.
          1   -1    0    0  501    0  0.00000000000E+00 -0.00000000000E+00 -0.18260412329E+02  0.18260412927E+02  0.46700000000E-02 0. -1.
        -13    1    1    2    0    0 -0.17460895718E+02 -0.33937140199E+01 -0.78472314610E+01  0.19441974905E+02  0.10570000000E+00 0. -1.
         13    1    1    2    0    0  0.17460895718E+02  0.33937140199E+01  0.12521559944E+02  0.21753179309E+02  0.10570000000E+00 0.  1.
<mgrwt>
<rscale>  0 0.40929102E+02</rscale>
<asrwt>0</asrwt>
<pdfrwt beam="2">  1        1 0.28092943E-02 0.40929102E+02</pdfrwt>
<pdfrwt beam="1">  1       -1 0.35284217E-02 0.40929102E+02</pdfrwt>
<totfact> 0.71302362E+05</totfact>
</mgrwt>
</event>
<event>
 4    1  0.4261729E-001  0.3380660E+02  0.7818608E-02  0.1559461E+00
          1   -1    0    0  501    0  0.00000000000E+00  0.00000000000E+00  0.14448630550E+03  0.14448630558E+03  0.46700000000E-02 0.  1.
         -1   -1    0    0    0  501 -0.00000000000E+00 -0.00000000000E+00 -0.19774967949E+01  0.19775023092E+01  0.46700000000E-02 0. -1.
        -13    1    1    2    0    0  0.56154350851E+01 -0.15156549629E+02  0.49829225064E+02  0.52385274179E+02  0.10570000000E+00 0. -1.
         13    1    1    2    0    0 -0.56154350851E+01  0.15156549629E+02  0.92679583644E+02  0.94078533708E+02  0.10570000000E+00 0.  1.
<mgrwt>
<rscale>  0 0.33806604E+02</rscale>
<asrwt>0</asrwt>
<pdfrwt beam="1">  1        1 0.22228664E-01 0.33806604E+02</pdfrwt>
<pdfrwt beam="2">  1       -1 0.30423069E-03 0.33806604E+02</pdfrwt>
<totfact> 0.13903503E+06</totfact>
</mgrwt>
</event>
<event>
 4    1  0.4261729E-001  0.2666260E+02  0.7818608E-02  0.1638209E+00
         -1   -1    0    0    0  501 -0.00000000000E+00  0.00000000000E+00  0.70884872922E+01  0.70884888306E+01  0.46700000000E-02 0. -1.
          1   -1    0    0  501    0  0.00000000000E+00 -0.00000000000E+00 -0.25072131329E+02  0.25072131764E+02  0.46700000000E-02 0.  1.
        -13    1    1    2    0    0 -0.12085023661E+02 -0.24393130277E+01 -0.15108411283E+02  0.19500597656E+02  0.10570000000E+00 0. -1.
         13    1    1    2    0    0  0.12085023661E+02  0.24393130277E+01 -0.28752327531E+01  0.12660022939E+02  0.10570000000E+00 0.  1.
<mgrwt>
<rscale>  0 0.26662597E+02</rscale>
<asrwt>0</asrwt>
<pdfrwt beam="2">  1        1 0.38572511E-02 0.26662597E+02</pdfrwt>
<pdfrwt beam="1">  1       -1 0.10905367E-02 0.26662597E+02</pdfrwt>
<totfact> 0.20725841E+06</totfact>
</mgrwt>
</event>
<event>
 4    1  0.4261729E-001  0.1392547E+03  0.7818608E-02  0.1214335E+00
         -1   -1    0    0    0  501 -0.00000000000E+00  0.00000000000E+00  0.26503803530E+03  0.26503803534E+03  0.46700000000E-02 0.  1.
          1   -1    0    0  501    0  0.00000000000E+00 -0.00000000000E+00 -0.18291585363E+02  0.18291585959E+02  0.46700000000E-02 0. -1.
        -13    1    1    2    0    0  0.45231304699E+02 -0.13009197827E+02  0.22777185981E+03  0.23258362249E+03  0.10570000000E+00 0.  1.
         13    1    1    2    0    0 -0.45231304699E+02  0.13009197827E+02  0.18974590124E+02  0.50745998815E+02  0.10570000000E+00 0. -1.
<mgrwt>
<rscale>  0 0.13925467E+03</rscale>
<asrwt>0</asrwt>
<pdfrwt beam="2">  1        1 0.28140904E-02 0.13925467E+03</pdfrwt>
<pdfrwt beam="1">  1       -1 0.40775078E-01 0.13925467E+03</pdfrwt>
<totfact> 0.20706720E+04</totfact>
</mgrwt>
</event>
<event>
 4    1  0.4261729E-001  0.3790040E+02  0.7818608E-02  0.1524256E+00
         -1   -1    0    0    0  501 -0.00000000000E+00  0.00000000000E+00  0.84165441576E+01  0.84165454532E+01  0.46700000000E-02 0.  1.
          1   -1    0    0  501    0  0.00000000000E+00 -0.00000000000E+00 -0.42667170749E+02  0.42667171004E+02  0.46700000000E-02 0. -1.
        -13    1    1    2    0    0  0.15046858975E+02  0.79257332656E+00 -0.16361134534E+01  0.15156654552E+02  0.10570000000E+00 0. -1.
         13    1    1    2    0    0 -0.15046858975E+02 -0.79257332656E+00 -0.32614513138E+02  0.35927061906E+02  0.10570000000E+00 0.  1.
<mgrwt>
<rscale>  0 0.37900405E+02</rscale>
<asrwt>0</asrwt>
<pdfrwt beam="2">  1        1 0.65641801E-02 0.37900405E+02</pdfrwt>
<pdfrwt beam="1">  1       -1 0.12948531E-02 0.37900405E+02</pdfrwt>
<totfact> 0.92092885E+05</totfact>
</mgrwt>
</event>
<event>
 4    1  0.4261729E-001  0.2307997E+02  0.7818608E-02  0.1690217E+00
          1   -1    0    0  501    0  0.00000000000E+00  0.00000000000E+00  0.39881902142E+01  0.39881929484E+01  0.46700000000E-02 0. -1.
         -1   -1    0    0    0  501 -0.00000000000E+00 -0.00000000000E+00 -0.33391371327E+02  0.33391371654E+02  0.46700000000E-02 0.  1.
        -13    1    1    2    0    0  0.82391419934E+01 -0.77668161264E+01 -0.18306040689E+02  0.21525082851E+02  0.10570000000E+00 0.  1.
         13    1    1    2    0    0 -0.82391419934E+01  0.77668161264E+01 -0.11097140424E+02  0.15854481751E+02  0.10570000000E+00 0. -1.
<mgrwt>
<rscale>  0 0.23079965E+02</rscale>
<asrwt>0</asrwt>
<pdfrwt beam="1">  1        1 0.61356798E-03 0.23079965E+02</pdfrwt>
<pdfrwt beam="2">  1       -1 0.51371341E-02 0.23079965E+02</pdfrwt>
<totfact> 0.26315205E+06</totfact>
</mgrwt>
</event>
<event>
 4    1  0.4261729E-001  0.5540754E+02  0.7818608E-02  0.1418181E+00
         -1   -1    0    0    0  501 -0.00000000000E+00  0.00000000000E+00  0.13365028030E+03  0.13365028038E+03  0.46700000000E-02 0. -1.
          1   -1    0    0  501    0  0.00000000000E+00 -0.00000000000E+00 -0.57425901663E+01  0.57425920651E+01  0.46700000000E-02 0.  1.
        -13    1    1    2    0    0  0.33274171681E+01 -0.19445523076E+02  0.11288469755E+03  0.11459566391E+03  0.10570000000E+00 0.  1.
         13    1    1    2    0    0 -0.33274171681E+01  0.19445523076E+02  0.15022992582E+02  0.24797208539E+02  0.10570000000E+00 0. -1.
<mgrwt>
<rscale>  0 0.55407542E+02</rscale>
<asrwt>0</asrwt>
<pdfrwt beam="2">  1        1 0.88347567E-03 0.55407542E+02</pdfrwt>
<pdfrwt beam="1">  1       -1 0.20561579E-01 0.55407542E+02</pdfrwt>
<totfact> 0.27328631E+05</totfact>
</mgrwt>
</event>
<event>
 4    1  0.4261729E-001  0.2029283E+02  0.7818608E-02  0.1739567E+00
         -1   -1    0    0    0  501 -0.00000000000E+00  0.00000000000E+00  0.12935459624E+01  0.12935543922E+01  0.46700000000E-02 0. -1.
          1   -1    0    0  501    0  0.00000000000E+00 -0.00000000000E+00 -0.79586946974E+02  0.79586947111E+02  0.46700000000E-02 0.  1.
        -13    1    1    2    0    0 -0.74908580232E+00  0.10002973173E+02 -0.45214803093E+02  0.46314254750E+02  0.10570000000E+00 0.  1.
         13    1    1    2    0    0  0.74908580232E+00 -0.10002973173E+02 -0.33078597919E+02  0.34566246753E+02  0.10570000000E+00 0. -1.
<mgrwt>
<rscale>  0 0.20292828E+02</rscale>
<asrwt>0</asrwt>
<pdfrwt beam="2">  1        1 0.12244142E-01 0.20292828E+02</pdfrwt>
<pdfrwt beam="1">  1       -1 0.19900779E-03 0.20292828E+02</pdfrwt>
<totfact> 0.41965422E+06</totfact>
</mgrwt>
</event>
<event>
 4    1  0.4261729E-001  0.2168776E+02  0.7818608E-02  0.1713709E+00
         -1   -1    0    0    0  501 -0.00000000000E+00  0.00000000000E+00  0.10162254277E+03  0.10162254287E+03  0.46700000000E-02 0.  1.
          1   -1    0    0  501    0  0.00000000000E+00 -0.00000000000E+00 -0.11571178232E+01  0.11571272470E+01  0.46700000000E-02 0. -1.
        -13    1    1    2    0    0  0.46685682805E+01  0.97548644785E+01  0.46484170401E+02  0.47725697282E+02  0.10570000000E+00 0. -1.
         13    1    1    2    0    0 -0.46685682805E+01 -0.97548644785E+01  0.53981254542E+02  0.55053972838E+02  0.10570000000E+00 0.  1.
<mgrwt>
<rscale>  0 0.21687761E+02</rscale>
<asrwt>0</asrwt>
<pdfrwt beam="2">  1        1 0.17801884E-03 0.21687761E+02</pdfrwt>
<pdfrwt beam="1">  1       -1 0.15634239E-01 0.21687761E+02</pdfrwt>
<totfact> 0.26580060E+06</totfact>
</mgrwt>
</event>
<event>
 4    1  0.4261729E-001  0.2239304E+02  0.7818608E-02  0.1701542E+00
          1   -1    0    0  501    0  0.00000000000E+00  0.00000000000E+00  0.15905924420E+02  0.15905925106E+02  0.46700000000E-02 0. -1.
         -1   -1    0    0    0  501 -0.00000000000E+00 -0.00000000000E+00 -0.78814681555E+01  0.78814695391E+01  0.46700000000E-02 0.  1.
        -13    1    1    2    0    0 -0.87688891540E+01  0.67877179640E+01  0.56525136058E+01  0.12447032366E+02  0.10570000000E+00 0. -1.
         13    1    1    2    0    0  0.87688891540E+01 -0.67877179640E+01  0.23719426586E+01  0.11340362279E+02  0.10570000000E+00 0.  1.
<mgrwt>
<rscale>  0 0.22393040E+02</rscale>
<asrwt>0</asrwt>
<pdfrwt beam="1">  1        1 0.24470654E-02 0.22393040E+02</pdfrwt>
<pdfrwt beam="2">  1       -1 0.12125337E-02 0.22393040E+02</pdfrwt>
<totfact> 0.30416210E+06</totfact>
</mgrwt>
</event>
<event>
 4    1  0.4261729E-001  0.2705457E+02  0.7818608E-02  0.1633132E+00
         -1   -1    0    0    0  501 -0.00000000000E+00  0.00000000000E+00  0.16325642012E+02  0.16325642680E+02  0.46700000000E-02 0.  1.
          1   -1    0    0  501    0  0.00000000000E+00 -0.00000000000E+00 -0.11208585317E+02  0.11208586290E+02  0.46700000000E-02 0. -1.
        -13    1    1    2    0    0 -0.12243889717E+02  0.45592408202E+01  0.61244598124E+01  0.14429819567E+02  0.10570000000E+00 0.  1.
         13    1    1    2    0    0  0.12243889717E+02 -0.45592408202E+01 -0.10074031178E+01  0.13104409403E+02  0.10570000000E+00 0. -1.
<mgrwt>
<rscale>  0 0.27054565E+02</rscale>
<asrwt>0</asrwt>
<pdfrwt beam="2">  1        1 0.17243979E-02 0.27054565E+02</pdfrwt>
<pdfrwt beam="1">  1       -1 0.25116373E-02 0.27054565E+02</pdfrwt>
<totfact> 0.19196344E+06</totfact>
</mgrwt>
</event>
<event>
 4    1  0.4261729E-001  0.4900933E+02  0.7818608E-02  0.1450759E+00
          1   -1    0    0  501    0  0.00000000000E+00  0.00000000000E+00  0.11909948099E+02  0.11909949015E+02  0.46700000000E-02 0. -1.
         -1   -1    0    0    0  501 -0.00000000000E+00 -0.00000000000E+00 -0.50418240664E+02  0.50418240880E+02  0.46700000000E-02 0.  1.
        -13    1    1    2    0    0  0.11358622692E+02  0.85782986302E+01  0.61130194017E+01  0.15491471703E+02  0.10570000000E+00 0. -1.
         13    1    1    2    0    0 -0.11358622692E+02 -0.85782986302E+01 -0.44621311966E+02  0.46836718191E+02  0.10570000000E+00 0.  1.
<mgrwt>
<rscale>  0 0.49009332E+02</rscale>
<asrwt>0</asrwt>
<pdfrwt beam="1">  1        1 0.18322998E-02 0.49009332E+02</pdfrwt>
<pdfrwt beam="2">  1       -1 0.77566524E-02 0.49009332E+02</pdfrwt>
<totfact> 0.42886630E+05</totfact>
</mgrwt>
</event>
<event>
 4    1  0.4261729E-001  0.4031037E+02  0.7818608E-02  0.1505940E+00
          1   -1    0    0  501    0  0.00000000000E+00  0.00000000000E+00  0.10559143839E+02  0.10559144871E+02  0.46700000000E-02 0.  1.
         -1   -1    0    0    0  501 -0.00000000000E+00 -0.00000000000E+00 -0.38472013141E+02  0.38472013425E+02  0.46700000000E-02 0. -1.
        -13    1    1    2    0    0  0.11005800289E+02 -0.79072014258E+01 -0.32102713337E+02  0.34846044976E+02  0.10570000000E+00 0. -1.
         13    1    1    2    0    0 -0.11005800289E+02  0.79072014258E+01  0.41898440337E+01  0.14185113320E+02  0.10570000000E+00 0.  1.
<mgrwt>
<rscale>  0 0.40310373E+02</rscale>
<asrwt>0</asrwt>
<pdfrwt beam="1">  1        1 0.16244838E-02 0.40310373E+02</pdfrwt>
<pdfrwt beam="2">  1       -1 0.59187713E-02 0.40310373E+02</pdfrwt>
<totfact> 0.70848361E+05</totfact>
</mgrwt>
</event>
<event>
 4    1  0.4261729E-001  0.8632447E+02  0.7818608E-02  0.1312005E+00
         -1   -1    0    0    0  501 -0.00000000000E+00  0.00000000000E+00  0.10271308744E+03  0.10271308754E+03  0.46700000000E-02 0.  1.
          1   -1    0    0  501    0  0.00000000000E+00 -0.00000000000E+00 -0.18137695344E+02  0.18137695945E+02  0.46700000000E-02 0. -1.
        -13    1    1    2    0    0  0.25432056790E+02 -0.26988787381E+02  0.11368440043E+02  0.38787069474E+02  0.10570000000E+00 0. -1.
         13    1    1    2    0    0 -0.25432056790E+02  0.26988787381E+02  0.73206952051E+02  0.82063714015E+02  0.10570000000E+00 0.  1.
<mgrwt>
<rscale>  0 0.86324475E+02</rscale>
<asrwt>0</asrwt>
<pdfrwt beam="2">  1        1 0.27904147E-02 0.86324475E+02</pdfrwt>
<pdfrwt beam="1">  1       -1 0.15802013E-01 0.86324475E+02</pdfrwt>
<totfact> 0.93192052E+04</totfact>
</mgrwt>
</event>
<event>
 4    1  0.4261729E-001  0.2096649E+02  0.7818608E-02  0.1726764E+00
          1   -1    0    0  501    0  0.00000000000E+00  0.00000000000E+00  0.44108635474E+01  0.44108660195E+01  0.46700000000E-02 0. -1.
         -1   -1    0    0    0  501 -0.00000000000E+00 -0.00000000000E+00 -0.24915388572E+02  0.24915389009E+02  0.46700000000E-02 0.  1.
        -13    1    1    2    0    0  0.11778322761E+01  0.10210286772E+02 -0.73687251606E+01  0.12646996790E+02  0.10570000000E+00 0. -1.
         13    1    1    2    0    0 -0.11778322761E+01 -0.10210286772E+02 -0.13135799864E+02  0.16679258238E+02  0.10570000000E+00 0.  1.
<mgrwt>
<rscale>  0 0.20966490E+02</rscale>
<asrwt>0</asrwt>
<pdfrwt beam="1">  1        1 0.67859463E-03 0.20966490E+02</pdfrwt>
<pdfrwt beam="2">  1       -1 0.38331368E-02 0.20966490E+02</pdfrwt>
<totfact> 0.33281967E+06</totfact>
</mgrwt>
</event>
<event>
 4    1  0.4261729E-001  0.3834093E+02  0.7818608E-02  0.1520788E+00
          1   -1    0    0  501    0  0.00000000000E+00  0.00000000000E+00  0.42909134254E+01  0.42909159667E+01  0.46700000000E-02 0. -1.
         -1   -1    0    0    0  501 -0.00000000000E+00 -0.00000000000E+00 -0.85647621976E+02  0.85647622103E+02  0.46700000000E-02 0.  1.
        -13    1    1    2    0    0  0.13837409668E+02 -0.21682930413E+01 -0.71381816995E+02  0.72743043455E+02  0.10570000000E+00 0.  1.
         13    1    1    2    0    0 -0.13837409668E+02  0.21682930413E+01 -0.99748915552E+01  0.17195494615E+02  0.10570000000E+00 0. -1.
<mgrwt>
<rscale>  0 0.38340926E+02</rscale>
<asrwt>0</asrwt>
<pdfrwt beam="1">  1        1 0.66014079E-03 0.38340926E+02</pdfrwt>
<pdfrwt beam="2">  1       -1 0.13176556E-01 0.38340926E+02</pdfrwt>
<totfact> 0.72876362E+05</totfact>
</mgrwt>
</event>
<event>
 4    1  0.4261729E-001  0.2343312E+02  0.7818608E-02  0.1684584E+00
         -1   -1    0    0    0  501 -0.00000000000E+00  0.00000000000E+00  0.17127644475E+01  0.17127708141E+01  0.46700000000E-02 0.  1.
          1   -1    0    0  501    0  0.00000000000E+00 -0.00000000000E+00 -0.80149682747E+02  0.80149682883E+02  0.46700000000E-02 0. -1.
        -13    1    1    2    0    0 -0.10152884258E+02  0.57057124189E+01 -0.43679156294E+02  0.45205266066E+02  0.10570000000E+00 0. -1.
         13    1    1    2    0    0  0.10152884258E+02 -0.57057124189E+01 -0.34757762005E+02  0.36657187632E+02  0.10570000000E+00 0.  1.
<mgrwt>
<rscale>  0 0.23433121E+02</rscale>
<asrwt>0</asrwt>
<pdfrwt beam="2">  1        1 0.12330718E-01 0.23433121E+02</pdfrwt>
<pdfrwt beam="1">  1       -1 0.26350278E-03 0.23433121E+02</pdfrwt>
<totfact> 0.30398976E+06</totfact>
</mgrwt>
</event>
<event>
 4    1  0.4261729E-001  0.2705408E+02  0.7818608E-02  0.1633138E+00
         -1   -1    0    0    0  501 -0.00000000000E+00  0.00000000000E+00  0.59037816536E+02  0.59037816721E+02  0.46700000000E-02 0. -1.
          1   -1    0    0  501    0  0.00000000000E+00 -0.00000000000E+00 -0.30993822321E+01  0.30993857503E+01  0.46700000000E-02 0.  1.
        -13    1    1    2    0    0  0.10915419066E+02  0.61156284318E+01  0.39775281007E+02  0.41696899600E+02  0.10570000000E+00 0. -1.
         13    1    1    2    0    0 -0.10915419066E+02 -0.61156284318E+01  0.16163153296E+02  0.20440302871E+02  0.10570000000E+00 0.  1.
<mgrwt>
<rscale>  0 0.27054085E+02</rscale>
<asrwt>0</asrwt>
<pdfrwt beam="2">  1        1 0.47682832E-03 0.27054085E+02</pdfrwt>
<pdfrwt beam="1">  1       -1 0.90827414E-02 0.27054085E+02</pdfrwt>
<totfact> 0.17377529E+06</totfact>
</mgrwt>
</event>
<event>
 4    1  0.4261729E-001  0.5828475E+02  0.7818608E-02  0.1405174E+00
          1   -1    0    0  501    0  0.00000000000E+00  0.00000000000E+00  0.12119507800E+02  0.12119508700E+02  0.46700000000E-02 0.  1.
         -1   -1    0    0    0  501 -0.00000000000E+00 -0.00000000000E+00 -0.70075296686E+02  0.70075296842E+02  0.46700000000E-02 0. -1.
        -13    1    1    2    0    0 -0.16962813430E+00 -0.28195927404E+02 -0.18593032819E+02  0.33775007591E+02  0.10570000000E+00 0.  1.
         13    1    1    2    0    0  0.16962813430E+00  0.28195927404E+02 -0.39362756067E+02  0.48419797950E+02  0.10570000000E+00 0. -1.
<mgrwt>
<rscale>  0 0.58284754E+02</rscale>
<asrwt>0</asrwt>
<pdfrwt beam="1">  1        1 0.18645398E-02 0.58284754E+02</pdfrwt>
<pdfrwt beam="2">  1       -1 0.10780815E-01 0.58284754E+02</pdfrwt>
<totfact> 0.26814962E+05</totfact>
</mgrwt>
</event>
<event>
 4    1  0.4261729E-001  0.2026806E+02  0.7818608E-02  0.1740049E+00
          1   -1    0    0  501    0  0.00000000000E+00  0.00000000000E+00  0.31062342386E+01  0.31062377491E+01  0.46700000000E-02 0. -1.
         -1   -1    0    0    0  501 -0.00000000000E+00 -0.00000000000E+00 -0.33062045752E+02  0.33062046082E+02  0.46700000000E-02 0.  1.
        -13    1    1    2    0    0  0.58484908799E+01  0.82709224281E+01 -0.14491316644E+02  0.17681132145E+02  0.10570000000E+00 0. -1.
         13    1    1    2    0    0 -0.58484908799E+01 -0.82709224281E+01 -0.15464494870E+02  0.18487151686E+02  0.10570000000E+00 0.  1.
<mgrwt>
<rscale>  0 0.20268056E+02</rscale>
<asrwt>0</asrwt>
<pdfrwt beam="1">  1        1 0.47788251E-03 0.20268056E+02</pdfrwt>
<pdfrwt beam="2">  1       -1 0.50864686E-02 0.20268056E+02</pdfrwt>
<totfact> 0.35180324E+06</totfact>
</mgrwt>
</event>
<event>
 4    1  0.4261729E-001  0.2915707E+02  0.7818608E-02  0.1607597E+00
          1   -1    0    0  501    0  0.00000000000E+00  0.00000000000E+00  0.69912429373E+02  0.69912429529E+02  0.46700000000E-02 0. -1.
         -1   -1    0    0    0  501 -0.00000000000E+00 -0.00000000000E+00 -0.30399969409E+01  0.30400005279E+01  0.46700000000E-02 0.  1.
        -13    1    1    2    0    0 -0.96320127020E+01 -0.10219140500E+02  0.43228162479E+02  0.45452081416E+02  0.10570000000E+00 0. -1.
         13    1    1    2    0    0  0.96320127020E+01  0.10219140500E+02  0.23644269952E+02  0.27500348640E+02  0.10570000000E+00 0.  1.
<mgrwt>
<rscale>  0 0.29157072E+02</rscale>
<asrwt>0</asrwt>
<pdfrwt beam="1">  1        1 0.10755758E-01 0.29157072E+02</pdfrwt>
<pdfrwt beam="2">  1       -1 0.46769216E-03 0.29157072E+02</pdfrwt>
<totfact> 0.18085700E+06</totfact>
</mgrwt>
</event>
<event>
 4    1  0.4261729E-001  0.3530577E+02  0.7818608E-02  0.1545902E+00
         -1   -1    0    0    0  501 -0.00000000000E+00  0.00000000000E+00  0.21541253176E+01  0.21541303798E+01  0.46700000000E-02 0. -1.
          1   -1    0    0  501    0  0.00000000000E+00 -0.00000000000E+00 -0.14466378513E+03  0.14466378520E+03  0.46700000000E-02 0.  1.
        -13    1    1    2    0    0  0.17461708355E+02  0.25886002417E+01 -0.71387435958E+02  0.73537672624E+02  0.10570000000E+00 0. -1.
         13    1    1    2    0    0 -0.17461708355E+02 -0.25886002417E+01 -0.71122223851E+02  0.73280242957E+02  0.10570000000E+00 0.  1.
<mgrwt>
<rscale>  0 0.35305767E+02</rscale>
<asrwt>0</asrwt>
<pdfrwt beam="2">  1        1 0.22255960E-01 0.35305767E+02</pdfrwt>
<pdfrwt beam="1">  1       -1 0.33140440E-03 0.35305767E+02</pdfrwt>
<totfact> 0.12533755E+06</totfact>
</mgrwt>
</event>
<event>
 4    1  0.4261729E-001  0.6475095E+02  0.7818608E-02  0.1378911E+00
          1   -1    0    0  501    0  0.00000000000E+00  0.00000000000E+00  0.45743355565E+02  0.45743355803E+02  0.46700000000E-02 0. -1.
         -1   -1    0    0    0  501 -0.00000000000E+00 -0.00000000000E+00 -0.22914178643E+02  0.22914179118E+02  0.46700000000E-02 0.  1.
        -13    1    1    2    0    0 -0.10383253355E+02 -0.26186553597E+02  0.28333877451E+02  0.39954565739E+02  0.10570000000E+00 0. -1.
         13    1    1    2    0    0  0.10383253355E+02  0.26186553597E+02 -0.55047005287E+01  0.28702969183E+02  0.10570000000E+00 0.  1.
<mgrwt>
<rscale>  0 0.64750952E+02</rscale>
<asrwt>0</asrwt>
<pdfrwt beam="1">  1        1 0.70374393E-02 0.64750952E+02</pdfrwt>
<pdfrwt beam="2">  1       -1 0.35252583E-02 0.64750952E+02</pdfrwt>
<totfact> 0.23551567E+05</totfact>
</mgrwt>
</event>
<event>
 4    1  0.4261729E-001  0.3448286E+02  0.7818608E-02  0.1553241E+00
         -1   -1    0    0    0  501 -0.00000000000E+00  0.00000000000E+00  0.15595174199E+01  0.15595244121E+01  0.46700000000E-02 0. -1.
          1   -1    0    0  501    0  0.00000000000E+00 -0.00000000000E+00 -0.19061419675E+03  0.19061419681E+03  0.46700000000E-02 0.  1.
        -13    1    1    2    0    0  0.14995380112E+02  0.84944421187E+01 -0.91804568575E+02  0.93408280979E+02  0.10570000000E+00 0. -1.
         13    1    1    2    0    0 -0.14995380112E+02 -0.84944421187E+01 -0.97250110755E+02  0.98765440240E+02  0.10570000000E+00 0.  1.
<mgrwt>
<rscale>  0 0.34482856E+02</rscale>
<asrwt>0</asrwt>
<pdfrwt beam="2">  1        1 0.29325243E-01 0.34482856E+02</pdfrwt>
<pdfrwt beam="1">  1       -1 0.23992645E-03 0.34482856E+02</pdfrwt>
<totfact> 0.13839742E+06</totfact>
</mgrwt>
</event>
<event>
 4    1  0.4261729E-001  0.3524196E+02  0.7818608E-02  0.1546462E+00
         -1   -1    0    0    0  501 -0.00000000000E+00  0.00000000000E+00  0.14505988684E+03  0.14505988692E+03  0.46700000000E-02 0. -1.
          1   -1    0    0  501    0  0.00000000000E+00 -0.00000000000E+00 -0.21404854576E+01  0.21404905520E+01  0.46700000000E-02 0.  1.
        -13    1    1    2    0    0  0.80883112245E+01 -0.14934950732E+02  0.51862192957E+02  0.54572628328E+02  0.10570000000E+00 0.  1.
         13    1    1    2    0    0 -0.80883112245E+01  0.14934950732E+02  0.91057208427E+02  0.92627749141E+02  0.10570000000E+00 0. -1.
<mgrwt>
<rscale>  0 0.35241961E+02</rscale>
<asrwt>0</asrwt>
<pdfrwt beam="2">  1        1 0.32930580E-03 0.35241961E+02</pdfrwt>
<pdfrwt beam="1">  1       -1 0.22316910E-01 0.35241961E+02</pdfrwt>
<totfact> 0.81162418E+05</totfact>
</mgrwt>
</event>
<event>
 4    1  0.4261729E-001  0.8154617E+02  0.7818608E-02  0.1324720E+00
         -1   -1    0    0    0  501 -0.00000000000E+00  0.00000000000E+00  0.18465984178E+02  0.18465984769E+02  0.46700000000E-02 0.  1.
          1   -1    0    0  501    0  0.00000000000E+00 -0.00000000000E+00 -0.90027397368E+02  0.90027397489E+02  0.46700000000E-02 0. -1.
        -13    1    1    2    0    0 -0.21012519679E+02 -0.39746197159E+01 -0.81966985673E+02  0.84710810986E+02  0.10570000000E+00 0. -1.
         13    1    1    2    0    0  0.21012519679E+02  0.39746197159E+01  0.10405572483E+02  0.23782571272E+02  0.10570000000E+00 0.  1.
<mgrwt>
<rscale>  0 0.81546172E+02</rscale>
<asrwt>0</asrwt>
<pdfrwt beam="2">  1        1 0.13850369E-01 0.81546172E+02</pdfrwt>
<pdfrwt beam="1">  1       -1 0.28409207E-02 0.81546172E+02</pdfrwt>
<totfact> 0.13897694E+05</totfact>
</mgrwt>
</event>
<event>
 4    1  0.4261729E-001  0.3877346E+02  0.7818608E-02  0.1517436E+00
          1   -1    0    0  501    0  0.00000000000E+00  0.00000000000E+00  0.28111349423E+02  0.28111349811E+02  0.46700000000E-02 0.  1.
         -1   -1    0    0    0  501 -0.00000000000E+00 -0.00000000000E+00 -0.13369875459E+02  0.13369876275E+02  0.46700000000E-02 0. -1.
        -13    1    1    2    0    0  0.74368553252E+01 -0.17377171423E+02  0.27615964628E+01  0.19102630481E+02  0.10570000000E+00 0.  1.
         13    1    1    2    0    0 -0.74368553252E+01  0.17377171423E+02  0.11979877501E+02  0.22378595604E+02  0.10570000000E+00 0. -1.
<mgrwt>
<rscale>  0 0.38773458E+02</rscale>
<asrwt>0</asrwt>
<pdfrwt beam="1">  1        1 0.43248230E-02 0.38773458E+02</pdfrwt>
<pdfrwt beam="2">  1       -1 0.20569040E-02 0.38773458E+02</pdfrwt>
<totfact> 0.84327973E+05</totfact>
</mgrwt>
</event>
<event>
 4    1  0.4261729E-001  0.3264288E+02  0.7818608E-02  0.1570587E+00
         -1   -1    0    0    0  501 -0.00000000000E+00  0.00000000000E+00  0.37553626716E+01  0.37553655753E+01  0.46700000000E-02 0.  1.
          1   -1    0    0  501    0  0.00000000000E+00 -0.00000000000E+00 -0.70935707502E+02  0.70935707655E+02  0.46700000000E-02 0. -1.
        -13    1    1    2    0    0  0.13450885042E+02  0.33366780816E+01 -0.53315705298E+02  0.55087524295E+02  0.10570000000E+00 0. -1.
         13    1    1    2    0    0 -0.13450885042E+02 -0.33366780816E+01 -0.13864639532E+02  0.19603548936E+02  0.10570000000E+00 0.  1.
<mgrwt>
<rscale>  0 0.32642881E+02</rscale>
<asrwt>0</asrwt>
<pdfrwt beam="2">  1        1 0.10913185E-01 0.32642881E+02</pdfrwt>
<pdfrwt beam="1">  1       -1 0.57774839E-03 0.32642881E+02</pdfrwt>
<totfact> 0.13849381E+06</totfact>
</mgrwt>
</event>
<event>
 4    1  0.4261729E-001  0.2530658E+02  0.7818608E-02  0.1656637E+00
          1   -1    0    0  501    0  0.00000000000E+00  0.00000000000E+00  0.30643692705E+01  0.30643728290E+01  0.46700000000E-02 0. -1.
         -1   -1    0    0    0  501 -0.00000000000E+00 -0.00000000000E+00 -0.52247520950E+02  0.52247521159E+02  0.46700000000E-02 0.  1.
        -13    1    1    2    0    0 -0.10851264390E+01  0.11419327644E+02 -0.12919987593E+02  0.17277609648E+02  0.10570000000E+00 0. -1.
         13    1    1    2    0    0  0.10851264390E+01 -0.11419327644E+02 -0.36263164086E+02  0.38034284340E+02  0.10570000000E+00 0.  1.
<mgrwt>
<rscale>  0 0.25306584E+02</rscale>
<asrwt>0</asrwt>
<pdfrwt beam="1">  1        1 0.47144175E-03 0.25306584E+02</pdfrwt>
<pdfrwt beam="2">  1       -1 0.80380798E-02 0.25306584E+02</pdfrwt>
<totfact> 0.20521117E+06</totfact>
</mgrwt>
</event>
<event>
 4    1  0.4261729E-001  0.1111697E+03  0.7818608E-02  0.1258419E+00
          1   -1    0    0  501    0  0.00000000000E+00  0.00000000000E+00  0.17529199456E+03  0.17529199463E+03  0.46700000000E-02 0. -1.
         -1   -1    0    0    0  501 -0.00000000000E+00 -0.00000000000E+00 -0.17625891242E+02  0.17625891861E+02  0.46700000000E-02 0.  1.
        -13    1    1    2    0    0  0.21616191762E+02 -0.47836673843E+02  0.11055046548E+03  0.12238065084E+03  0.10570000000E+00 0.  1.
         13    1    1    2    0    0 -0.21616191762E+02  0.47836673843E+02  0.47115637847E+02  0.70537235648E+02  0.10570000000E+00 0. -1.
<mgrwt>
<rscale>  0 0.11116974E+03</rscale>
<asrwt>0</asrwt>
<pdfrwt beam="1">  1        1 0.26967998E-01 0.11116974E+03</pdfrwt>
<pdfrwt beam="2">  1       -1 0.27116758E-02 0.11116974E+03</pdfrwt>
<totfact> 0.67314318E+04</totfact>
</mgrwt>
</event>
<event>
 4    1  0.4261729E-001  0.2598455E+02  0.7818608E-02  0.1647250E+00
         -1   -1    0    0    0  501 -0.00000000000E+00  0.00000000000E+00  0.11971827519E+01  0.11971918603E+01  0.46700000000E-02 0.  1.
          1   -1    0    0  501    0  0.00000000000E+00 -0.00000000000E+00 -0.14099649013E+03  0.14099649020E+03  0.46700000000E-02 0. -1.
        -13    1    1    2    0    0  0.12965223105E+02 -0.21375927024E+00 -0.65503624717E+02  0.66774836030E+02  0.10570000000E+00 0. -1.
         13    1    1    2    0    0 -0.12965223105E+02  0.21375927024E+00 -0.74295682658E+02  0.75418846035E+02  0.10570000000E+00 0.  1.
<mgrwt>
<rscale>  0 0.25984551E+02</rscale>
<asrwt>0</asrwt>
<pdfrwt beam="2">  1        1 0.21691755E-01 0.25984551E+02</pdfrwt>
<pdfrwt beam="1">  1       -1 0.18418278E-03 0.25984551E+02</pdfrwt>
<totfact> 0.25669117E+06</totfact>
</mgrwt>
</event>
<event>
 4    1  0.4261729E-001  0.2546323E+02  0.7818608E-02  0.1654436E+00
          1   -1    0    0  501    0  0.00000000000E+00  0.00000000000E+00  0.41071192651E+01  0.41071219201E+01  0.46700000000E-02 0. -1.
         -1   -1    0    0    0  501 -0.00000000000E+00 -0.00000000000E+00 -0.39466569672E+02  0.39466569948E+02  0.46700000000E-02 0.  1.
        -13    1    1    2    0    0 -0.10613871706E+02 -0.63505511091E+01 -0.12517838948E+02  0.17598046380E+02  0.10570000000E+00 0. -1.
         13    1    1    2    0    0  0.10613871706E+02  0.63505511091E+01 -0.22841611459E+02  0.25975645488E+02  0.10570000000E+00 0.  1.
<mgrwt>
<rscale>  0 0.25463226E+02</rscale>
<asrwt>0</asrwt>
<pdfrwt beam="1">  1        1 0.63186476E-03 0.25463226E+02</pdfrwt>
<pdfrwt beam="2">  1       -1 0.60717799E-02 0.25463226E+02</pdfrwt>
<totfact> 0.20778268E+06</totfact>
</mgrwt>
</event>
<event>
 4    1  0.4261729E-001  0.4750547E+02  0.7818608E-02  0.1459280E+00
         -1   -1    0    0    0  501 -0.00000000000E+00  0.00000000000E+00  0.11678595214E+02  0.11678596148E+02  0.46700000000E-02 0. -1.
          1   -1    0    0  501    0  0.00000000000E+00 -0.00000000000E+00 -0.48309950951E+02  0.48309951177E+02  0.46700000000E-02 0.  1.
        -13    1    1    2    0    0 -0.13212191188E+02 -0.18015406941E+02 -0.28501503861E+02  0.36214137821E+02  0.10570000000E+00 0.  1.
         13    1    1    2    0    0  0.13212191188E+02  0.18015406941E+02 -0.81298518764E+01  0.23774409504E+02  0.10570000000E+00 0. -1.
<mgrwt>
<rscale>  0 0.47505469E+02</rscale>
<asrwt>0</asrwt>
<pdfrwt beam="2">  1        1 0.74323002E-02 0.47505469E+02</pdfrwt>
<pdfrwt beam="1">  1       -1 0.17967071E-02 0.47505469E+02</pdfrwt>
<totfact> 0.52933086E+05</totfact>
</mgrwt>
</event>
<event>
 4    1  0.4261729E-001  0.3470364E+02  0.7818608E-02  0.1551248E+00
          1   -1    0    0  501    0  0.00000000000E+00  0.00000000000E+00  0.94201273757E+01  0.94201285333E+01  0.46700000000E-02 0. -1.
         -1   -1    0    0    0  501 -0.00000000000E+00 -0.00000000000E+00 -0.31961941771E+02  0.31961942113E+02  0.46700000000E-02 0.  1.
        -13    1    1    2    0    0 -0.73219280430E+01 -0.12511224119E+02 -0.22641893640E+02  0.26885086560E+02  0.10570000000E+00 0.  1.
         13    1    1    2    0    0  0.73219280430E+01  0.12511224119E+02  0.10007924483E+00  0.14496984086E+02  0.10570000000E+00 0. -1.
<mgrwt>
<rscale>  0 0.34703636E+02</rscale>
<asrwt>0</asrwt>
<pdfrwt beam="1">  1        1 0.14492505E-02 0.34703636E+02</pdfrwt>
<pdfrwt beam="2">  1       -1 0.49172219E-02 0.34703636E+02</pdfrwt>
<totfact> 0.10289828E+06</totfact>
</mgrwt>
</event>
<event>
 4    1  0.4261729E-001  0.2034066E+02  0.7818608E-02  0.1738637E+00
         -1   -1    0    0    0  501 -0.00000000000E+00  0.00000000000E+00  0.17328775449E+02  0.17328776078E+02  0.46700000000E-02 0. -1.
          1   -1    0    0  501    0  0.00000000000E+00 -0.00000000000E+00 -0.59690093886E+01  0.59690112154E+01  0.46700000000E-02 0.  1.
        -13    1    1    2    0    0 -0.59946911037E+01 -0.82067575516E+01  0.61042745291E+01  0.11855822660E+02  0.10570000000E+00 0. -1.
         13    1    1    2    0    0  0.59946911037E+01  0.82067575516E+01  0.52554915309E+01  0.11441964633E+02  0.10570000000E+00 0.  1.
<mgrwt>
<rscale>  0 0.20340664E+02</rscale>
<asrwt>0</asrwt>
<pdfrwt beam="2">  1        1 0.91830931E-03 0.20340664E+02</pdfrwt>
<pdfrwt beam="1">  1       -1 0.26659657E-02 0.20340664E+02</pdfrwt>
<totfact> 0.36322314E+06</totfact>
</mgrwt>
</event>
<event>
 4    1  0.4261729E-001  0.2336066E+02  0.7818608E-02  0.1685730E+00
          1   -1    0    0  501    0  0.00000000000E+00  0.00000000000E+00  0.15312099903E+01  0.15312171117E+01  0.46700000000E-02 0. -1.
         -1   -1    0    0    0  501 -0.00000000000E+00 -0.00000000000E+00 -0.89099302190E+02  0.89099302312E+02  0.46700000000E-02 0.  1.
        -13    1    1    2    0    0 -0.46045209582E+00 -0.11450355737E+02 -0.52542231530E+02  0.53777503933E+02  0.10570000000E+00 0.  1.
         13    1    1    2    0    0  0.46045209582E+00  0.11450355737E+02 -0.35025860670E+02  0.36853015491E+02  0.10570000000E+00 0. -1.
<mgrwt>
<rscale>  0 0.23360657E+02</rscale>
<asrwt>0</asrwt>
<pdfrwt beam="1">  1        1 0.23557140E-03 0.23360657E+02</pdfrwt>
<pdfrwt beam="2">  1       -1 0.13707581E-01 0.23360657E+02</pdfrwt>
<totfact> 0.22994299E+06</totfact>
</mgrwt>
</event>
<event>
 4    1  0.4261729E-001  0.2693829E+02  0.7818608E-02  0.1634627E+00
          1   -1    0    0  501    0  0.00000000000E+00  0.00000000000E+00  0.17782927378E+02  0.17782927991E+02  0.46700000000E-02 0. -1.
         -1   -1    0    0    0  501 -0.00000000000E+00 -0.00000000000E+00 -0.10201802369E+02  0.10201803437E+02  0.46700000000E-02 0.  1.
        -13    1    1    2    0    0 -0.96561344482E+01 -0.79720825577E+01  0.89442977015E+01  0.15388523862E+02  0.10570000000E+00 0. -1.
         13    1    1    2    0    0  0.96561344482E+01  0.79720825577E+01 -0.13631726919E+01  0.12596207567E+02  0.10570000000E+00 0.  1.
<mgrwt>
<rscale>  0 0.26938295E+02</rscale>
<asrwt>0</asrwt>
<pdfrwt beam="1">  1        1 0.27358351E-02 0.26938295E+02</pdfrwt>
<pdfrwt beam="2">  1       -1 0.15695082E-02 0.26938295E+02</pdfrwt>
<totfact> 0.19867526E+06</totfact>
</mgrwt>
</event>
<event>
 4    1  0.4261729E-001  0.5470704E+02  0.7818608E-02  0.1421489E+00
          1   -1    0    0  501    0  0.00000000000E+00  0.00000000000E+00  0.92848173461E+02  0.92848173578E+02  0.46700000000E-02 0.  1.
         -1   -1    0    0    0  501 -0.00000000000E+00 -0.00000000000E+00 -0.80584795985E+01  0.80584809517E+01  0.46700000000E-02 0. -1.
        -13    1    1    2    0    0 -0.48242602192E+01 -0.26565847630E+02  0.50474110703E+02  0.57242159033E+02  0.10570000000E+00 0.  1.
         13    1    1    2    0    0  0.48242602192E+01  0.26565847630E+02  0.34315583159E+02  0.43664495497E+02  0.10570000000E+00 0. -1.
<mgrwt>
<rscale>  0 0.54707045E+02</rscale>
<asrwt>0</asrwt>
<pdfrwt beam="1">  1        1 0.14284335E-01 0.54707045E+02</pdfrwt>
<pdfrwt beam="2">  1       -1 0.12397661E-02 0.54707045E+02</pdfrwt>
<totfact> 0.39779223E+05</totfact>
</mgrwt>
</event>
<event>
 4    1  0.4261729E-001  0.3094119E+02  0.7818608E-02  0.1587912E+00
          1   -1    0    0  501    0  0.00000000000E+00  0.00000000000E+00  0.86459179195E+02  0.86459179322E+02  0.46700000000E-02 0.  1.
         -1   -1    0    0    0  501 -0.00000000000E+00 -0.00000000000E+00 -0.27682332787E+01  0.27682372179E+01  0.46700000000E-02 0. -1.
        -13    1    1    2    0    0  0.11079652614E+02  0.89281901482E+01  0.59352834125E+02  0.61034755448E+02  0.10570000000E+00 0.  1.
         13    1    1    2    0    0 -0.11079652614E+02 -0.89281901482E+01  0.24338111791E+02  0.28192661092E+02  0.10570000000E+00 0. -1.
<mgrwt>
<rscale>  0 0.30941193E+02</rscale>
<asrwt>0</asrwt>
<pdfrwt beam="1">  1        1 0.13301412E-01 0.30941193E+02</pdfrwt>
<pdfrwt beam="2">  1       -1 0.42588236E-03 0.30941193E+02</pdfrwt>
<totfact> 0.16066734E+06</totfact>
</mgrwt>
</event>
<event>
 4    1  0.4261729E-001  0.5079129E+02  0.7818608E-02  0.1441120E+00
         -1   -1    0    0    0  501 -0.00000000000E+00  0.00000000000E+00  0.62361491311E+01  0.62361508797E+01  0.46700000000E-02 0.  1.
          1   -1    0    0  501    0  0.00000000000E+00 -0.00000000000E+00 -0.10341939311E+03  0.10341939322E+03  0.46700000000E-02 0. -1.
        -13    1    1    2    0    0  0.15800958333E+02 -0.14804824028E+02 -0.77239315865E+02  0.80217056706E+02  0.10570000000E+00 0. -1.
         13    1    1    2    0    0 -0.15800958333E+02  0.14804824028E+02 -0.19943928116E+02  0.29438487392E+02  0.10570000000E+00 0.  1.
<mgrwt>
<rscale>  0 0.50791293E+02</rscale>
<asrwt>0</asrwt>
<pdfrwt beam="2">  1        1 0.15910675E-01 0.50791293E+02</pdfrwt>
<pdfrwt beam="1">  1       -1 0.95940778E-03 0.50791293E+02</pdfrwt>
<totfact> 0.48750783E+05</totfact>
</mgrwt>
</event>
<event>
 4    1  0.4261729E-001  0.2651804E+02  0.7818608E-02  0.1640109E+00
         -1   -1    0    0    0  501 -0.00000000000E+00  0.00000000000E+00  0.67430958350E+01  0.67430974521E+01  0.46700000000E-02 0.  1.
          1   -1    0    0  501    0  0.00000000000E+00 -0.00000000000E+00 -0.26071336157E+02  0.26071336575E+02  0.46700000000E-02 0. -1.
        -13    1    1    2    0    0 -0.63556904672E+01 -0.11506401069E+02 -0.11806823278E+02  0.17669304324E+02  0.10570000000E+00 0. -1.
         13    1    1    2    0    0  0.63556904672E+01  0.11506401069E+02 -0.75214170437E+01  0.15145129703E+02  0.10570000000E+00 0.  1.
<mgrwt>
<rscale>  0 0.26518035E+02</rscale>
<asrwt>0</asrwt>
<pdfrwt beam="2">  1        1 0.40109749E-02 0.26518035E+02</pdfrwt>
<pdfrwt beam="1">  1       -1 0.10373995E-02 0.26518035E+02</pdfrwt>
<totfact> 0.21037321E+06</totfact>
</mgrwt>
</event>
<event>
 4    1  0.4261729E-001  0.2368290E+02  0.7818608E-02  0.1680674E+00
         -1   -1    0    0    0  501 -0.00000000000E+00  0.00000000000E+00  0.62662573937E+02  0.62662574111E+02  0.46700000000E-02 0. -1.
          1   -1    0    0  501    0  0.00000000000E+00 -0.00000000000E+00 -0.22376950191E+01  0.22376998921E+01  0.46700000000E-02 0.  1.
        -13    1    1    2    0    0  0.10634260446E+02  0.48529448881E+01  0.35390355975E+02  0.37270994592E+02  0.10570000000E+00 0. -1.
         13    1    1    2    0    0 -0.10634260446E+02 -0.48529448881E+01  0.25034522942E+02  0.27629279411E+02  0.10570000000E+00 0.  1.
<mgrwt>
<rscale>  0 0.23682896E+02</rscale>
<asrwt>0</asrwt>
<pdfrwt beam="2">  1        1 0.34426121E-03 0.23682896E+02</pdfrwt>
<pdfrwt beam="1">  1       -1 0.96403950E-02 0.23682896E+02</pdfrwt>
<totfact> 0.23378012E+06</totfact>
</mgrwt>
</event>
<event>
 4    1  0.4261729E-001  0.2218327E+02  0.7818608E-02  0.1705102E+00
         -1   -1    0    0    0  501 -0.00000000000E+00  0.00000000000E+00  0.34890825697E+02  0.34890826010E+02  0.46700000000E-02 0. -1.
          1   -1    0    0  501    0  0.00000000000E+00 -0.00000000000E+00 -0.35259771486E+01  0.35259802412E+01  0.46700000000E-02 0.  1.
        -13    1    1    2    0    0 -0.14223153079E+01  0.10225059561E+02  0.86610110504E+01  0.13475871355E+02  0.10570000000E+00 0.  1.
         13    1    1    2    0    0  0.14223153079E+01 -0.10225059561E+02  0.22703837498E+02  0.24940934896E+02  0.10570000000E+00 0. -1.
<mgrwt>
<rscale>  0 0.22183266E+02</rscale>
<asrwt>0</asrwt>
<pdfrwt beam="2">  1        1 0.54245829E-03 0.22183266E+02</pdfrwt>
<pdfrwt beam="1">  1       -1 0.53678195E-02 0.22183266E+02</pdfrwt>
<totfact> 0.28663405E+06</totfact>
</mgrwt>
</event>
<event>
 4    1  0.4261729E-001  0.3046333E+02  0.7818608E-02  0.1593023E+00
          1   -1    0    0  501    0  0.00000000000E+00  0.00000000000E+00  0.84614044715E+02  0.84614044844E+02  0.46700000000E-02 0. -1.
         -1   -1    0    0    0  501 -0.00000000000E+00 -0.00000000000E+00 -0.27419026594E+01  0.27419066364E+01  0.46700000000E-02 0.  1.
        -13    1    1    2    0    0  0.14070930756E+02  0.22773966928E+01  0.56329071940E+02  0.58104674047E+02  0.10570000000E+00 0. -1.
         13    1    1    2    0    0 -0.14070930756E+02 -0.22773966928E+01  0.25543070116E+02  0.29251277433E+02  0.10570000000E+00 0.  1.
<mgrwt>
<rscale>  0 0.30463332E+02</rscale>
<asrwt>0</asrwt>
<pdfrwt beam="1">  1        1 0.13017544E-01 0.30463332E+02</pdfrwt>
<pdfrwt beam="2">  1       -1 0.42183156E-03 0.30463332E+02</pdfrwt>
<totfact> 0.16630795E+06</totfact>
</mgrwt>
</event>
<event>
 4    1  0.4261729E-001  0.2691114E+02  0.7818608E-02  0.1634978E+00
         -1   -1    0    0    0  501 -0.00000000000E+00  0.00000000000E+00  0.52769793762E+02  0.52769793969E+02  0.46700000000E-02 0. -1.
          1   -1    0    0  501    0  0.00000000000E+00 -0.00000000000E+00 -0.34309818007E+01  0.34309849789E+01  0.46700000000E-02 0.  1.
        -13    1    1    2    0    0  0.10161227221E+02 -0.76608843334E+01  0.33796727360E+02  0.36113288969E+02  0.10570000000E+00 0. -1.
         13    1    1    2    0    0 -0.10161227221E+02  0.76608843334E+01  0.15542084602E+02  0.20087489979E+02  0.10570000000E+00 0.  1.
<mgrwt>
<rscale>  0 0.26911135E+02</rscale>
<asrwt>0</asrwt>
<pdfrwt beam="2">  1        1 0.52784363E-03 0.26911135E+02</pdfrwt>
<pdfrwt beam="1">  1       -1 0.81184299E-02 0.26911135E+02</pdfrwt>
<totfact> 0.17806601E+06</totfact>
</mgrwt>
</event>
<event>
 4    1  0.4261729E-001  0.2952451E+02  0.7818608E-02  0.1603405E+00
         -1   -1    0    0    0  501 -0.00000000000E+00  0.00000000000E+00  0.12078194129E+02  0.12078195032E+02  0.46700000000E-02 0. -1.
          1   -1    0    0  501    0  0.00000000000E+00 -0.00000000000E+00 -0.18042774170E+02  0.18042774774E+02  0.46700000000E-02 0.  1.
        -13    1    1    2    0    0 -0.11806702361E+02  0.49363880108E+01  0.45248203189E+01  0.13573920534E+02  0.10570000000E+00 0. -1.
         13    1    1    2    0    0  0.11806702361E+02 -0.49363880108E+01 -0.10489400359E+02  0.16547049273E+02  0.10570000000E+00 0.  1.
<mgrwt>
<rscale>  0 0.29524509E+02</rscale>
<asrwt>0</asrwt>
<pdfrwt beam="2">  1        1 0.27758115E-02 0.29524509E+02</pdfrwt>
<pdfrwt beam="1">  1       -1 0.18581838E-02 0.29524509E+02</pdfrwt>
<totfact> 0.15978342E+06</totfact>
</mgrwt>
</event>
<event>
 4    1  0.4261729E-001  0.8881906E+02  0.7818608E-02  0.1305737E+00
          1   -1    0    0  501    0  0.00000000000E+00  0.00000000000E+00  0.55689914582E+02  0.55689914777E+02  0.46700000000E-02 0. -1.
         -1   -1    0    0    0  501 -0.00000000000E+00 -0.00000000000E+00 -0.35414069773E+02  0.35414070081E+02  0.46700000000E-02 0.  1.
        -13    1    1    2    0    0  0.38719401471E+00 -0.28836409219E+02  0.44778103115E+02  0.53261412926E+02  0.10570000000E+00 0. -1.
         13    1    1    2    0    0 -0.38719401471E+00  0.28836409219E+02 -0.24502258307E+02  0.37842571932E+02  0.10570000000E+00 0.  1.
<mgrwt>
<rscale>  0 0.88819064E+02</rscale>
<asrwt>0</asrwt>
<pdfrwt beam="1">  1        1 0.85676792E-02 0.88819064E+02</pdfrwt>
<pdfrwt beam="2">  1       -1 0.54483185E-02 0.88819064E+02</pdfrwt>
<totfact> 0.10247763E+05</totfact>
</mgrwt>
</event>
<event>
 4    1  0.4261729E-001  0.5034118E+02  0.7818608E-02  0.1443510E+00
         -1   -1    0    0    0  501 -0.00000000000E+00  0.00000000000E+00  0.20955621312E+02  0.20955621832E+02  0.46700000000E-02 0. -1.
          1   -1    0    0  501    0  0.00000000000E+00 -0.00000000000E+00 -0.30233346708E+02  0.30233347069E+02  0.46700000000E-02 0.  1.
        -13    1    1    2    0    0 -0.17014029092E+02  0.16362045279E+02 -0.13524079871E+02  0.27204882292E+02  0.10570000000E+00 0.  1.
         13    1    1    2    0    0  0.17014029092E+02 -0.16362045279E+02  0.42463544750E+01  0.23984086609E+02  0.10570000000E+00 0. -1.
<mgrwt>
<rscale>  0 0.50341179E+02</rscale>
<asrwt>0</asrwt>
<pdfrwt beam="2">  1        1 0.46512842E-02 0.50341179E+02</pdfrwt>
<pdfrwt beam="1">  1       -1 0.32239418E-02 0.50341179E+02</pdfrwt>
<totfact> 0.43714093E+05</totfact>
</mgrwt>
</event>
<event>
 4    1  0.4261729E-001  0.2939248E+02  0.7818608E-02  0.1604903E+00
         -1   -1    0    0    0  501 -0.00000000000E+00  0.00000000000E+00  0.67228987812E+01  0.67229004032E+01  0.46700000000E-02 0.  1.
          1   -1    0    0  501    0  0.00000000000E+00 -0.00000000000E+00 -0.32125947856E+02  0.32125948195E+02  0.46700000000E-02 0. -1.
        -13    1    1    2    0    0  0.83351506739E+01 -0.11870308935E+02 -0.95767112265E+01  0.17381126010E+02  0.10570000000E+00 0. -1.
         13    1    1    2    0    0 -0.83351506739E+01  0.11870308935E+02 -0.15826337848E+02  0.21467722588E+02  0.10570000000E+00 0.  1.
<mgrwt>
<rscale>  0 0.29392484E+02</rscale>
<asrwt>0</asrwt>
<pdfrwt beam="2">  1        1 0.49424536E-02 0.29392484E+02</pdfrwt>
<pdfrwt beam="1">  1       -1 0.10342923E-02 0.29392484E+02</pdfrwt>
<totfact> 0.16701537E+06</totfact>
</mgrwt>
</event>
<event>
 4    1  0.4261729E-001  0.2097807E+02  0.7818608E-02  0.1726549E+00
          1   -1    0    0  501    0  0.00000000000E+00  0.00000000000E+00  0.99120083606E+01  0.99120094607E+01  0.46700000000E-02 0. -1.
         -1   -1    0    0    0  501 -0.00000000000E+00 -0.00000000000E+00 -0.11099650892E+02  0.11099651874E+02  0.46700000000E-02 0.  1.
        -13    1    1    2    0    0  0.32233984454E+01  0.96378956914E+01  0.20044318242E+01  0.10358969559E+02  0.10570000000E+00 0.  1.
         13    1    1    2    0    0 -0.32233984454E+01 -0.96378956914E+01 -0.31920743555E+01  0.10652691776E+02  0.10570000000E+00 0. -1.
<mgrwt>
<rscale>  0 0.20978070E+02</rscale>
<asrwt>0</asrwt>
<pdfrwt beam="1">  1        1 0.15249245E-02 0.20978070E+02</pdfrwt>
<pdfrwt beam="2">  1       -1 0.17076388E-02 0.20978070E+02</pdfrwt>
<totfact> 0.34627685E+06</totfact>
</mgrwt>
</event>
<event>
 4    1  0.4261729E-001  0.2277180E+02  0.7818608E-02  0.1695236E+00
          1   -1    0    0  501    0  0.00000000000E+00  0.00000000000E+00  0.11004034870E+02  0.11004035861E+02  0.46700000000E-02 0.  1.
         -1   -1    0    0    0  501 -0.00000000000E+00 -0.00000000000E+00 -0.11781019163E+02  0.11781020089E+02  0.46700000000E-02 0. -1.
        -13    1    1    2    0    0 -0.30985808472E+01 -0.10722440037E+02 -0.26382826379E+01  0.11469247202E+02  0.10570000000E+00 0. -1.
         13    1    1    2    0    0  0.30985808472E+01  0.10722440037E+02  0.18612983449E+01  0.11315808748E+02  0.10570000000E+00 0.  1.
<mgrwt>
<rscale>  0 0.22771804E+02</rscale>
<asrwt>0</asrwt>
<pdfrwt beam="1">  1        1 0.16929286E-02 0.22771804E+02</pdfrwt>
<pdfrwt beam="2">  1       -1 0.18124646E-02 0.22771804E+02</pdfrwt>
<totfact> 0.28791430E+06</totfact>
</mgrwt>
</event>
<event>
 4    1  0.4261729E-001  0.4180153E+02  0.7818608E-02  0.1495358E+00
         -1   -1    0    0    0  501 -0.00000000000E+00  0.00000000000E+00  0.10869170734E+02  0.10869171737E+02  0.46700000000E-02 0. -1.
          1   -1    0    0  501    0  0.00000000000E+00 -0.00000000000E+00 -0.40190925044E+02  0.40190925315E+02  0.46700000000E-02 0.  1.
        -13    1    1    2    0    0  0.37806772726E+01 -0.19481381321E+02 -0.66498163310E+01  0.20929619408E+02  0.10570000000E+00 0. -1.
         13    1    1    2    0    0 -0.37806772726E+01  0.19481381321E+02 -0.22671937979E+02  0.30130477644E+02  0.10570000000E+00 0.  1.
<mgrwt>
<rscale>  0 0.41801534E+02</rscale>
<asrwt>0</asrwt>
<pdfrwt beam="2">  1        1 0.61832193E-02 0.41801534E+02</pdfrwt>
<pdfrwt beam="1">  1       -1 0.16721802E-02 0.41801534E+02</pdfrwt>
<totfact> 0.71871608E+05</totfact>
</mgrwt>
</event>
<event>
 4    1  0.4261729E-001  0.5408817E+02  0.7818608E-02  0.1424461E+00
          1   -1    0    0  501    0  0.00000000000E+00  0.00000000000E+00  0.37384939001E+02  0.37384939292E+02  0.46700000000E-02 0.  1.
         -1   -1    0    0    0  501 -0.00000000000E+00 -0.00000000000E+00 -0.19563560010E+02  0.19563560567E+02  0.46700000000E-02 0. -1.
        -13    1    1    2    0    0  0.18824975980E+02  0.30860970794E+01  0.29093867485E+02  0.34790343683E+02  0.10570000000E+00 0.  1.
         13    1    1    2    0    0 -0.18824975980E+02 -0.30860970794E+01 -0.11272488495E+02  0.22158156177E+02  0.10570000000E+00 0. -1.
<mgrwt>
<rscale>  0 0.54088170E+02</rscale>
<asrwt>0</asrwt>
<pdfrwt beam="1">  1        1 0.57515291E-02 0.54088170E+02</pdfrwt>
<pdfrwt beam="2">  1       -1 0.30097786E-02 0.54088170E+02</pdfrwt>
<totfact> 0.37008946E+05</totfact>
</mgrwt>
</event>
<event>
 4    1  0.4261729E-001  0.2601670E+02  0.7818608E-02  0.1646814E+00
          1   -1    0    0  501    0  0.00000000000E+00  0.00000000000E+00  0.98967826342E+01  0.98967837361E+01  0.46700000000E-02 0. -1.
         -1   -1    0    0    0  501 -0.00000000000E+00 -0.00000000000E+00 -0.17098194503E+02  0.17098195141E+02  0.46700000000E-02 0.  1.
        -13    1    1    2    0    0 -0.26397498798E+01 -0.10114788623E+02  0.44317506452E+01  0.11354682496E+02  0.10570000000E+00 0. -1.
         13    1    1    2    0    0  0.26397498798E+01  0.10114788623E+02 -0.11633162514E+02  0.15640296381E+02  0.10570000000E+00 0.  1.
<mgrwt>
<rscale>  0 0.26016698E+02</rscale>
<asrwt>0</asrwt>
<pdfrwt beam="1">  1        1 0.15225821E-02 0.26016698E+02</pdfrwt>
<pdfrwt beam="2">  1       -1 0.26304916E-02 0.26016698E+02</pdfrwt>
<totfact> 0.20935347E+06</totfact>
</mgrwt>
</event>
<event>
 4    1  0.4261729E-001  0.2509917E+02  0.7818608E-02  0.1659582E+00
          1   -1    0    0  501    0  0.00000000000E+00  0.00000000000E+00  0.21000910895E+02  0.21000911414E+02  0.46700000000E-02 0. -1.
         -1   -1    0    0    0  501 -0.00000000000E+00 -0.00000000000E+00 -0.74992981097E+01  0.74992995637E+01  0.46700000000E-02 0.  1.
        -13    1    1    2    0    0  0.39512480902E+01  0.11430401964E+02  0.29482246837E+01  0.12448680725E+02  0.10570000000E+00 0.  1.
         13    1    1    2    0    0 -0.39512480902E+01 -0.11430401964E+02  0.10553388102E+02  0.16051530252E+02  0.10570000000E+00 0. -1.
<mgrwt>
<rscale>  0 0.25099173E+02</rscale>
<asrwt>0</asrwt>
<pdfrwt beam="1">  1        1 0.32309095E-02 0.25099173E+02</pdfrwt>
<pdfrwt beam="2">  1       -1 0.11537383E-02 0.25099173E+02</pdfrwt>
<totfact> 0.23659662E+06</totfact>
</mgrwt>
</event>
<event>
 4    1  0.4261729E-001  0.5439957E+02  0.7818608E-02  0.1422960E+00
          1   -1    0    0  501    0  0.00000000000E+00  0.00000000000E+00  0.11926970292E+03  0.11926970301E+03  0.46700000000E-02 0. -1.
         -1   -1    0    0    0  501 -0.00000000000E+00 -0.00000000000E+00 -0.62029852003E+01  0.62029869583E+01  0.46700000000E-02 0.  1.
        -13    1    1    2    0    0 -0.14698060432E+02  0.19223551524E+02  0.85178513086E+02  0.88549241542E+02  0.10570000000E+00 0. -1.
         13    1    1    2    0    0  0.14698060432E+02 -0.19223551524E+02  0.27888204635E+02  0.36923448429E+02  0.10570000000E+00 0.  1.
<mgrwt>
<rscale>  0 0.54399571E+02</rscale>
<asrwt>0</asrwt>
<pdfrwt beam="1">  1        1 0.18349187E-01 0.54399571E+02</pdfrwt>
<pdfrwt beam="2">  1       -1 0.95430549E-03 0.54399571E+02</pdfrwt>
<totfact> 0.41796943E+05</totfact>
</mgrwt>
</event>
<event>
 4    1  0.4261729E-001  0.3318750E+02  0.7818608E-02  0.1565311E+00
         -1   -1    0    0    0  501 -0.00000000000E+00  0.00000000000E+00  0.65781698576E+01  0.65781715153E+01  0.46700000000E-02 0.  1.
          1   -1    0    0  501    0  0.00000000000E+00 -0.00000000000E+00 -0.41858521295E+02  0.41858521555E+02  0.46700000000E-02 0. -1.
        -13    1    1    2    0    0  0.13776150305E+02  0.71216062326E+01 -0.26255069267E+02  0.30493268556E+02  0.10570000000E+00 0. -1.
         13    1    1    2    0    0 -0.13776150305E+02 -0.71216062326E+01 -0.90252821705E+01  0.17943424514E+02  0.10570000000E+00 0.  1.
<mgrwt>
<rscale>  0 0.33187498E+02</rscale>
<asrwt>0</asrwt>
<pdfrwt beam="2">  1        1 0.64397725E-02 0.33187498E+02</pdfrwt>
<pdfrwt beam="1">  1       -1 0.10120263E-02 0.33187498E+02</pdfrwt>
<totfact> 0.12711915E+06</totfact>
</mgrwt>
</event>
<event>
 4    1  0.4261729E-001  0.2457094E+02  0.7818608E-02  0.1667242E+00
         -1   -1    0    0    0  501 -0.00000000000E+00  0.00000000000E+00  0.33637369971E+02  0.33637370295E+02  0.46700000000E-02 0. -1.
          1   -1    0    0  501    0  0.00000000000E+00 -0.00000000000E+00 -0.44870547325E+01  0.44870571627E+01  0.46700000000E-02 0.  1.
        -13    1    1    2    0    0  0.15714984008E+01 -0.11433544038E+02  0.21107782366E+02  0.24057123382E+02  0.10570000000E+00 0. -1.
         13    1    1    2    0    0 -0.15714984008E+01  0.11433544038E+02  0.80425328719E+01  0.14067304076E+02  0.10570000000E+00 0.  1.
<mgrwt>
<rscale>  0 0.24570940E+02</rscale>
<asrwt>0</asrwt>
<pdfrwt beam="2">  1        1 0.69031634E-03 0.24570940E+02</pdfrwt>
<pdfrwt beam="1">  1       -1 0.51749801E-02 0.24570940E+02</pdfrwt>
<totfact> 0.22832802E+06</totfact>
</mgrwt>
</event>
<event>
 4    1  0.4261729E-001  0.2658518E+02  0.7818608E-02  0.1639225E+00
         -1   -1    0    0    0  501 -0.00000000000E+00  0.00000000000E+00  0.23387333316E+01  0.23387379941E+01  0.46700000000E-02 0.  1.
          1   -1    0    0  501    0  0.00000000000E+00 -0.00000000000E+00 -0.75550630220E+02  0.75550630365E+02  0.46700000000E-02 0. -1.
        -13    1    1    2    0    0 -0.23912928596E+01 -0.11619442960E+02 -0.19038834380E+02  0.22432523783E+02  0.10570000000E+00 0.  1.
         13    1    1    2    0    0  0.23912928596E+01  0.11619442960E+02 -0.54173062508E+02  0.55456844575E+02  0.10570000000E+00 0. -1.
<mgrwt>
<rscale>  0 0.26585181E+02</rscale>
<asrwt>0</asrwt>
<pdfrwt beam="2">  1        1 0.11623172E-01 0.26585181E+02</pdfrwt>
<pdfrwt beam="1">  1       -1 0.35980556E-03 0.26585181E+02</pdfrwt>
<totfact> 0.22614348E+06</totfact>
</mgrwt>
</event>
<event>
 4    1  0.4261729E-001  0.3611113E+02  0.7818608E-02  0.1538949E+00
          1   -1    0    0  501    0  0.00000000000E+00  0.00000000000E+00  0.25590131803E+02  0.25590132230E+02  0.46700000000E-02 0. -1.
         -1   -1    0    0    0  501 -0.00000000000E+00 -0.00000000000E+00 -0.12739416488E+02  0.12739417344E+02  0.46700000000E-02 0.  1.
        -13    1    1    2    0    0  0.12941862770E+02 -0.76420498544E+01  0.17044967078E+02  0.22725202158E+02  0.10570000000E+00 0. -1.
         13    1    1    2    0    0 -0.12941862770E+02  0.76420498544E+01 -0.41942517624E+01  0.15604347416E+02  0.10570000000E+00 0.  1.
<mgrwt>
<rscale>  0 0.36111127E+02</rscale>
<asrwt>0</asrwt>
<pdfrwt beam="1">  1        1 0.39369434E-02 0.36111127E+02</pdfrwt>
<pdfrwt beam="2">  1       -1 0.19599103E-02 0.36111127E+02</pdfrwt>
<totfact> 0.99939720E+05</totfact>
</mgrwt>
</event>
<event>
 4    1  0.4261729E-001  0.2611318E+02  0.7818608E-02  0.1645509E+00
         -1   -1    0    0    0  501 -0.00000000000E+00  0.00000000000E+00  0.23570603784E+01  0.23570650047E+01  0.46700000000E-02 0.  1.
          1   -1    0    0  501    0  0.00000000000E+00 -0.00000000000E+00 -0.72324974340E+02  0.72324974491E+02  0.46700000000E-02 0. -1.
        -13    1    1    2    0    0  0.45740133418E+01 -0.90911496417E+01 -0.58374803172E+02  0.59255374589E+02  0.10570000000E+00 0. -1.
         13    1    1    2    0    0 -0.45740133418E+01  0.90911496417E+01 -0.11593110790E+02  0.15426664906E+02  0.10570000000E+00 0.  1.
<mgrwt>
<rscale>  0 0.26113177E+02</rscale>
<asrwt>0</asrwt>
<pdfrwt beam="2">  1        1 0.11126918E-01 0.26113177E+02</pdfrwt>
<pdfrwt beam="1">  1       -1 0.36262510E-03 0.26113177E+02</pdfrwt>
<totfact> 0.23473299E+06</totfact>
</mgrwt>
</event>
<event>
 4    1  0.4261729E-001  0.3075763E+02  0.7818608E-02  0.1589862E+00
          1   -1    0    0  501    0  0.00000000000E+00  0.00000000000E+00  0.81767605061E+01  0.81767618397E+01  0.46700000000E-02 0.  1.
         -1   -1    0    0    0  501 -0.00000000000E+00 -0.00000000000E+00 -0.28924405524E+02  0.28924405901E+02  0.46700000000E-02 0. -1.
        -13    1    1    2    0    0 -0.44106492595E+01 -0.13278534670E+02 -0.26761900864E+01  0.14245928392E+02  0.10570000000E+00 0.  1.
         13    1    1    2    0    0  0.44106492595E+01  0.13278534670E+02 -0.18071454931E+02  0.22855239349E+02  0.10570000000E+00 0. -1.
<mgrwt>
<rscale>  0 0.30757631E+02</rscale>
<asrwt>0</asrwt>
<pdfrwt beam="1">  1        1 0.12579633E-02 0.30757631E+02</pdfrwt>
<pdfrwt beam="2">  1       -1 0.44499086E-02 0.30757631E+02</pdfrwt>
<totfact> 0.13768136E+06</totfact>
</mgrwt>
</event>
<event>
 4    1  0.4261729E-001  0.2747558E+02  0.7818608E-02  0.1627795E+00
          1   -1    0    0  501    0  0.00000000000E+00  0.00000000000E+00  0.93056381302E+01  0.93056393020E+01  0.46700000000E-02 0. -1.
         -1   -1    0    0    0  501 -0.00000000000E+00 -0.00000000000E+00 -0.20280907925E+02  0.20280908462E+02  0.46700000000E-02 0.  1.
        -13    1    1    2    0    0 -0.10037528379E+02 -0.91714146645E+01 -0.33750640013E+01  0.14009605719E+02  0.10570000000E+00 0. -1.
         13    1    1    2    0    0  0.10037528379E+02  0.91714146645E+01 -0.76002057931E+01  0.15576942045E+02  0.10570000000E+00 0.  1.
<mgrwt>
<rscale>  0 0.27475576E+02</rscale>
<asrwt>0</asrwt>
<pdfrwt beam="1">  1        1 0.14316368E-02 0.27475576E+02</pdfrwt>
<pdfrwt beam="2">  1       -1 0.31201398E-02 0.27475576E+02</pdfrwt>
<totfact> 0.18301532E+06</totfact>
</mgrwt>
</event>
<event>
 4    1  0.4261729E-001  0.4757222E+02  0.7818608E-02  0.1458894E+00
         -1   -1    0    0    0  501 -0.00000000000E+00  0.00000000000E+00  0.42135040367E+01  0.42135066247E+01  0.46700000000E-02 0.  1.
          1   -1    0    0  501    0  0.00000000000E+00 -0.00000000000E+00 -0.13427751570E+03  0.13427751578E+03  0.46700000000E-02 0. -1.
        -13    1    1    2    0    0 -0.22182188834E+02 -0.70161191838E+01 -0.79439358847E+02  0.82776194261E+02  0.10570000000E+00 0. -1.
         13    1    1    2    0    0  0.22182188834E+02  0.70161191838E+01 -0.50624652812E+02  0.55714828140E+02  0.10570000000E+00 0.  1.
<mgrwt>
<rscale>  0 0.47572220E+02</rscale>
<asrwt>0</asrwt>
<pdfrwt beam="2">  1        1 0.20658076E-01 0.47572220E+02</pdfrwt>
<pdfrwt beam="1">  1       -1 0.64823170E-03 0.47572220E+02</pdfrwt>
<totfact> 0.59664866E+05</totfact>
</mgrwt>
</event>
<event>
 4    1  0.4261729E-001  0.2801885E+02  0.7818608E-02  0.1621080E+00
          1   -1    0    0  501    0  0.00000000000E+00  0.00000000000E+00  0.47397100714E+01  0.47397123720E+01  0.46700000000E-02 0. -1.
         -1   -1    0    0    0  501 -0.00000000000E+00 -0.00000000000E+00 -0.41408416490E+02  0.41408416753E+02  0.46700000000E-02 0.  1.
        -13    1    1    2    0    0  0.22890644101E+01 -0.10362895608E+02 -0.33395832527E+02  0.35041721189E+02  0.10570000000E+00 0.  1.
         13    1    1    2    0    0 -0.22890644101E+01  0.10362895608E+02 -0.32728738919E+01  0.11106407936E+02  0.10570000000E+00 0. -1.
<mgrwt>
<rscale>  0 0.28018847E+02</rscale>
<asrwt>0</asrwt>
<pdfrwt beam="1">  1        1 0.72918639E-03 0.28018847E+02</pdfrwt>
<pdfrwt beam="2">  1       -1 0.63705256E-02 0.28018847E+02</pdfrwt>
<totfact> 0.16610151E+06</totfact>
</mgrwt>
</event>
<event>
 4    1  0.4261729E-001  0.2420958E+02  0.7818608E-02  0.1672622E+00
          1   -1    0    0  501    0  0.00000000000E+00  0.00000000000E+00  0.17464034818E+01  0.17464097258E+01  0.46700000000E-02 0. -1.
         -1   -1    0    0    0  501 -0.00000000000E+00 -0.00000000000E+00 -0.83901368936E+02  0.83901369066E+02  0.46700000000E-02 0.  1.
        -13    1    1    2    0    0  0.84451407937E+01 -0.63463995193E+01 -0.20172452992E+02  0.22771390430E+02  0.10570000000E+00 0. -1.
         13    1    1    2    0    0 -0.84451407937E+01  0.63463995193E+01 -0.61982512462E+02  0.62876388362E+02  0.10570000000E+00 0.  1.
<mgrwt>
<rscale>  0 0.24209578E+02</rscale>
<asrwt>0</asrwt>
<pdfrwt beam="1">  1        1 0.26867801E-03 0.24209578E+02</pdfrwt>
<pdfrwt beam="2">  1       -1 0.12907900E-01 0.24209578E+02</pdfrwt>
<totfact> 0.21406943E+06</totfact>
</mgrwt>
</event>
<event>
 4    1  0.4261729E-001  0.3028825E+02  0.7818608E-02  0.1594924E+00
         -1   -1    0    0    0  501 -0.00000000000E+00  0.00000000000E+00  0.51307300368E+01  0.51307321622E+01  0.46700000000E-02 0.  1.
          1   -1    0    0  501    0  0.00000000000E+00 -0.00000000000E+00 -0.44700149539E+02  0.44700149783E+02  0.46700000000E-02 0. -1.
        -13    1    1    2    0    0  0.12733145748E+02 -0.61312871146E+01 -0.10832585844E+02  0.17806790022E+02  0.10570000000E+00 0.  1.
         13    1    1    2    0    0 -0.12733145748E+02  0.61312871146E+01 -0.28736833658E+02  0.32024091923E+02  0.10570000000E+00 0. -1.
<mgrwt>
<rscale>  0 0.30288246E+02</rscale>
<asrwt>0</asrwt>
<pdfrwt beam="2">  1        1 0.68769460E-02 0.30288246E+02</pdfrwt>
<pdfrwt beam="1">  1       -1 0.78934330E-03 0.30288246E+02</pdfrwt>
<totfact> 0.15906923E+06</totfact>
</mgrwt>
</event>
<event>
 4    1  0.4261729E-001  0.3589308E+02  0.7818608E-02  0.1540810E+00
          1   -1    0    0  501    0  0.00000000000E+00  0.00000000000E+00  0.30301648745E+02  0.30301649105E+02  0.46700000000E-02 0. -1.
         -1   -1    0    0    0  501 -0.00000000000E+00 -0.00000000000E+00 -0.10629068773E+02  0.10629069799E+02  0.46700000000E-02 0.  1.
        -13    1    1    2    0    0  0.10064371661E+02 -0.29206096176E+01  0.26449669834E+02  0.28450267912E+02  0.10570000000E+00 0. -1.
         13    1    1    2    0    0 -0.10064371661E+02  0.29206096176E+01 -0.67770898616E+01  0.12480450991E+02  0.10570000000E+00 0.  1.
<mgrwt>
<rscale>  0 0.35893082E+02</rscale>
<asrwt>0</asrwt>
<pdfrwt beam="1">  1        1 0.46617922E-02 0.35893082E+02</pdfrwt>
<pdfrwt beam="2">  1       -1 0.16352415E-02 0.35893082E+02</pdfrwt>
<totfact> 0.10262463E+06</totfact>
</mgrwt>
</event>
<event>
 4    1  0.4261729E-001  0.4193208E+02  0.7818608E-02  0.1494456E+00
          1   -1    0    0  501    0  0.00000000000E+00  0.00000000000E+00  0.10370648806E+02  0.10370649858E+02  0.46700000000E-02 0.  1.
         -1   -1    0    0    0  501 -0.00000000000E+00 -0.00000000000E+00 -0.42386431812E+02  0.42386432069E+02  0.46700000000E-02 0. -1.
        -13    1    1    2    0    0  0.12597624818E+02 -0.17923181227E+01  0.49565870045E+01  0.13656188434E+02  0.10570000000E+00 0.  1.
         13    1    1    2    0    0 -0.12597624818E+02  0.17923181227E+01 -0.36972370010E+02  0.39100893493E+02  0.10570000000E+00 0. -1.
<mgrwt>
<rscale>  0 0.41932080E+02</rscale>
<asrwt>0</asrwt>
<pdfrwt beam="1">  1        1 0.15954846E-02 0.41932080E+02</pdfrwt>
<pdfrwt beam="2">  1       -1 0.65209895E-02 0.41932080E+02</pdfrwt>
<totfact> 0.63841361E+05</totfact>
</mgrwt>
</event>
<event>
 4    1  0.4261729E-001  0.4597500E+02  0.7818608E-02  0.1468345E+00
         -1   -1    0    0    0  501 -0.00000000000E+00  0.00000000000E+00  0.39238141463E+02  0.39238141741E+02  0.46700000000E-02 0.  1.
          1   -1    0    0  501    0  0.00000000000E+00 -0.00000000000E+00 -0.13467130172E+02  0.13467130981E+02  0.46700000000E-02 0. -1.
        -13    1    1    2    0    0 -0.75383389987E+01  0.15256840927E+02 -0.48304369801E+01  0.17690167999E+02  0.10570000000E+00 0. -1.
         13    1    1    2    0    0  0.75383389987E+01 -0.15256840927E+02  0.30601448271E+02  0.35015104723E+02  0.10570000000E+00 0.  1.
<mgrwt>
<rscale>  0 0.45975001E+02</rscale>
<asrwt>0</asrwt>
<pdfrwt beam="2">  1        1 0.20718663E-02 0.45975001E+02</pdfrwt>
<pdfrwt beam="1">  1       -1 0.60366373E-02 0.45975001E+02</pdfrwt>
<totfact> 0.51449246E+05</totfact>
</mgrwt>
</event>
<event>
 4    1  0.4261729E-001  0.2192233E+02  0.7818608E-02  0.1709599E+00
          1   -1    0    0  501    0  0.00000000000E+00  0.00000000000E+00  0.39190027694E+02  0.39190027972E+02  0.46700000000E-02 0. -1.
         -1   -1    0    0    0  501 -0.00000000000E+00 -0.00000000000E+00 -0.30657558606E+01  0.30657594175E+01  0.46700000000E-02 0.  1.
        -13    1    1    2    0    0 -0.10275370253E+02 -0.23137261909E+01  0.23908411826E+02  0.26125847187E+02  0.10570000000E+00 0. -1.
         13    1    1    2    0    0  0.10275370253E+02  0.23137261909E+01  0.12215860008E+02  0.16129940203E+02  0.10570000000E+00 0.  1.
<mgrwt>
<rscale>  0 0.21922330E+02</rscale>
<asrwt>0</asrwt>
<pdfrwt beam="1">  1        1 0.60292353E-02 0.21922330E+02</pdfrwt>
<pdfrwt beam="2">  1       -1 0.47165504E-03 0.21922330E+02</pdfrwt>
<totfact> 0.33405941E+06</totfact>
</mgrwt>
</event>
<event>
 4    1  0.4261729E-001  0.2477258E+02  0.7818608E-02  0.1664290E+00
         -1   -1    0    0    0  501 -0.00000000000E+00  0.00000000000E+00  0.36954337701E+02  0.36954337996E+02  0.46700000000E-02 0.  1.
          1   -1    0    0  501    0  0.00000000000E+00 -0.00000000000E+00 -0.41516121855E+01  0.41516148121E+01  0.46700000000E-02 0. -1.
        -13    1    1    2    0    0 -0.83427177254E+01  0.89598756765E+01  0.13284353137E+02  0.18065589444E+02  0.10570000000E+00 0. -1.
         13    1    1    2    0    0  0.83427177254E+01 -0.89598756765E+01  0.19518372378E+02  0.23040363365E+02  0.10570000000E+00 0.  1.
<mgrwt>
<rscale>  0 0.24772577E+02</rscale>
<asrwt>0</asrwt>
<pdfrwt beam="2">  1        1 0.63870980E-03 0.24772577E+02</pdfrwt>
<pdfrwt beam="1">  1       -1 0.56852829E-02 0.24772577E+02</pdfrwt>
<totfact> 0.22244969E+06</totfact>
</mgrwt>
</event>
<event>
 4    1  0.4261729E-001  0.2269271E+02  0.7818608E-02  0.1696540E+00
         -1   -1    0    0    0  501 -0.00000000000E+00  0.00000000000E+00  0.28394352841E+02  0.28394353225E+02  0.46700000000E-02 0. -1.
          1   -1    0    0  501    0  0.00000000000E+00 -0.00000000000E+00 -0.45339897798E+01  0.45339921848E+01  0.46700000000E-02 0.  1.
        -13    1    1    2    0    0 -0.10122432919E+02  0.26144934067E+00  0.19357051795E+02  0.21845792058E+02  0.10570000000E+00 0. -1.
         13    1    1    2    0    0  0.10122432919E+02 -0.26144934067E+00  0.45033112668E+01  0.11082553352E+02  0.10570000000E+00 0.  1.
<mgrwt>
<rscale>  0 0.22692708E+02</rscale>
<asrwt>0</asrwt>
<pdfrwt beam="2">  1        1 0.69753712E-03 0.22692708E+02</pdfrwt>
<pdfrwt beam="1">  1       -1 0.43683621E-02 0.22692708E+02</pdfrwt>
<totfact> 0.27658345E+06</totfact>
</mgrwt>
</event>
<event>
 4    1  0.4261729E-001  0.2827559E+02  0.7818608E-02  0.1617971E+00
         -1   -1    0    0    0  501 -0.00000000000E+00  0.00000000000E+00  0.19855457803E+01  0.19855512722E+01  0.46700000000E-02 0. -1.
          1   -1    0    0  501    0  0.00000000000E+00 -0.00000000000E+00 -0.10066596880E+03  0.10066596891E+03  0.46700000000E-02 0.  1.
        -13    1    1    2    0    0  0.79322265196E+01 -0.10766159621E+02 -0.65990860892E+02  0.67332275354E+02  0.10570000000E+00 0.  1.
         13    1    1    2    0    0 -0.79322265196E+01  0.10766159621E+02 -0.32689562125E+02  0.35319244824E+02  0.10570000000E+00 0. -1.
<mgrwt>
<rscale>  0 0.28275585E+02</rscale>
<asrwt>0</asrwt>
<pdfrwt beam="2">  1        1 0.15487069E-01 0.28275585E+02</pdfrwt>
<pdfrwt beam="1">  1       -1 0.30546909E-03 0.28275585E+02</pdfrwt>
<totfact> 0.20212426E+06</totfact>
</mgrwt>
</event>
<event>
 4    1  0.4261729E-001  0.2613074E+02  0.7818608E-02  0.1645272E+00
          1   -1    0    0  501    0  0.00000000000E+00  0.00000000000E+00  0.44491659084E+01  0.44491683593E+01  0.46700000000E-02 0.  1.
         -1   -1    0    0    0  501 -0.00000000000E+00 -0.00000000000E+00 -0.38367599016E+02  0.38367599300E+02  0.46700000000E-02 0. -1.
        -13    1    1    2    0    0  0.56913623251E+01 -0.10479660254E+02 -0.82151081714E+01  0.14481507480E+02  0.10570000000E+00 0.  1.
         13    1    1    2    0    0 -0.56913623251E+01  0.10479660254E+02 -0.25703324936E+02  0.28335260179E+02  0.10570000000E+00 0. -1.
<mgrwt>
<rscale>  0 0.26130738E+02</rscale>
<asrwt>0</asrwt>
<pdfrwt beam="1">  1        1 0.68448730E-03 0.26130738E+02</pdfrwt>
<pdfrwt beam="2">  1       -1 0.59027075E-02 0.26130738E+02</pdfrwt>
<totfact> 0.19631394E+06</totfact>
</mgrwt>
</event>
<event>
 4    1  0.4261729E-001  0.4162875E+02  0.7818608E-02  0.1496557E+00
          1   -1    0    0  501    0  0.00000000000E+00  0.00000000000E+00  0.78814620618E+02  0.78814620756E+02  0.46700000000E-02 0. -1.
         -1   -1    0    0    0  501 -0.00000000000E+00 -0.00000000000E+00 -0.54969265373E+01  0.54969285210E+01  0.46700000000E-02 0.  1.
        -13    1    1    2    0    0 -0.60850385866E+01  0.19895184207E+02  0.37909057484E+02  0.43242963140E+02  0.10570000000E+00 0. -1.
         13    1    1    2    0    0  0.60850385866E+01 -0.19895184207E+02  0.35408636596E+02  0.41068586137E+02  0.10570000000E+00 0.  1.
<mgrwt>
<rscale>  0 0.41628753E+02</rscale>
<asrwt>0</asrwt>
<pdfrwt beam="1">  1        1 0.12125326E-01 0.41628753E+02</pdfrwt>
<pdfrwt beam="2">  1       -1 0.84568121E-03 0.41628753E+02</pdfrwt>
<totfact> 0.77499466E+05</totfact>
</mgrwt>
</event>
<event>
 4    1  0.4261729E-001  0.2385369E+02  0.7818608E-02  0.1678034E+00
         -1   -1    0    0    0  501 -0.00000000000E+00  0.00000000000E+00  0.17029309188E+02  0.17029309828E+02  0.46700000000E-02 0. -1.
          1   -1    0    0  501    0  0.00000000000E+00 -0.00000000000E+00 -0.83532252051E+01  0.83532265105E+01  0.46700000000E-02 0.  1.
        -13    1    1    2    0    0  0.92979759977E+01  0.68217967244E+01  0.11018642427E+01  0.11585100151E+02  0.10570000000E+00 0.  1.
         13    1    1    2    0    0 -0.92979759977E+01 -0.68217967244E+01  0.75742197399E+01  0.13797436188E+02  0.10570000000E+00 0. -1.
<mgrwt>
<rscale>  0 0.23853694E+02</rscale>
<asrwt>0</asrwt>
<pdfrwt beam="2">  1        1 0.12851117E-02 0.23853694E+02</pdfrwt>
<pdfrwt beam="1">  1       -1 0.26198939E-02 0.23853694E+02</pdfrwt>
<totfact> 0.25489695E+06</totfact>
</mgrwt>
</event>
<event>
 4    1  0.4261729E-001  0.4078949E+02  0.7818608E-02  0.1502481E+00
         -1   -1    0    0    0  501 -0.00000000000E+00  0.00000000000E+00  0.15190389429E+02  0.15190390147E+02  0.46700000000E-02 0.  1.
          1   -1    0    0  501    0  0.00000000000E+00 -0.00000000000E+00 -0.27382158131E+02  0.27382158530E+02  0.46700000000E-02 0. -1.
        -13    1    1    2    0    0  0.77309413829E+01  0.64228926620E+01 -0.24617419726E+02  0.26590402992E+02  0.10570000000E+00 0. -1.
         13    1    1    2    0    0 -0.77309413829E+01 -0.64228926620E+01  0.12425651024E+02  0.15982145684E+02  0.10570000000E+00 0.  1.
<mgrwt>
<rscale>  0 0.40789492E+02</rscale>
<asrwt>0</asrwt>
<pdfrwt beam="2">  1        1 0.42126398E-02 0.40789492E+02</pdfrwt>
<pdfrwt beam="1">  1       -1 0.23369831E-02 0.40789492E+02</pdfrwt>
<totfact> 0.74146579E+05</totfact>
</mgrwt>
</event>
<event>
 4    1  0.4261729E-001  0.3239977E+02  0.7818608E-02  0.1572983E+00
          1   -1    0    0  501    0  0.00000000000E+00  0.00000000000E+00  0.30698796809E+02  0.30698797164E+02  0.46700000000E-02 0. -1.
         -1   -1    0    0    0  501 -0.00000000000E+00 -0.00000000000E+00 -0.85487475411E+01  0.85487488167E+01  0.46700000000E-02 0.  1.
        -13    1    1    2    0    0  0.13260951002E+02  0.74994159428E+01  0.17746384565E+02  0.23388873393E+02  0.10570000000E+00 0. -1.
         13    1    1    2    0    0 -0.13260951002E+02 -0.74994159428E+01  0.44036647025E+01  0.15858672588E+02  0.10570000000E+00 0.  1.
<mgrwt>
<rscale>  0 0.32399771E+02</rscale>
<asrwt>0</asrwt>
<pdfrwt beam="1">  1        1 0.47228920E-02 0.32399771E+02</pdfrwt>
<pdfrwt beam="2">  1       -1 0.13151920E-02 0.32399771E+02</pdfrwt>
<totfact> 0.13181098E+06</totfact>
</mgrwt>
</event>
<event>
 4    1  0.4261729E-001  0.3078168E+02  0.7818608E-02  0.1589605E+00
          1   -1    0    0  501    0  0.00000000000E+00  0.00000000000E+00  0.60323561982E+02  0.60323562163E+02  0.46700000000E-02 0. -1.
         -1   -1    0    0    0  501 -0.00000000000E+00 -0.00000000000E+00 -0.39267895030E+01  0.39267922799E+01  0.46700000000E-02 0.  1.
        -13    1    1    2    0    0  0.90860392630E+01 -0.12220980601E+02  0.23550527925E+02  0.28045445519E+02  0.10570000000E+00 0. -1.
         13    1    1    2    0    0 -0.90860392630E+01  0.12220980601E+02  0.32846244555E+02  0.36204908924E+02  0.10570000000E+00 0.  1.
<mgrwt>
<rscale>  0 0.30781684E+02</rscale>
<asrwt>0</asrwt>
<pdfrwt beam="1">  1        1 0.92805478E-02 0.30781684E+02</pdfrwt>
<pdfrwt beam="2">  1       -1 0.60412171E-03 0.30781684E+02</pdfrwt>
<totfact> 0.15688953E+06</totfact>
</mgrwt>
</event>
<event>
 4    1  0.4261729E-001  0.3062632E+02  0.7818608E-02  0.1591267E+00
          1   -1    0    0  501    0  0.00000000000E+00  0.00000000000E+00  0.59922277578E+02  0.59922277760E+02  0.46700000000E-02 0. -1.
         -1   -1    0    0    0  501 -0.00000000000E+00 -0.00000000000E+00 -0.39132833438E+01  0.39132861304E+01  0.46700000000E-02 0.  1.
        -13    1    1    2    0    0 -0.10755323509E+02  0.80296637142E+01  0.12641185952E+02  0.18438092036E+02  0.10570000000E+00 0. -1.
         13    1    1    2    0    0  0.10755323509E+02 -0.80296637142E+01  0.43367808282E+02  0.45397471855E+02  0.10570000000E+00 0.  1.
<mgrwt>
<rscale>  0 0.30626325E+02</rscale>
<asrwt>0</asrwt>
<pdfrwt beam="1">  1        1 0.92188120E-02 0.30626325E+02</pdfrwt>
<pdfrwt beam="2">  1       -1 0.60204383E-03 0.30626325E+02</pdfrwt>
<totfact> 0.15869442E+06</totfact>
</mgrwt>
</event>
<event>
 4    1  0.4261729E-001  0.4137274E+02  0.7818608E-02  0.1498346E+00
         -1   -1    0    0    0  501 -0.00000000000E+00  0.00000000000E+00  0.92920761938E+01  0.92920773673E+01  0.46700000000E-02 0.  1.
          1   -1    0    0  501    0  0.00000000000E+00 -0.00000000000E+00 -0.46052775411E+02  0.46052775648E+02  0.46700000000E-02 0. -1.
        -13    1    1    2    0    0  0.10883691162E+02  0.17496322670E+02 -0.15936056872E+02  0.26048898660E+02  0.10570000000E+00 0. -1.
         13    1    1    2    0    0 -0.10883691162E+02 -0.17496322670E+02 -0.20824642345E+02  0.29295954355E+02  0.10570000000E+00 0.  1.
<mgrwt>
<rscale>  0 0.41372742E+02</rscale>
<asrwt>0</asrwt>
<pdfrwt beam="2">  1        1 0.70850424E-02 0.41372742E+02</pdfrwt>
<pdfrwt beam="1">  1       -1 0.14295503E-02 0.41372742E+02</pdfrwt>
<totfact> 0.74604326E+05</totfact>
</mgrwt>
</event>
<event>
 4    1  0.4261729E-001  0.2527675E+02  0.7818608E-02  0.1657058E+00
         -1   -1    0    0    0  501 -0.00000000000E+00  0.00000000000E+00  0.14253842603E+02  0.14253843368E+02  0.46700000000E-02 0.  1.
          1   -1    0    0  501    0  0.00000000000E+00 -0.00000000000E+00 -0.11205993804E+02  0.11205994777E+02  0.46700000000E-02 0. -1.
        -13    1    1    2    0    0  0.96748961382E+01 -0.68897186423E+01  0.58732434422E+01  0.13250584865E+02  0.10570000000E+00 0.  1.
         13    1    1    2    0    0 -0.96748961382E+01  0.68897186423E+01 -0.28253946431E+01  0.12209253279E+02  0.10570000000E+00 0. -1.
<mgrwt>
<rscale>  0 0.25276748E+02</rscale>
<asrwt>0</asrwt>
<pdfrwt beam="2">  1        1 0.17239992E-02 0.25276748E+02</pdfrwt>
<pdfrwt beam="1">  1       -1 0.21928990E-02 0.25276748E+02</pdfrwt>
<totfact> 0.22567867E+06</totfact>
</mgrwt>
</event>
<event>
 4    1  0.4261729E-001  0.3600502E+02  0.7818608E-02  0.1539853E+00
          1   -1    0    0  501    0  0.00000000000E+00  0.00000000000E+00  0.33900656991E+01  0.33900689157E+01  0.46700000000E-02 0.  1.
         -1   -1    0    0    0  501 -0.00000000000E+00 -0.00000000000E+00 -0.95599977925E+02  0.95599978039E+02  0.46700000000E-02 0. -1.
        -13    1    1    2    0    0  0.32215352862E+01 -0.16290504244E+02 -0.65216406277E+02  0.67297471263E+02  0.10570000000E+00 0.  1.
         13    1    1    2    0    0 -0.32215352862E+01  0.16290504244E+02 -0.26993505948E+02  0.31692575692E+02  0.10570000000E+00 0. -1.
<mgrwt>
<rscale>  0 0.36005020E+02</rscale>
<asrwt>0</asrwt>
<pdfrwt beam="1">  1        1 0.52154890E-03 0.36005020E+02</pdfrwt>
<pdfrwt beam="2">  1       -1 0.14707687E-01 0.36005020E+02</pdfrwt>
<totfact> 0.83321491E+05</totfact>
</mgrwt>
</event>
<event>
 4    1  0.4261729E-001  0.8084129E+02  0.7818608E-02  0.1326681E+00
          1   -1    0    0  501    0  0.00000000000E+00  0.00000000000E+00  0.17285302971E+03  0.17285302977E+03  0.46700000000E-02 0. -1.
         -1   -1    0    0    0  501 -0.00000000000E+00 -0.00000000000E+00 -0.94521253136E+01  0.94521264672E+01  0.46700000000E-02 0.  1.
        -13    1    1    2    0    0  0.25807714343E+02  0.17351471747E+01  0.11655428888E+02  0.28370919096E+02  0.10570000000E+00 0.  1.
         13    1    1    2    0    0 -0.25807714343E+02 -0.17351471747E+01  0.15174547551E+03  0.15393423714E+03  0.10570000000E+00 0. -1.
<mgrwt>
<rscale>  0 0.80841292E+02</rscale>
<asrwt>0</asrwt>
<pdfrwt beam="1">  1        1 0.26592775E-01 0.80841292E+02</pdfrwt>
<pdfrwt beam="2">  1       -1 0.14541731E-02 0.80841292E+02</pdfrwt>
<totfact> 0.15875059E+05</totfact>
</mgrwt>
</event>
<event>
 4    1  0.4261729E-001  0.3478272E+02  0.7818608E-02  0.1550539E+00
         -1   -1    0    0    0  501 -0.00000000000E+00  0.00000000000E+00  0.51194944488E+02  0.51194944701E+02  0.46700000000E-02 0. -1.
          1   -1    0    0  501    0  0.00000000000E+00 -0.00000000000E+00 -0.59079926593E+01  0.59079945050E+01  0.46700000000E-02 0.  1.
        -13    1    1    2    0    0  0.11119444779E+01  0.17050197530E+02  0.27963860673E+02  0.32770937316E+02  0.10570000000E+00 0. -1.
         13    1    1    2    0    0 -0.11119444779E+01 -0.17050197530E+02  0.17323091156E+02  0.24332001890E+02  0.10570000000E+00 0.  1.
<mgrwt>
<rscale>  0 0.34782721E+02</rscale>
<asrwt>0</asrwt>
<pdfrwt beam="2">  1        1 0.90892214E-03 0.34782721E+02</pdfrwt>
<pdfrwt beam="1">  1       -1 0.78761452E-02 0.34782721E+02</pdfrwt>
<totfact> 0.98046175E+05</totfact>
</mgrwt>
</event>
<event>
 4    1  0.4261729E-001  0.3912111E+02  0.7818608E-02  0.1514781E+00
          1   -1    0    0  501    0  0.00000000000E+00  0.00000000000E+00  0.87875235651E+01  0.87875248060E+01  0.46700000000E-02 0. -1.
         -1   -1    0    0    0  501 -0.00000000000E+00 -0.00000000000E+00 -0.43540732799E+02  0.43540733049E+02  0.46700000000E-02 0.  1.
        -13    1    1    2    0    0  0.15181114229E+02 -0.10392472225E+02 -0.26262754306E+02  0.32065762807E+02  0.10570000000E+00 0. -1.
         13    1    1    2    0    0 -0.15181114229E+02  0.10392472225E+02 -0.84904549281E+01  0.20262495048E+02  0.10570000000E+00 0.  1.
<mgrwt>
<rscale>  0 0.39121107E+02</rscale>
<asrwt>0</asrwt>
<pdfrwt beam="1">  1        1 0.13519268E-02 0.39121107E+02</pdfrwt>
<pdfrwt beam="2">  1       -1 0.66985743E-02 0.39121107E+02</pdfrwt>
<totfact> 0.75253456E+05</totfact>
</mgrwt>
</event>
<event>
 4    1  0.4261729E-001  0.3852999E+02  0.7818608E-02  0.1519316E+00
         -1   -1    0    0    0  501 -0.00000000000E+00  0.00000000000E+00  0.17596191548E+02  0.17596192168E+02  0.46700000000E-02 0.  1.
          1   -1    0    0  501    0  0.00000000000E+00 -0.00000000000E+00 -0.21092062052E+02  0.21092062569E+02  0.46700000000E-02 0. -1.
        -13    1    1    2    0    0  0.13229642317E+02 -0.10316670206E+02 -0.11256346464E+02  0.20203307358E+02  0.10570000000E+00 0. -1.
         13    1    1    2    0    0 -0.13229642317E+02  0.10316670206E+02  0.77604759606E+01  0.18484947379E+02  0.10570000000E+00 0.  1.
<mgrwt>
<rscale>  0 0.38529988E+02</rscale>
<asrwt>0</asrwt>
<pdfrwt beam="2">  1        1 0.32449327E-02 0.38529988E+02</pdfrwt>
<pdfrwt beam="1">  1       -1 0.27071065E-02 0.38529988E+02</pdfrwt>
<totfact> 0.83925557E+05</totfact>
</mgrwt>
</event>
<event>
 4    1  0.4261729E-001  0.3433647E+02  0.7818608E-02  0.1554573E+00
          1   -1    0    0  501    0  0.00000000000E+00  0.00000000000E+00  0.95101277424E+01  0.95101288891E+01  0.46700000000E-02 0.  1.
         -1   -1    0    0    0  501 -0.00000000000E+00 -0.00000000000E+00 -0.30993091456E+02  0.30993091808E+02  0.46700000000E-02 0. -1.
        -13    1    1    2    0    0  0.66454414643E+01  0.13597119978E+02 -0.11806585727E+01  0.15180536588E+02  0.10570000000E+00 0.  1.
         13    1    1    2    0    0 -0.66454414643E+01 -0.13597119978E+02 -0.20302305141E+02  0.25322684109E+02  0.10570000000E+00 0. -1.
<mgrwt>
<rscale>  0 0.34336470E+02</rscale>
<asrwt>0</asrwt>
<pdfrwt beam="1">  1        1 0.14630967E-02 0.34336470E+02</pdfrwt>
<pdfrwt beam="2">  1       -1 0.47681680E-02 0.34336470E+02</pdfrwt>
<totfact> 0.10577334E+06</totfact>
</mgrwt>
</event>
<event>
 4    1  0.4261729E-001  0.2585189E+02  0.7818608E-02  0.1649059E+00
          1   -1    0    0  501    0  0.00000000000E+00  0.00000000000E+00  0.57415415125E+02  0.57415415315E+02  0.46700000000E-02 0.  1.
         -1   -1    0    0    0  501 -0.00000000000E+00 -0.00000000000E+00 -0.29100197849E+01  0.29100235321E+01  0.46700000000E-02 0. -1.
        -13    1    1    2    0    0 -0.10452390302E+02 -0.62936954733E+01  0.37209362477E+02  0.39158790765E+02  0.10570000000E+00 0.  1.
         13    1    1    2    0    0  0.10452390302E+02  0.62936954733E+01  0.17296032863E+02  0.21166648082E+02  0.10570000000E+00 0. -1.
<mgrwt>
<rscale>  0 0.25851895E+02</rscale>
<asrwt>0</asrwt>
<pdfrwt beam="1">  1        1 0.88331408E-02 0.25851895E+02</pdfrwt>
<pdfrwt beam="2">  1       -1 0.44769567E-03 0.25851895E+02</pdfrwt>
<totfact> 0.23535245E+06</totfact>
</mgrwt>
</event>
<event>
 4    1  0.4261729E-001  0.1160889E+03  0.7818608E-02  0.1249692E+00
         -1   -1    0    0    0  501 -0.00000000000E+00  0.00000000000E+00  0.31556061323E+02  0.31556061669E+02  0.46700000000E-02 0.  1.
          1   -1    0    0  501    0  0.00000000000E+00 -0.00000000000E+00 -0.10676742097E+03  0.10676742107E+03  0.46700000000E-02 0. -1.
        -13    1    1    2    0    0  0.10431505860E+01 -0.19101400396E+02 -0.10290324972E+03  0.10466633478E+03  0.10570000000E+00 0. -1.
         13    1    1    2    0    0 -0.10431505860E+01  0.19101400396E+02  0.27691890078E+02  0.33657147960E+02  0.10570000000E+00 0.  1.
<mgrwt>
<rscale>  0 0.11608892E+03</rscale>
<asrwt>0</asrwt>
<pdfrwt beam="2">  1        1 0.16425757E-01 0.11608892E+03</pdfrwt>
<pdfrwt beam="1">  1       -1 0.48547787E-02 0.11608892E+03</pdfrwt>
<totfact> 0.54136008E+04</totfact>
</mgrwt>
</event>
<event>
 4    1  0.4261729E-001  0.2660404E+02  0.7818608E-02  0.1638977E+00
         -1   -1    0    0    0  501 -0.00000000000E+00  0.00000000000E+00  0.28734976878E+02  0.28734977257E+02  0.46700000000E-02 0. -1.
          1   -1    0    0  501    0  0.00000000000E+00 -0.00000000000E+00 -0.61577822433E+01  0.61577840141E+01  0.46700000000E-02 0.  1.
        -13    1    1    2    0    0 -0.12753018535E+02  0.75979620470E+00  0.16145938952E+02  0.20589300356E+02  0.10570000000E+00 0. -1.
         13    1    1    2    0    0  0.12753018535E+02 -0.75979620470E+00  0.64312556823E+01  0.14303460915E+02  0.10570000000E+00 0.  1.
<mgrwt>
<rscale>  0 0.26604042E+02</rscale>
<asrwt>0</asrwt>
<pdfrwt beam="2">  1        1 0.94735131E-03 0.26604042E+02</pdfrwt>
<pdfrwt beam="1">  1       -1 0.44207657E-02 0.26604042E+02</pdfrwt>
<totfact> 0.19266262E+06</totfact>
</mgrwt>
</event>
<event>
 4    1  0.4261729E-001  0.2564068E+02  0.7818608E-02  0.1651967E+00
         -1   -1    0    0    0  501 -0.00000000000E+00  0.00000000000E+00  0.23017720168E+01  0.23017767542E+01  0.46700000000E-02 0. -1.
          1   -1    0    0  501    0  0.00000000000E+00 -0.00000000000E+00 -0.71406268926E+02  0.71406269079E+02  0.46700000000E-02 0.  1.
        -13    1    1    2    0    0 -0.91199138722E+01  0.43147960750E+01 -0.11815280605E+02  0.15537127227E+02  0.10570000000E+00 0. -1.
         13    1    1    2    0    0  0.91199138722E+01 -0.43147960750E+01 -0.57289216305E+02  0.58170918606E+02  0.10570000000E+00 0.  1.
<mgrwt>
<rscale>  0 0.25640681E+02</rscale>
<asrwt>0</asrwt>
<pdfrwt beam="2">  1        1 0.10985579E-01 0.25640681E+02</pdfrwt>
<pdfrwt beam="1">  1       -1 0.35411920E-03 0.25640681E+02</pdfrwt>
<totfact> 0.24456154E+06</totfact>
</mgrwt>
</event>
<event>
 4    1  0.4261729E-001  0.2945806E+02  0.7818608E-02  0.1604158E+00
         -1   -1    0    0    0  501 -0.00000000000E+00  0.00000000000E+00  0.65139022976E+01  0.65139039716E+01  0.46700000000E-02 0. -1.
          1   -1    0    0  501    0  0.00000000000E+00 -0.00000000000E+00 -0.33304806971E+02  0.33304807298E+02  0.46700000000E-02 0.  1.
        -13    1    1    2    0    0  0.67922828525E+01  0.89652080864E+01 -0.26248990534E+02  0.28557498821E+02  0.10570000000E+00 0.  1.
         13    1    1    2    0    0 -0.67922828525E+01 -0.89652080864E+01 -0.54191413887E+00  0.11261212448E+02  0.10570000000E+00 0. -1.
<mgrwt>
<rscale>  0 0.29458058E+02</rscale>
<asrwt>0</asrwt>
<pdfrwt beam="2">  1        1 0.51238165E-02 0.29458058E+02</pdfrwt>
<pdfrwt beam="1">  1       -1 0.10021390E-02 0.29458058E+02</pdfrwt>
<totfact> 0.16651556E+06</totfact>
</mgrwt>
</event>
<event>
 4    1  0.4261729E-001  0.4970995E+02  0.7818608E-02  0.1446912E+00
         -1   -1    0    0    0  501 -0.00000000000E+00  0.00000000000E+00  0.13084866885E+03  0.13084866893E+03  0.46700000000E-02 0.  1.
          1   -1    0    0  501    0  0.00000000000E+00 -0.00000000000E+00 -0.47212524203E+01  0.47212547299E+01  0.46700000000E-02 0. -1.
        -13    1    1    2    0    0 -0.22272231292E+02 -0.91655650737E+00  0.33080886166E+02  0.39890457062E+02  0.10570000000E+00 0. -1.
         13    1    1    2    0    0  0.22272231292E+02  0.91655650737E+00  0.93046530264E+02  0.95679466602E+02  0.10570000000E+00 0.  1.
<mgrwt>
<rscale>  0 0.49709949E+02</rscale>
<asrwt>0</asrwt>
<pdfrwt beam="2">  1        1 0.72634674E-03 0.49709949E+02</pdfrwt>
<pdfrwt beam="1">  1       -1 0.20130564E-01 0.49709949E+02</pdfrwt>
<totfact> 0.35951771E+05</totfact>
</mgrwt>
</event>
<event>
 4    1  0.4261729E-001  0.2067819E+02  0.7818608E-02  0.1732168E+00
         -1   -1    0    0    0  501 -0.00000000000E+00  0.00000000000E+00  0.66225515045E+01  0.66225531511E+01  0.46700000000E-02 0.  1.
          1   -1    0    0  501    0  0.00000000000E+00 -0.00000000000E+00 -0.16141336898E+02  0.16141337574E+02  0.46700000000E-02 0. -1.
        -13    1    1    2    0    0  0.30479370572E+01  0.98035874589E+01 -0.34176729838E+01  0.10820901463E+02  0.10570000000E+00 0. -1.
         13    1    1    2    0    0 -0.30479370572E+01 -0.98035874589E+01 -0.61011124098E+01  0.11942989261E+02  0.10570000000E+00 0.  1.
<mgrwt>
<rscale>  0 0.20678188E+02</rscale>
<asrwt>0</asrwt>
<pdfrwt beam="2">  1        1 0.24832828E-02 0.20678188E+02</pdfrwt>
<pdfrwt beam="1">  1       -1 0.10188543E-02 0.20678188E+02</pdfrwt>
<totfact> 0.36503611E+06</totfact>
</mgrwt>
</event>
<event>
 4    1  0.4261729E-001  0.2165403E+02  0.7818608E-02  0.1714305E+00
         -1   -1    0    0    0  501 -0.00000000000E+00  0.00000000000E+00  0.17693995167E+02  0.17693995783E+02  0.46700000000E-02 0. -1.
          1   -1    0    0  501    0  0.00000000000E+00 -0.00000000000E+00 -0.66250843187E+01  0.66250859646E+01  0.46700000000E-02 0.  1.
        -13    1    1    2    0    0 -0.72157010163E+01  0.79011500567E+01  0.36827271595E+01  0.11316720603E+02  0.10570000000E+00 0.  1.
         13    1    1    2    0    0  0.72157010163E+01 -0.79011500567E+01  0.73861836883E+01  0.13002361145E+02  0.10570000000E+00 0. -1.
<mgrwt>
<rscale>  0 0.21654028E+02</rscale>
<asrwt>0</asrwt>
<pdfrwt beam="2">  1        1 0.10192439E-02 0.21654028E+02</pdfrwt>
<pdfrwt beam="1">  1       -1 0.27221533E-02 0.21654028E+02</pdfrwt>
<totfact> 0.31587175E+06</totfact>
</mgrwt>
</event>
<event>
 4    1  0.4261729E-001  0.3893592E+02  0.7818608E-02  0.1516191E+00
          1   -1    0    0  501    0  0.00000000000E+00  0.00000000000E+00  0.20711831035E+01  0.20711883683E+01  0.46700000000E-02 0. -1.
         -1   -1    0    0    0  501 -0.00000000000E+00 -0.00000000000E+00 -0.18298771356E+03  0.18298771362E+03  0.46700000000E-02 0.  1.
        -13    1    1    2    0    0  0.16662425277E+02 -0.98020093908E+01 -0.79542522637E+02  0.81858047156E+02  0.10570000000E+00 0. -1.
         13    1    1    2    0    0 -0.16662425277E+02  0.98020093908E+01 -0.10137400782E+03  0.10320085484E+03  0.10570000000E+00 0.  1.
<mgrwt>
<rscale>  0 0.38935924E+02</rscale>
<asrwt>0</asrwt>
<pdfrwt beam="1">  1        1 0.31864411E-03 0.38935924E+02</pdfrwt>
<pdfrwt beam="2">  1       -1 0.28151944E-01 0.38935924E+02</pdfrwt>
<totfact> 0.60502702E+05</totfact>
</mgrwt>
</event>
<event>
 4    1  0.4261729E-001  0.3532981E+02  0.7818608E-02  0.1545691E+00
          1   -1    0    0  501    0  0.00000000000E+00  0.00000000000E+00  0.31636882681E+02  0.31636883025E+02  0.46700000000E-02 0. -1.
         -1   -1    0    0    0  501 -0.00000000000E+00 -0.00000000000E+00 -0.98634498004E+01  0.98634509059E+01  0.46700000000E-02 0.  1.
        -13    1    1    2    0    0 -0.10762346431E+02 -0.37440296326E+01  0.26742026174E+02  0.29068763218E+02  0.10570000000E+00 0. -1.
         13    1    1    2    0    0  0.10762346431E+02  0.37440296326E+01 -0.49685932941E+01  0.12431570714E+02  0.10570000000E+00 0.  1.
<mgrwt>
<rscale>  0 0.35329808E+02</rscale>
<asrwt>0</asrwt>
<pdfrwt beam="1">  1        1 0.48672129E-02 0.35329808E+02</pdfrwt>
<pdfrwt beam="2">  1       -1 0.15174539E-02 0.35329808E+02</pdfrwt>
<totfact> 0.10700658E+06</totfact>
</mgrwt>
</event>
<event>
 4    1  0.4261729E-001  0.2108790E+02  0.7818608E-02  0.1724521E+00
         -1   -1    0    0    0  501 -0.00000000000E+00  0.00000000000E+00  0.57112564312E+01  0.57112583405E+01  0.46700000000E-02 0.  1.
          1   -1    0    0  501    0  0.00000000000E+00 -0.00000000000E+00 -0.19465916374E+02  0.19465916935E+02  0.46700000000E-02 0. -1.
        -13    1    1    2    0    0 -0.91624932551E+01  0.49972401744E+01 -0.50904378005E+01  0.11612382249E+02  0.10570000000E+00 0. -1.
         13    1    1    2    0    0  0.91624932551E+01 -0.49972401744E+01 -0.86642221426E+01  0.13564793026E+02  0.10570000000E+00 0.  1.
<mgrwt>
<rscale>  0 0.21087899E+02</rscale>
<asrwt>0</asrwt>
<pdfrwt beam="2">  1        1 0.29947565E-02 0.21087899E+02</pdfrwt>
<pdfrwt beam="1">  1       -1 0.87865504E-03 0.21087899E+02</pdfrwt>
<totfact> 0.35191308E+06</totfact>
</mgrwt>
</event>
<event>
 4    1  0.4261729E-001  0.2312936E+02  0.7818608E-02  0.1689422E+00
          1   -1    0    0  501    0  0.00000000000E+00  0.00000000000E+00  0.16395893061E+01  0.16395959568E+01  0.46700000000E-02 0. -1.
         -1   -1    0    0    0  501 -0.00000000000E+00 -0.00000000000E+00 -0.81570158490E+02  0.81570158623E+02  0.46700000000E-02 0.  1.
        -13    1    1    2    0    0 -0.62355403219E+01  0.93856985509E+01 -0.30613394139E+02  0.32621532361E+02  0.10570000000E+00 0. -1.
         13    1    1    2    0    0  0.62355403219E+01 -0.93856985509E+01 -0.49317175045E+02  0.50588222219E+02  0.10570000000E+00 0.  1.
<mgrwt>
<rscale>  0 0.23129362E+02</rscale>
<asrwt>0</asrwt>
<pdfrwt beam="1">  1        1 0.25224509E-03 0.23129362E+02</pdfrwt>
<pdfrwt beam="2">  1       -1 0.12549252E-01 0.23129362E+02</pdfrwt>
<totfact> 0.23823683E+06</totfact>
</mgrwt>
</event>
<event>
 4    1  0.4261729E-001  0.3408249E+02  0.7818608E-02  0.1556903E+00
          1   -1    0    0  501    0  0.00000000000E+00  0.00000000000E+00  0.38766605086E+01  0.38766633214E+01  0.46700000000E-02 0. -1.
         -1   -1    0    0    0  501 -0.00000000000E+00 -0.00000000000E+00 -0.74910847251E+02  0.74910847397E+02  0.46700000000E-02 0.  1.
        -13    1    1    2    0    0  0.10927038124E+02 -0.21452891469E+00 -0.52927833544E+01  0.12143760248E+02  0.10570000000E+00 0. -1.
         13    1    1    2    0    0 -0.10927038124E+02  0.21452891469E+00 -0.65741403388E+02  0.66643750471E+02  0.10570000000E+00 0.  1.
<mgrwt>
<rscale>  0 0.34082491E+02</rscale>
<asrwt>0</asrwt>
<pdfrwt beam="1">  1        1 0.59640959E-03 0.34082491E+02</pdfrwt>
<pdfrwt beam="2">  1       -1 0.11524745E-01 0.34082491E+02</pdfrwt>
<totfact> 0.98371473E+05</totfact>
</mgrwt>
</event>
<event>
 4    1  0.4261729E-001  0.4379247E+02  0.7818608E-02  0.1482024E+00
          1   -1    0    0  501    0  0.00000000000E+00  0.00000000000E+00  0.10356993902E+03  0.10356993912E+03  0.46700000000E-02 0.  1.
         -1   -1    0    0    0  501 -0.00000000000E+00 -0.00000000000E+00 -0.46291910924E+01  0.46291934480E+01  0.46700000000E-02 0. -1.
        -13    1    1    2    0    0 -0.21183202069E+01  0.18633411740E+02  0.21545428693E+02  0.28564103060E+02  0.10570000000E+00 0. -1.
         13    1    1    2    0    0  0.21183202069E+01 -0.18633411740E+02  0.77395319234E+02  0.79635029512E+02  0.10570000000E+00 0.  1.
<mgrwt>
<rscale>  0 0.43792473E+02</rscale>
<asrwt>0</asrwt>
<pdfrwt beam="1">  1        1 0.15933838E-01 0.43792473E+02</pdfrwt>
<pdfrwt beam="2">  1       -1 0.71218341E-03 0.43792473E+02</pdfrwt>
<totfact> 0.70687293E+05</totfact>
</mgrwt>
</event>
<event>
 4    1  0.4261729E-001  0.2336176E+02  0.7818608E-02  0.1685712E+00
         -1   -1    0    0    0  501 -0.00000000000E+00  0.00000000000E+00  0.38276374091E+01  0.38276402579E+01  0.46700000000E-02 0.  1.
          1   -1    0    0  501    0  0.00000000000E+00 -0.00000000000E+00 -0.35646757379E+02  0.35646757685E+02  0.46700000000E-02 0. -1.
        -13    1    1    2    0    0  0.68400255503E+01  0.94319322657E+01 -0.17307481499E+02  0.20864021284E+02  0.10570000000E+00 0.  1.
         13    1    1    2    0    0 -0.68400255503E+01 -0.94319322657E+01 -0.14511638471E+02  0.18610376659E+02  0.10570000000E+00 0. -1.
<mgrwt>
<rscale>  0 0.23361757E+02</rscale>
<asrwt>0</asrwt>
<pdfrwt beam="2">  1        1 0.54841165E-02 0.23361757E+02</pdfrwt>
<pdfrwt beam="1">  1       -1 0.58886756E-03 0.23361757E+02</pdfrwt>
<totfact> 0.28734679E+06</totfact>
</mgrwt>
</event>
<event>
 4    1  0.4261729E-001  0.2026133E+02  0.7818608E-02  0.1740181E+00
         -1   -1    0    0    0  501 -0.00000000000E+00  0.00000000000E+00  0.18067117036E+01  0.18067177391E+01  0.46700000000E-02 0.  1.
          1   -1    0    0  501    0  0.00000000000E+00 -0.00000000000E+00 -0.56804952157E+02  0.56804952349E+02  0.46700000000E-02 0. -1.
        -13    1    1    2    0    0  0.50947128910E+01 -0.86386661333E+01 -0.23370912134E+02  0.25432132401E+02  0.10570000000E+00 0. -1.
         13    1    1    2    0    0 -0.50947128910E+01  0.86386661333E+01 -0.31627328319E+02  0.33179537687E+02  0.10570000000E+00 0.  1.
<mgrwt>
<rscale>  0 0.20261328E+02</rscale>
<asrwt>0</asrwt>
<pdfrwt beam="2">  1        1 0.87392225E-02 0.20261328E+02</pdfrwt>
<pdfrwt beam="1">  1       -1 0.27795617E-03 0.20261328E+02</pdfrwt>
<totfact> 0.40909515E+06</totfact>
</mgrwt>
</event>
<event>
 4    1  0.4261729E-001  0.2951924E+02  0.7818608E-02  0.1603464E+00
          1   -1    0    0  501    0  0.00000000000E+00  0.00000000000E+00  0.40952628076E+01  0.40952654703E+01  0.46700000000E-02 0.  1.
         -1   -1    0    0    0  501 -0.00000000000E+00 -0.00000000000E+00 -0.53194693161E+02  0.53194693366E+02  0.46700000000E-02 0. -1.
        -13    1    1    2    0    0 -0.11485205119E+02  0.61281549374E+01 -0.11051832558E+02  0.17076837967E+02  0.10570000000E+00 0.  1.
         13    1    1    2    0    0  0.11485205119E+02 -0.61281549374E+01 -0.38047597795E+02  0.40213120869E+02  0.10570000000E+00 0. -1.
<mgrwt>
<rscale>  0 0.29519236E+02</rscale>
<asrwt>0</asrwt>
<pdfrwt beam="1">  1        1 0.63004069E-03 0.29519236E+02</pdfrwt>
<pdfrwt beam="2">  1       -1 0.81837987E-02 0.29519236E+02</pdfrwt>
<totfact> 0.14364593E+06</totfact>
</mgrwt>
</event>
<event>
 4    1  0.4261729E-001  0.2436396E+02  0.7818608E-02  0.1670309E+00
          1   -1    0    0  501    0  0.00000000000E+00  0.00000000000E+00  0.45086594387E+01  0.45086618572E+01  0.46700000000E-02 0.  1.
         -1   -1    0    0    0  501 -0.00000000000E+00 -0.00000000000E+00 -0.32914567098E+02  0.32914567429E+02  0.46700000000E-02 0. -1.
        -13    1    1    2    0    0  0.11227436308E+02 -0.28315235615E+01 -0.83911177315E+01  0.14300170664E+02  0.10570000000E+00 0.  1.
         13    1    1    2    0    0 -0.11227436308E+02  0.28315235615E+01 -0.20014789928E+02  0.23123058623E+02  0.10570000000E+00 0. -1.
<mgrwt>
<rscale>  0 0.24363959E+02</rscale>
<asrwt>0</asrwt>
<pdfrwt beam="1">  1        1 0.69364015E-03 0.24363959E+02</pdfrwt>
<pdfrwt beam="2">  1       -1 0.50637796E-02 0.24363959E+02</pdfrwt>
<totfact> 0.23314286E+06</totfact>
</mgrwt>
</event>
<event>
 4    1  0.4261729E-001  0.4029984E+02  0.7818608E-02  0.1506016E+00
         -1   -1    0    0    0  501 -0.00000000000E+00  0.00000000000E+00  0.44913387583E+01  0.44913411862E+01  0.46700000000E-02 0.  1.
          1   -1    0    0  501    0  0.00000000000E+00 -0.00000000000E+00 -0.90400481625E+02  0.90400481746E+02  0.46700000000E-02 0. -1.
        -13    1    1    2    0    0 -0.43560807245E+01 -0.19468470836E+02 -0.49619231680E+02  0.53479679515E+02  0.10570000000E+00 0. -1.
         13    1    1    2    0    0  0.43560807245E+01  0.19468470836E+02 -0.36289911187E+02  0.41412143417E+02  0.10570000000E+00 0.  1.
<mgrwt>
<rscale>  0 0.40299842E+02</rscale>
<asrwt>0</asrwt>
<pdfrwt beam="2">  1        1 0.13907765E-01 0.40299842E+02</pdfrwt>
<pdfrwt beam="1">  1       -1 0.69097545E-03 0.40299842E+02</pdfrwt>
<totfact> 0.85309190E+05</totfact>
</mgrwt>
</event>
<event>
 4    1  0.4261729E-001  0.5219645E+02  0.7818608E-02  0.1433842E+00
         -1   -1    0    0    0  501 -0.00000000000E+00  0.00000000000E+00  0.57948693247E+02  0.57948693435E+02  0.46700000000E-02 0.  1.
          1   -1    0    0  501    0  0.00000000000E+00 -0.00000000000E+00 -0.11753799174E+02  0.11753800102E+02  0.46700000000E-02 0. -1.
        -13    1    1    2    0    0 -0.25157611570E+02 -0.24729592639E+01  0.14434370320E+02  0.29109846555E+02  0.10570000000E+00 0. -1.
         13    1    1    2    0    0  0.25157611570E+02  0.24729592639E+01  0.31760523753E+02  0.40592646982E+02  0.10570000000E+00 0.  1.
<mgrwt>
<rscale>  0 0.52196450E+02</rscale>
<asrwt>0</asrwt>
<pdfrwt beam="2">  1        1 0.18082768E-02 0.52196450E+02</pdfrwt>
<pdfrwt beam="1">  1       -1 0.89151839E-02 0.52196450E+02</pdfrwt>
<totfact> 0.36143405E+05</totfact>
</mgrwt>
</event>
<event>
 4    1  0.4261729E-001  0.2498338E+02  0.7818608E-02  0.1661241E+00
          1   -1    0    0  501    0  0.00000000000E+00  0.00000000000E+00  0.38837887974E+02  0.38837888255E+02  0.46700000000E-02 0. -1.
         -1   -1    0    0    0  501 -0.00000000000E+00 -0.00000000000E+00 -0.40177838668E+01  0.40177865809E+01  0.46700000000E-02 0.  1.
        -13    1    1    2    0    0 -0.11104888738E+02 -0.49110535604E+01  0.22438779948E+02  0.25513663379E+02  0.10570000000E+00 0. -1.
         13    1    1    2    0    0  0.11104888738E+02  0.49110535604E+01  0.12381324159E+02  0.17342011457E+02  0.10570000000E+00 0.  1.
<mgrwt>
<rscale>  0 0.24983379E+02</rscale>
<asrwt>0</asrwt>
<pdfrwt beam="1">  1        1 0.59750597E-02 0.24983379E+02</pdfrwt>
<pdfrwt beam="2">  1       -1 0.61812085E-03 0.24983379E+02</pdfrwt>
<totfact> 0.24753328E+06</totfact>
</mgrwt>
</event>
<event>
 4    1  0.4261729E-001  0.4245403E+02  0.7818608E-02  0.1490892E+00
          1   -1    0    0  501    0  0.00000000000E+00  0.00000000000E+00  0.40322044444E+01  0.40322071488E+01  0.46700000000E-02 0. -1.
         -1   -1    0    0    0  501 -0.00000000000E+00 -0.00000000000E+00 -0.11174680318E+03  0.11174680328E+03  0.46700000000E-02 0.  1.
        -13    1    1    2    0    0 -0.18393547495E+02  0.41445501413E+01 -0.27265713439E+02  0.33150115945E+02  0.10570000000E+00 0. -1.
         13    1    1    2    0    0  0.18393547495E+02 -0.41445501413E+01 -0.80448885297E+02  0.82628894482E+02  0.10570000000E+00 0.  1.
<mgrwt>
<rscale>  0 0.42454028E+02</rscale>
<asrwt>0</asrwt>
<pdfrwt beam="1">  1        1 0.62033945E-03 0.42454028E+02</pdfrwt>
<pdfrwt beam="2">  1       -1 0.17191814E-01 0.42454028E+02</pdfrwt>
<totfact> 0.54558459E+05</totfact>
</mgrwt>
</event>
<event>
 4    1  0.4261729E-001  0.4209013E+02  0.7818608E-02  0.1493370E+00
          1   -1    0    0  501    0  0.00000000000E+00  0.00000000000E+00  0.34544444692E+01  0.34544476259E+01  0.46700000000E-02 0. -1.
         -1   -1    0    0    0  501 -0.00000000000E+00 -0.00000000000E+00 -0.12821004992E+03  0.12821005000E+03  0.46700000000E-02 0.  1.
        -13    1    1    2    0    0 -0.17065901760E+02 -0.68701724659E+01 -0.30409443298E+02  0.35541379922E+02  0.10570000000E+00 0. -1.
         13    1    1    2    0    0  0.17065901760E+02  0.68701724659E+01 -0.94346162151E+02  0.96123117707E+02  0.10570000000E+00 0.  1.
<mgrwt>
<rscale>  0 0.42090128E+02</rscale>
<asrwt>0</asrwt>
<pdfrwt beam="1">  1        1 0.53145335E-03 0.42090128E+02</pdfrwt>
<pdfrwt beam="2">  1       -1 0.19724620E-01 0.42090128E+02</pdfrwt>
<totfact> 0.54298027E+05</totfact>
</mgrwt>
</event>
<event>
 4    1  0.4261729E-001  0.5222648E+02  0.7818608E-02  0.1433690E+00
          1   -1    0    0  501    0  0.00000000000E+00  0.00000000000E+00  0.10377155100E+02  0.10377156151E+02  0.46700000000E-02 0.  1.
         -1   -1    0    0    0  501 -0.00000000000E+00 -0.00000000000E+00 -0.65711761513E+02  0.65711761679E+02  0.46700000000E-02 0. -1.
        -13    1    1    2    0    0 -0.15224959084E+02  0.17819841742E+02 -0.44440294513E+02  0.50242383380E+02  0.10570000000E+00 0. -1.
         13    1    1    2    0    0  0.15224959084E+02 -0.17819841742E+02 -0.10894311899E+02  0.25846534450E+02  0.10570000000E+00 0.  1.
<mgrwt>
<rscale>  0 0.52226476E+02</rscale>
<asrwt>0</asrwt>
<pdfrwt beam="1">  1        1 0.15964855E-02 0.52226476E+02</pdfrwt>
<pdfrwt beam="2">  1       -1 0.10109502E-01 0.52226476E+02</pdfrwt>
<totfact> 0.35531115E+05</totfact>
</mgrwt>
</event>
<event>
 4    1  0.4261729E-001  0.2610071E+02  0.7818608E-02  0.1645677E+00
          1   -1    0    0  501    0  0.00000000000E+00  0.00000000000E+00  0.55422448225E+01  0.55422467900E+01  0.46700000000E-02 0.  1.
         -1   -1    0    0    0  501 -0.00000000000E+00 -0.00000000000E+00 -0.30729739278E+02  0.30729739633E+02  0.46700000000E-02 0. -1.
        -13    1    1    2    0    0 -0.74579637991E+01  0.91257331096E+01 -0.20381038990E+02  0.23543537364E+02  0.10570000000E+00 0. -1.
         13    1    1    2    0    0  0.74579637991E+01 -0.91257331096E+01 -0.48064554661E+01  0.12728449059E+02  0.10570000000E+00 0.  1.
<mgrwt>
<rscale>  0 0.26100711E+02</rscale>
<asrwt>0</asrwt>
<pdfrwt beam="1">  1        1 0.85265325E-03 0.26100711E+02</pdfrwt>
<pdfrwt beam="2">  1       -1 0.47276523E-02 0.26100711E+02</pdfrwt>
<totfact> 0.20030614E+06</totfact>
</mgrwt>
</event>
<event>
 4    1  0.4261729E-001  0.2073826E+02  0.7818608E-02  0.1731033E+00
          1   -1    0    0  501    0  0.00000000000E+00  0.00000000000E+00  0.33090649866E+01  0.33090682820E+01  0.46700000000E-02 0. -1.
         -1   -1    0    0    0  501 -0.00000000000E+00 -0.00000000000E+00 -0.32492196995E+02  0.32492197330E+02  0.46700000000E-02 0.  1.
        -13    1    1    2    0    0 -0.66322736390E+01  0.78524905083E+01 -0.16945360053E+02  0.19819310297E+02  0.10570000000E+00 0.  1.
         13    1    1    2    0    0  0.66322736390E+01 -0.78524905083E+01 -0.12237771955E+02  0.15981955316E+02  0.10570000000E+00 0. -1.
<mgrwt>
<rscale>  0 0.20738260E+02</rscale>
<asrwt>0</asrwt>
<pdfrwt beam="1">  1        1 0.50908722E-03 0.20738260E+02</pdfrwt>
<pdfrwt beam="2">  1       -1 0.49987996E-02 0.20738260E+02</pdfrwt>
<totfact> 0.33483995E+06</totfact>
</mgrwt>
</event>
<event>
 4    1  0.4261729E-001  0.3000266E+02  0.7818608E-02  0.1598059E+00
         -1   -1    0    0    0  501 -0.00000000000E+00  0.00000000000E+00  0.12866246946E+02  0.12866247793E+02  0.46700000000E-02 0.  1.
          1   -1    0    0  501    0  0.00000000000E+00 -0.00000000000E+00 -0.17490722346E+02  0.17490722970E+02  0.46700000000E-02 0. -1.
        -13    1    1    2    0    0 -0.90763719892E+01  0.72744663683E+01  0.72722396453E+01  0.13718419420E+02  0.10570000000E+00 0.  1.
         13    1    1    2    0    0  0.90763719892E+01 -0.72744663683E+01 -0.11896715046E+02  0.16638551343E+02  0.10570000000E+00 0. -1.
<mgrwt>
<rscale>  0 0.30002665E+02</rscale>
<asrwt>0</asrwt>
<pdfrwt beam="2">  1        1 0.26908805E-02 0.30002665E+02</pdfrwt>
<pdfrwt beam="1">  1       -1 0.19794227E-02 0.30002665E+02</pdfrwt>
<totfact> 0.15344277E+06</totfact>
</mgrwt>
</event>
<event>
 4    1  0.4261729E-001  0.6359069E+02  0.7818608E-02  0.1383353E+00
          1   -1    0    0  501    0  0.00000000000E+00  0.00000000000E+00  0.36308437576E+02  0.36308437876E+02  0.46700000000E-02 0. -1.
         -1   -1    0    0    0  501 -0.00000000000E+00 -0.00000000000E+00 -0.27843223435E+02  0.27843223826E+02  0.46700000000E-02 0.  1.
        -13    1    1    2    0    0 -0.28165926037E+02 -0.23377218665E+01  0.18926413407E+02  0.34014770762E+02  0.10570000000E+00 0. -1.
         13    1    1    2    0    0  0.28165926037E+02  0.23377218665E+01 -0.10461199266E+02  0.30136890941E+02  0.10570000000E+00 0.  1.
<mgrwt>
<rscale>  0 0.63590690E+02</rscale>
<asrwt>0</asrwt>
<pdfrwt beam="1">  1        1 0.55859135E-02 0.63590690E+02</pdfrwt>
<pdfrwt beam="2">  1       -1 0.42835729E-02 0.63590690E+02</pdfrwt>
<totfact> 0.24082709E+05</totfact>
</mgrwt>
</event>
<event>
 4    1  0.4261729E-001  0.3936660E+02  0.7818608E-02  0.1512925E+00
          1   -1    0    0  501    0  0.00000000000E+00  0.00000000000E+00  0.67739688378E+02  0.67739688539E+02  0.46700000000E-02 0.  1.
         -1   -1    0    0    0  501 -0.00000000000E+00 -0.00000000000E+00 -0.57194263944E+01  0.57194283010E+01  0.46700000000E-02 0. -1.
        -13    1    1    2    0    0 -0.37714402452E+01  0.10481790396E+02  0.72932137048E+00  0.11163994518E+02  0.10570000000E+00 0. -1.
         13    1    1    2    0    0  0.37714402452E+01 -0.10481790396E+02  0.61290940613E+02  0.62295122322E+02  0.10570000000E+00 0.  1.
<mgrwt>
<rscale>  0 0.39366597E+02</rscale>
<asrwt>0</asrwt>
<pdfrwt beam="1">  1        1 0.10421491E-01 0.39366597E+02</pdfrwt>
<pdfrwt beam="2">  1       -1 0.87991191E-03 0.39366597E+02</pdfrwt>
<totfact> 0.87497852E+05</totfact>
</mgrwt>
</event>
<event>
 4    1  0.4261729E-001  0.2148001E+02  0.7818608E-02  0.1717403E+00
          1   -1    0    0  501    0  0.00000000000E+00  0.00000000000E+00  0.79332764745E+02  0.79332764882E+02  0.46700000000E-02 0. -1.
         -1   -1    0    0    0  501 -0.00000000000E+00 -0.00000000000E+00 -0.14539694232E+01  0.14539769230E+01  0.46700000000E-02 0.  1.
        -13    1    1    2    0    0 -0.48419968555E+01  0.88028848293E+01  0.53211877141E+02  0.54152107588E+02  0.10570000000E+00 0. -1.
         13    1    1    2    0    0  0.48419968555E+01 -0.88028848293E+01  0.24666918181E+02  0.26634634217E+02  0.10570000000E+00 0.  1.
<mgrwt>
<rscale>  0 0.21480011E+02</rscale>
<asrwt>0</asrwt>
<pdfrwt beam="1">  1        1 0.12205040E-01 0.21480011E+02</pdfrwt>
<pdfrwt beam="2">  1       -1 0.22368822E-03 0.21480011E+02</pdfrwt>
<totfact> 0.36958446E+06</totfact>
</mgrwt>
</event>
<event>
 4    1  0.4261729E-001  0.3282309E+02  0.7818608E-02  0.1568828E+00
          1   -1    0    0  501    0  0.00000000000E+00  0.00000000000E+00  0.32871919993E+02  0.32871920325E+02  0.46700000000E-02 0.  1.
         -1   -1    0    0    0  501 -0.00000000000E+00 -0.00000000000E+00 -0.81935830241E+01  0.81935843549E+01  0.46700000000E-02 0. -1.
        -13    1    1    2    0    0 -0.11557893706E+02 -0.42732762166E+01  0.25899899546E+02  0.28682080914E+02  0.10570000000E+00 0.  1.
         13    1    1    2    0    0  0.11557893706E+02  0.42732762166E+01 -0.12215625770E+01  0.12383423766E+02  0.10570000000E+00 0. -1.
<mgrwt>
<rscale>  0 0.32823092E+02</rscale>
<asrwt>0</asrwt>
<pdfrwt beam="1">  1        1 0.50572186E-02 0.32823092E+02</pdfrwt>
<pdfrwt beam="2">  1       -1 0.12605514E-02 0.32823092E+02</pdfrwt>
<totfact> 0.12832104E+06</totfact>
</mgrwt>
</event>
<event>
 4    1  0.4261729E-001  0.2352119E+02  0.7818608E-02  0.1683198E+00
         -1   -1    0    0    0  501 -0.00000000000E+00  0.00000000000E+00  0.12224958274E+02  0.12224959166E+02  0.46700000000E-02 0. -1.
          1   -1    0    0  501    0  0.00000000000E+00 -0.00000000000E+00 -0.11313871409E+02  0.11313872373E+02  0.46700000000E-02 0.  1.
        -13    1    1    2    0    0  0.44812789406E+01  0.10681586447E+02  0.24874121026E+01  0.11848060661E+02  0.10570000000E+00 0. -1.
         13    1    1    2    0    0 -0.44812789406E+01 -0.10681586447E+02 -0.15763252374E+01  0.11690770877E+02  0.10570000000E+00 0.  1.
<mgrwt>
<rscale>  0 0.23521193E+02</rscale>
<asrwt>0</asrwt>
<pdfrwt beam="2">  1        1 0.17405957E-02 0.23521193E+02</pdfrwt>
<pdfrwt beam="1">  1       -1 0.18807630E-02 0.23521193E+02</pdfrwt>
<totfact> 0.26737465E+06</totfact>
</mgrwt>
</event>
<event>
 4    1  0.4261729E-001  0.6117140E+02  0.7818608E-02  0.1392981E+00
         -1   -1    0    0    0  501 -0.00000000000E+00  0.00000000000E+00  0.11320980159E+02  0.11320981122E+02  0.46700000000E-02 0.  1.
          1   -1    0    0  501    0  0.00000000000E+00 -0.00000000000E+00 -0.82632857756E+02  0.82632857888E+02  0.46700000000E-02 0. -1.
        -13    1    1    2    0    0 -0.21527747295E+02 -0.21710354125E+02 -0.36932171318E+02  0.47945592400E+02  0.10570000000E+00 0. -1.
         13    1    1    2    0    0  0.21527747295E+02  0.21710354125E+02 -0.34379706280E+02  0.46008246611E+02  0.10570000000E+00 0.  1.
<mgrwt>
<rscale>  0 0.61171398E+02</rscale>
<asrwt>0</asrwt>
<pdfrwt beam="2">  1        1 0.12712747E-01 0.61171398E+02</pdfrwt>
<pdfrwt beam="1">  1       -1 0.17416894E-02 0.61171398E+02</pdfrwt>
<totfact> 0.29375856E+05</totfact>
</mgrwt>
</event>
<event>
 4    1  0.4261729E-001  0.2321715E+02  0.7818608E-02  0.1688014E+00
         -1   -1    0    0    0  501 -0.00000000000E+00  0.00000000000E+00  0.36964631882E+01  0.36964661381E+01  0.46700000000E-02 0. -1.
          1   -1    0    0  501    0  0.00000000000E+00 -0.00000000000E+00 -0.36456175657E+02  0.36456175956E+02  0.46700000000E-02 0.  1.
        -13    1    1    2    0    0  0.98694223903E+01  0.54510576784E+01 -0.11603260612E+02  0.16179195204E+02  0.10570000000E+00 0.  1.
         13    1    1    2    0    0 -0.98694223903E+01 -0.54510576784E+01 -0.21156451857E+02  0.23973446890E+02  0.10570000000E+00 0. -1.
<mgrwt>
<rscale>  0 0.23217147E+02</rscale>
<asrwt>0</asrwt>
<pdfrwt beam="2">  1        1 0.56086424E-02 0.23217147E+02</pdfrwt>
<pdfrwt beam="1">  1       -1 0.56868692E-03 0.23217147E+02</pdfrwt>
<totfact> 0.29185512E+06</totfact>
</mgrwt>
</event>
<event>
 4    1  0.4261729E-001  0.2293579E+02  0.7818608E-02  0.1692553E+00
          1   -1    0    0  501    0  0.00000000000E+00  0.00000000000E+00  0.57429434273E+02  0.57429434463E+02  0.46700000000E-02 0.  1.
         -1   -1    0    0    0  501 -0.00000000000E+00 -0.00000000000E+00 -0.22899838124E+01  0.22899885742E+01  0.46700000000E-02 0. -1.
        -13    1    1    2    0    0  0.87780441343E+01 -0.73441903922E+01  0.29429657668E+02  0.31577002934E+02  0.10570000000E+00 0.  1.
         13    1    1    2    0    0 -0.87780441343E+01  0.73441903922E+01  0.25709792792E+02  0.28142420102E+02  0.10570000000E+00 0. -1.
<mgrwt>
<rscale>  0 0.22935791E+02</rscale>
<asrwt>0</asrwt>
<pdfrwt beam="1">  1        1 0.88352979E-02 0.22935791E+02</pdfrwt>
<pdfrwt beam="2">  1       -1 0.35230559E-03 0.22935791E+02</pdfrwt>
<totfact> 0.30977343E+06</totfact>
</mgrwt>
</event>
<event>
 4    1  0.4261729E-001  0.3329705E+02  0.7818608E-02  0.1564265E+00
          1   -1    0    0  501    0  0.00000000000E+00  0.00000000000E+00  0.44946035043E+02  0.44946035286E+02  0.46700000000E-02 0.  1.
         -1   -1    0    0    0  501 -0.00000000000E+00 -0.00000000000E+00 -0.61668046058E+01  0.61668063740E+01  0.46700000000E-02 0. -1.
        -13    1    1    2    0    0  0.86392034850E+01  0.99975604945E+01  0.34936575139E+02  0.37351874218E+02  0.10570000000E+00 0.  1.
         13    1    1    2    0    0 -0.86392034850E+01 -0.99975604945E+01  0.38426552987E+01  0.13760967442E+02  0.10570000000E+00 0. -1.
<mgrwt>
<rscale>  0 0.33297055E+02</rscale>
<asrwt>0</asrwt>
<pdfrwt beam="1">  1        1 0.69147747E-02 0.33297055E+02</pdfrwt>
<pdfrwt beam="2">  1       -1 0.94873934E-03 0.33297055E+02</pdfrwt>
<totfact> 0.12680498E+06</totfact>
</mgrwt>
</event>
<event>
 4    1  0.4261729E-001  0.4550424E+02  0.7818608E-02  0.1471218E+00
          1   -1    0    0  501    0  0.00000000000E+00  0.00000000000E+00  0.24504175996E+02  0.24504176441E+02  0.46700000000E-02 0. -1.
         -1   -1    0    0    0  501 -0.00000000000E+00 -0.00000000000E+00 -0.21125336495E+02  0.21125337011E+02  0.46700000000E-02 0.  1.
        -13    1    1    2    0    0 -0.22270933802E+01  0.15122374152E+02  0.18588163063E+02  0.24066099050E+02  0.10570000000E+00 0. -1.
         13    1    1    2    0    0  0.22270933802E+01 -0.15122374152E+02 -0.15209323563E+02  0.21563414402E+02  0.10570000000E+00 0.  1.
<mgrwt>
<rscale>  0 0.45504241E+02</rscale>
<asrwt>0</asrwt>
<pdfrwt beam="1">  1        1 0.37698733E-02 0.45504241E+02</pdfrwt>
<pdfrwt beam="2">  1       -1 0.32500519E-02 0.45504241E+02</pdfrwt>
<totfact> 0.55688990E+05</totfact>
</mgrwt>
</event>
<event>
 4    1  0.4261729E-001  0.3129975E+02  0.7818608E-02  0.1584151E+00
          1   -1    0    0  501    0  0.00000000000E+00  0.00000000000E+00  0.49982660594E+02  0.49982660812E+02  0.46700000000E-02 0. -1.
         -1   -1    0    0    0  501 -0.00000000000E+00 -0.00000000000E+00 -0.49000705895E+01  0.49000728149E+01  0.46700000000E-02 0.  1.
        -13    1    1    2    0    0 -0.15419919676E+02 -0.16255424017E+01  0.26257276558E+02  0.30493803561E+02  0.10570000000E+00 0. -1.
         13    1    1    2    0    0  0.15419919676E+02  0.16255424017E+01  0.18825313447E+02  0.24388930066E+02  0.10570000000E+00 0.  1.
<mgrwt>
<rscale>  0 0.31299753E+02</rscale>
<asrwt>0</asrwt>
<pdfrwt beam="1">  1        1 0.76896404E-02 0.31299753E+02</pdfrwt>
<pdfrwt beam="2">  1       -1 0.75385719E-03 0.31299753E+02</pdfrwt>
<totfact> 0.14836543E+06</totfact>
</mgrwt>
</event>
<event>
 4    1  0.4261729E-001  0.4483720E+02  0.7818608E-02  0.1475361E+00
          1   -1    0    0  501    0  0.00000000000E+00  0.00000000000E+00  0.21385159787E+02  0.21385160297E+02  0.46700000000E-02 0.  1.
         -1   -1    0    0    0  501 -0.00000000000E+00 -0.00000000000E+00 -0.23501975725E+02  0.23501976189E+02  0.46700000000E-02 0. -1.
        -13    1    1    2    0    0 -0.17801471710E+02  0.22060135905E+01 -0.14520447221E+02  0.23078419594E+02  0.10570000000E+00 0.  1.
         13    1    1    2    0    0  0.17801471710E+02 -0.22060135905E+01  0.12403631283E+02  0.21808716892E+02  0.10570000000E+00 0. -1.
<mgrwt>
<rscale>  0 0.44837196E+02</rscale>
<asrwt>0</asrwt>
<pdfrwt beam="1">  1        1 0.32900247E-02 0.44837196E+02</pdfrwt>
<pdfrwt beam="2">  1       -1 0.36156886E-02 0.44837196E+02</pdfrwt>
<totfact> 0.57196257E+05</totfact>
</mgrwt>
</event>
<event>
 4    1  0.4261729E-001  0.3005959E+02  0.7818608E-02  0.1597431E+00
          1   -1    0    0  501    0  0.00000000000E+00  0.00000000000E+00  0.11946508569E+02  0.11946509482E+02  0.46700000000E-02 0.  1.
         -1   -1    0    0    0  501 -0.00000000000E+00 -0.00000000000E+00 -0.18908848465E+02  0.18908849042E+02  0.46700000000E-02 0. -1.
        -13    1    1    2    0    0  0.70922469846E+01  0.13222458221E+02 -0.25920985301E+01  0.15227065245E+02  0.10570000000E+00 0. -1.
         13    1    1    2    0    0 -0.70922469846E+01 -0.13222458221E+02 -0.43702413664E+01  0.15628293279E+02  0.10570000000E+00 0.  1.
<mgrwt>
<rscale>  0 0.30059590E+02</rscale>
<asrwt>0</asrwt>
<pdfrwt beam="1">  1        1 0.18379245E-02 0.30059590E+02</pdfrwt>
<pdfrwt beam="2">  1       -1 0.29090537E-02 0.30059590E+02</pdfrwt>
<totfact> 0.14939696E+06</totfact>
</mgrwt>
</event>
<event>
 4    1  0.4261729E-001  0.3238734E+02  0.7818608E-02  0.1573106E+00
         -1   -1    0    0    0  501 -0.00000000000E+00  0.00000000000E+00  0.65005658439E+02  0.65005658607E+02  0.46700000000E-02 0. -1.
          1   -1    0    0  501    0  0.00000000000E+00 -0.00000000000E+00 -0.40340322833E+01  0.40340349864E+01  0.46700000000E-02 0.  1.
        -13    1    1    2    0    0  0.99564941530E+00  0.12457156453E+02  0.85333878364E+01  0.15132810218E+02  0.10570000000E+00 0.  1.
         13    1    1    2    0    0 -0.99564941530E+00 -0.12457156453E+02  0.52438238320E+02  0.53906883375E+02  0.10570000000E+00 0. -1.
<mgrwt>
<rscale>  0 0.32387345E+02</rscale>
<asrwt>0</asrwt>
<pdfrwt beam="2">  1        1 0.62062060E-03 0.32387345E+02</pdfrwt>
<pdfrwt beam="1">  1       -1 0.10000870E-01 0.32387345E+02</pdfrwt>
<totfact> 0.11299554E+06</totfact>
</mgrwt>
</event>
<event>
 4    1  0.4261729E-001  0.3520907E+02  0.7818608E-02  0.1546752E+00
          1   -1    0    0  501    0  0.00000000000E+00  0.00000000000E+00  0.18018071663E+02  0.18018072268E+02  0.46700000000E-02 0.  1.
         -1   -1    0    0    0  501 -0.00000000000E+00 -0.00000000000E+00 -0.17200490817E+02  0.17200491451E+02  0.46700000000E-02 0. -1.
        -13    1    1    2    0    0  0.10647570698E+02 -0.10221551426E+02 -0.91884637654E+01  0.17386486539E+02  0.10570000000E+00 0. -1.
         13    1    1    2    0    0 -0.10647570698E+02  0.10221551426E+02  0.10006044611E+02  0.17832077180E+02  0.10570000000E+00 0.  1.
<mgrwt>
<rscale>  0 0.35209073E+02</rscale>
<asrwt>0</asrwt>
<pdfrwt beam="1">  1        1 0.27720111E-02 0.35209073E+02</pdfrwt>
<pdfrwt beam="2">  1       -1 0.26462294E-02 0.35209073E+02</pdfrwt>
<totfact> 0.10394471E+06</totfact>
</mgrwt>
</event>
<event>
 4    1  0.4261729E-001  0.2812329E+02  0.7818608E-02  0.1619810E+00
         -1   -1    0    0    0  501 -0.00000000000E+00  0.00000000000E+00  0.20947638540E+02  0.20947639060E+02  0.46700000000E-02 0. -1.
          1   -1    0    0  501    0  0.00000000000E+00 -0.00000000000E+00 -0.94392398774E+01  0.94392410326E+01  0.46700000000E-02 0.  1.
        -13    1    1    2    0    0  0.12718705573E+02  0.34296679638E+01  0.43993856839E+00  0.13180774341E+02  0.10570000000E+00 0.  1.
         13    1    1    2    0    0 -0.12718705573E+02 -0.34296679638E+01  0.11068460094E+02  0.17206105752E+02  0.10570000000E+00 0. -1.
<mgrwt>
<rscale>  0 0.28123286E+02</rscale>
<asrwt>0</asrwt>
<pdfrwt beam="2">  1        1 0.14521909E-02 0.28123286E+02</pdfrwt>
<pdfrwt beam="1">  1       -1 0.32227137E-02 0.28123286E+02</pdfrwt>
<totfact> 0.17313658E+06</totfact>
</mgrwt>
</event>
<event>
 4    1  0.4261729E-001  0.2592351E+02  0.7818608E-02  0.1648081E+00
          1   -1    0    0  501    0  0.00000000000E+00  0.00000000000E+00  0.35739019180E+02  0.35739019485E+02  0.46700000000E-02 0.  1.
         -1   -1    0    0    0  501 -0.00000000000E+00 -0.00000000000E+00 -0.47009416794E+01  0.47009439990E+01  0.46700000000E-02 0. -1.
        -13    1    1    2    0    0  0.11414494007E+02 -0.42387973172E+01  0.85885021964E+01  0.14900725438E+02  0.10570000000E+00 0. -1.
         13    1    1    2    0    0 -0.11414494007E+02  0.42387973172E+01  0.22449575304E+02  0.25539238045E+02  0.10570000000E+00 0.  1.
<mgrwt>
<rscale>  0 0.25923510E+02</rscale>
<asrwt>0</asrwt>
<pdfrwt beam="1">  1        1 0.54983106E-02 0.25923510E+02</pdfrwt>
<pdfrwt beam="2">  1       -1 0.72322203E-03 0.25923510E+02</pdfrwt>
<totfact> 0.22597075E+06</totfact>
</mgrwt>
</event>
<event>
 4    1  0.4261729E-001  0.3664750E+02  0.7818608E-02  0.1534439E+00
         -1   -1    0    0    0  501 -0.00000000000E+00  0.00000000000E+00  0.25722779879E+01  0.25722822271E+01  0.46700000000E-02 0.  1.
          1   -1    0    0  501    0  0.00000000000E+00 -0.00000000000E+00 -0.13053002948E+03  0.13053002957E+03  0.46700000000E-02 0. -1.
        -13    1    1    2    0    0 -0.17646774015E+02  0.47063411871E+01 -0.69354125271E+02  0.71718645729E+02  0.10570000000E+00 0. -1.
         13    1    1    2    0    0  0.17646774015E+02 -0.47063411871E+01 -0.58603626222E+02  0.61383666064E+02  0.10570000000E+00 0.  1.
<mgrwt>
<rscale>  0 0.36647500E+02</rscale>
<asrwt>0</asrwt>
<pdfrwt beam="2">  1        1 0.20081538E-01 0.36647500E+02</pdfrwt>
<pdfrwt beam="1">  1       -1 0.39573551E-03 0.36647500E+02</pdfrwt>
<totfact> 0.11286452E+06</totfact>
</mgrwt>
</event>
<event>
 4    1  0.4261729E-001  0.3044566E+02  0.7818608E-02  0.1593214E+00
         -1   -1    0    0    0  501 -0.00000000000E+00  0.00000000000E+00  0.52009670143E+01  0.52009691109E+01  0.46700000000E-02 0.  1.
          1   -1    0    0  501    0  0.00000000000E+00 -0.00000000000E+00 -0.44556044427E+02  0.44556044672E+02  0.46700000000E-02 0. -1.
        -13    1    1    2    0    0 -0.52510120135E+01  0.14259425853E+02 -0.21156593214E+02  0.26048358139E+02  0.10570000000E+00 0. -1.
         13    1    1    2    0    0  0.52510120135E+01 -0.14259425853E+02 -0.18198484199E+02  0.23708655644E+02  0.10570000000E+00 0.  1.
<mgrwt>
<rscale>  0 0.30445661E+02</rscale>
<asrwt>0</asrwt>
<pdfrwt beam="2">  1        1 0.68547760E-02 0.30445661E+02</pdfrwt>
<pdfrwt beam="1">  1       -1 0.80014898E-03 0.30445661E+02</pdfrwt>
<totfact> 0.15707766E+06</totfact>
</mgrwt>
</event>
<event>
 4    1  0.4261729E-001  0.4086604E+02  0.7818608E-02  0.1501933E+00
          1   -1    0    0  501    0  0.00000000000E+00  0.00000000000E+00  0.58350588805E+02  0.58350588992E+02  0.46700000000E-02 0. -1.
         -1   -1    0    0    0  501 -0.00000000000E+00 -0.00000000000E+00 -0.71551662490E+01  0.71551677730E+01  0.46700000000E-02 0.  1.
        -13    1    1    2    0    0 -0.44144174038E+01  0.19008004006E+02  0.35309159702E+02  0.40342771702E+02  0.10570000000E+00 0. -1.
         13    1    1    2    0    0  0.44144174038E+01 -0.19008004006E+02  0.15886262855E+02  0.25162985063E+02  0.10570000000E+00 0.  1.
<mgrwt>
<rscale>  0 0.40866036E+02</rscale>
<asrwt>0</asrwt>
<pdfrwt beam="1">  1        1 0.89770136E-02 0.40866036E+02</pdfrwt>
<pdfrwt beam="2">  1       -1 0.11007950E-02 0.40866036E+02</pdfrwt>
<totfact> 0.78609683E+05</totfact>
</mgrwt>
</event>
<event>
 4    1  0.4261729E-001  0.2006143E+02  0.7818608E-02  0.1744109E+00
         -1   -1    0    0    0  501 -0.00000000000E+00  0.00000000000E+00  0.38805302360E+01  0.38805330461E+01  0.46700000000E-02 0. -1.
          1   -1    0    0  501    0  0.00000000000E+00 -0.00000000000E+00 -0.25928203414E+02  0.25928203834E+02  0.46700000000E-02 0.  1.
        -13    1    1    2    0    0 -0.19139457288E+01 -0.98330420784E+01 -0.11769958280E+02  0.15456228362E+02  0.10570000000E+00 0. -1.
         13    1    1    2    0    0  0.19139457288E+01  0.98330420784E+01 -0.10277714898E+02  0.14352508519E+02  0.10570000000E+00 0.  1.
<mgrwt>
<rscale>  0 0.20061428E+02</rscale>
<asrwt>0</asrwt>
<pdfrwt beam="2">  1        1 0.39889545E-02 0.20061428E+02</pdfrwt>
<pdfrwt beam="1">  1       -1 0.59700492E-03 0.20061428E+02</pdfrwt>
<totfact> 0.39893276E+06</totfact>
</mgrwt>
</event>
<event>
 4    1  0.4261729E-001  0.4324203E+02  0.7818608E-02  0.1485624E+00
         -1   -1    0    0    0  501 -0.00000000000E+00  0.00000000000E+00  0.12336645875E+03  0.12336645884E+03  0.46700000000E-02 0. -1.
          1   -1    0    0  501    0  0.00000000000E+00 -0.00000000000E+00 -0.37892633611E+01  0.37892662388E+01  0.46700000000E-02 0.  1.
        -13    1    1    2    0    0  0.57363681029E+01 -0.20791752005E+02  0.55373695565E+02  0.59426090259E+02  0.10570000000E+00 0. -1.
         13    1    1    2    0    0 -0.57363681029E+01  0.20791752005E+02  0.64203499825E+02  0.67729634819E+02  0.10570000000E+00 0.  1.
<mgrwt>
<rscale>  0 0.43242025E+02</rscale>
<asrwt>0</asrwt>
<pdfrwt beam="2">  1        1 0.58296385E-03 0.43242025E+02</pdfrwt>
<pdfrwt beam="1">  1       -1 0.18979455E-01 0.43242025E+02</pdfrwt>
<totfact> 0.51225431E+05</totfact>
</mgrwt>
</event>
<event>
 4    1  0.4261729E-001  0.2929281E+02  0.7818608E-02  0.1606040E+00
         -1   -1    0    0    0  501 -0.00000000000E+00  0.00000000000E+00  0.12512114396E+03  0.12512114405E+03  0.46700000000E-02 0.  1.
          1   -1    0    0  501    0  0.00000000000E+00 -0.00000000000E+00 -0.17144723118E+01  0.17144786720E+01  0.46700000000E-02 0. -1.
        -13    1    1    2    0    0  0.12074346336E+02  0.69690517186E+01  0.42267595518E+02  0.44507508633E+02  0.10570000000E+00 0.  1.
         13    1    1    2    0    0 -0.12074346336E+02 -0.69690517186E+01  0.81139076129E+02  0.82328114085E+02  0.10570000000E+00 0. -1.
<mgrwt>
<rscale>  0 0.29292808E+02</rscale>
<asrwt>0</asrwt>
<pdfrwt beam="2">  1        1 0.26376545E-03 0.29292808E+02</pdfrwt>
<pdfrwt beam="1">  1       -1 0.19249409E-01 0.29292808E+02</pdfrwt>
<totfact> 0.12925007E+06</totfact>
</mgrwt>
</event>
<event>
 4    1  0.4261729E-001  0.3012790E+02  0.7818608E-02  0.1596679E+00
         -1   -1    0    0    0  501 -0.00000000000E+00  0.00000000000E+00  0.83941567415E+01  0.83941580406E+01  0.46700000000E-02 0.  1.
          1   -1    0    0  501    0  0.00000000000E+00 -0.00000000000E+00 -0.27033389100E+02  0.27033389504E+02  0.46700000000E-02 0. -1.
        -13    1    1    2    0    0  0.85316415185E+01 -0.83561766317E+01  0.14767533878E+01  0.12033560070E+02  0.10570000000E+00 0.  1.
         13    1    1    2    0    0 -0.85316415185E+01  0.83561766317E+01 -0.20115985747E+02  0.23393987474E+02  0.10570000000E+00 0. -1.
<mgrwt>
<rscale>  0 0.30127896E+02</rscale>
<asrwt>0</asrwt>
<pdfrwt beam="2">  1        1 0.41589830E-02 0.30127896E+02</pdfrwt>
<pdfrwt beam="1">  1       -1 0.12914089E-02 0.30127896E+02</pdfrwt>
<totfact> 0.15577385E+06</totfact>
</mgrwt>
</event>
<event>
 4    1  0.4261729E-001  0.2230576E+02  0.7818608E-02  0.1703017E+00
          1   -1    0    0  501    0  0.00000000000E+00  0.00000000000E+00  0.14671505512E+01  0.14671579836E+01  0.46700000000E-02 0. -1.
         -1   -1    0    0    0  501 -0.00000000000E+00 -0.00000000000E+00 -0.84780978971E+02  0.84780979100E+02  0.46700000000E-02 0.  1.
        -13    1    1    2    0    0 -0.93967336876E+01 -0.60064137679E+01 -0.41649940190E+02  0.43117331790E+02  0.10570000000E+00 0.  1.
         13    1    1    2    0    0  0.93967336876E+01  0.60064137679E+01 -0.41663888229E+02  0.43130805293E+02  0.10570000000E+00 0. -1.
<mgrwt>
<rscale>  0 0.22305765E+02</rscale>
<asrwt>0</asrwt>
<pdfrwt beam="1">  1        1 0.22571612E-03 0.22305765E+02</pdfrwt>
<pdfrwt beam="2">  1       -1 0.13043224E-01 0.22305765E+02</pdfrwt>
<totfact> 0.25694764E+06</totfact>
</mgrwt>
</event>
<event>
 4    1  0.4261729E-001  0.4613966E+02  0.7818608E-02  0.1467350E+00
         -1   -1    0    0    0  501 -0.00000000000E+00  0.00000000000E+00  0.35290331522E+02  0.35290331831E+02  0.46700000000E-02 0. -1.
          1   -1    0    0  501    0  0.00000000000E+00 -0.00000000000E+00 -0.15081100737E+02  0.15081101460E+02  0.46700000000E-02 0.  1.
        -13    1    1    2    0    0  0.90824243851E+01  0.18526483240E+02  0.21370204173E+02  0.29705518222E+02  0.10570000000E+00 0. -1.
         13    1    1    2    0    0 -0.90824243851E+01 -0.18526483240E+02 -0.11609733871E+01  0.20665915069E+02  0.10570000000E+00 0.  1.
<mgrwt>
<rscale>  0 0.46139661E+02</rscale>
<asrwt>0</asrwt>
<pdfrwt beam="2">  1        1 0.23201694E-02 0.46139661E+02</pdfrwt>
<pdfrwt beam="1">  1       -1 0.54292818E-02 0.46139661E+02</pdfrwt>
<totfact> 0.51517785E+05</totfact>
</mgrwt>
</event>
<event>
 4    1  0.4261729E-001  0.2609126E+02  0.7818608E-02  0.1645805E+00
         -1   -1    0    0    0  501 -0.00000000000E+00  0.00000000000E+00  0.86844419452E+02  0.86844419578E+02  0.46700000000E-02 0. -1.
          1   -1    0    0  501    0  0.00000000000E+00 -0.00000000000E+00 -0.19596911925E+01  0.19596967569E+01  0.46700000000E-02 0.  1.
        -13    1    1    2    0    0 -0.71851698750E+01 -0.10207839808E+02  0.55335958540E+02  0.56726591116E+02  0.10570000000E+00 0. -1.
         13    1    1    2    0    0  0.71851698750E+01  0.10207839808E+02  0.29548769720E+02  0.32077525219E+02  0.10570000000E+00 0.  1.
<mgrwt>
<rscale>  0 0.26091263E+02</rscale>
<asrwt>0</asrwt>
<pdfrwt beam="2">  1        1 0.30149139E-03 0.26091263E+02</pdfrwt>
<pdfrwt beam="1">  1       -1 0.13360680E-01 0.26091263E+02</pdfrwt>
<totfact> 0.17961547E+06</totfact>
</mgrwt>
</event>
<event>
 4    1  0.4261729E-001  0.3149303E+02  0.7818608E-02  0.1582148E+00
         -1   -1    0    0    0  501 -0.00000000000E+00  0.00000000000E+00  0.12852740571E+02  0.12852741419E+02  0.46700000000E-02 0. -1.
          1   -1    0    0  501    0  0.00000000000E+00 -0.00000000000E+00 -0.19291820293E+02  0.19291820859E+02  0.46700000000E-02 0.  1.
        -13    1    1    2    0    0  0.75330705517E+01 -0.13597430824E+02 -0.57823277042E+01  0.16585649313E+02  0.10570000000E+00 0. -1.
         13    1    1    2    0    0 -0.75330705517E+01  0.13597430824E+02 -0.65675201836E+00  0.15558912965E+02  0.10570000000E+00 0.  1.
<mgrwt>
<rscale>  0 0.31493033E+02</rscale>
<asrwt>0</asrwt>
<pdfrwt beam="2">  1        1 0.29679725E-02 0.31493033E+02</pdfrwt>
<pdfrwt beam="1">  1       -1 0.19773448E-02 0.31493033E+02</pdfrwt>
<totfact> 0.13721575E+06</totfact>
</mgrwt>
</event>
<event>
 4    1  0.4261729E-001  0.2027531E+02  0.7818608E-02  0.1739908E+00
         -1   -1    0    0    0  501 -0.00000000000E+00  0.00000000000E+00  0.13641156848E+02  0.13641157647E+02  0.46700000000E-02 0.  1.
          1   -1    0    0  501    0  0.00000000000E+00 -0.00000000000E+00 -0.75339664706E+01  0.75339679179E+01  0.46700000000E-02 0. -1.
        -13    1    1    2    0    0  0.90459260135E+01 -0.44194100837E+01  0.18174681431E+01  0.10231047154E+02  0.10570000000E+00 0. -1.
         13    1    1    2    0    0 -0.90459260135E+01  0.44194100837E+01  0.42897222340E+01  0.10944078411E+02  0.10570000000E+00 0.  1.
<mgrwt>
<rscale>  0 0.20275309E+02</rscale>
<asrwt>0</asrwt>
<pdfrwt beam="2">  1        1 0.11590719E-02 0.20275309E+02</pdfrwt>
<pdfrwt beam="1">  1       -1 0.20986397E-02 0.20275309E+02</pdfrwt>
<totfact> 0.36996728E+06</totfact>
</mgrwt>
</event>
<event>
 4    1  0.4261729E-001  0.2900715E+02  0.7818608E-02  0.1609330E+00
          1   -1    0    0  501    0  0.00000000000E+00  0.00000000000E+00  0.81151893580E+02  0.81151893714E+02  0.46700000000E-02 0.  1.
         -1   -1    0    0    0  501 -0.00000000000E+00 -0.00000000000E+00 -0.25920969460E+01  0.25921011528E+01  0.46700000000E-02 0. -1.
        -13    1    1    2    0    0  0.12587321395E+02  0.70573694282E+01  0.35100744085E+02  0.37951555054E+02  0.10570000000E+00 0. -1.
         13    1    1    2    0    0 -0.12587321395E+02 -0.70573694282E+01  0.43459052548E+02  0.45792439813E+02  0.10570000000E+00 0.  1.
<mgrwt>
<rscale>  0 0.29007155E+02</rscale>
<asrwt>0</asrwt>
<pdfrwt beam="1">  1        1 0.12484904E-01 0.29007155E+02</pdfrwt>
<pdfrwt beam="2">  1       -1 0.39878456E-03 0.29007155E+02</pdfrwt>
<totfact> 0.18584159E+06</totfact>
</mgrwt>
</event>
<event>
 4    1  0.4261729E-001  0.2434584E+02  0.7818608E-02  0.1670579E+00
         -1   -1    0    0    0  501 -0.00000000000E+00  0.00000000000E+00  0.13469346190E+01  0.13469427147E+01  0.46700000000E-02 0. -1.
          1   -1    0    0  501    0  0.00000000000E+00 -0.00000000000E+00 -0.11001245466E+03  0.11001245476E+03  0.46700000000E-02 0.  1.
        -13    1    1    2    0    0  0.53907511330E+01  0.10575949810E+02 -0.66655553458E+02  0.67704393442E+02  0.10570000000E+00 0.  1.
         13    1    1    2    0    0 -0.53907511330E+01 -0.10575949810E+02 -0.42009966579E+02  0.43655004028E+02  0.10570000000E+00 0. -1.
<mgrwt>
<rscale>  0 0.24345845E+02</rscale>
<asrwt>0</asrwt>
<pdfrwt beam="2">  1        1 0.16924987E-01 0.24345845E+02</pdfrwt>
<pdfrwt beam="1">  1       -1 0.20722143E-03 0.24345845E+02</pdfrwt>
<totfact> 0.28855011E+06</totfact>
</mgrwt>
</event>
<event>
 4    1  0.4261729E-001  0.3787877E+02  0.7818608E-02  0.1524428E+00
         -1   -1    0    0    0  501 -0.00000000000E+00  0.00000000000E+00  0.69148086113E+01  0.69148101883E+01  0.46700000000E-02 0. -1.
          1   -1    0    0  501    0  0.00000000000E+00 -0.00000000000E+00 -0.51874222139E+02  0.51874222349E+02  0.46700000000E-02 0.  1.
        -13    1    1    2    0    0 -0.15641161012E+02 -0.66865436112E+01 -0.95564581263E+01  0.19511351764E+02  0.10570000000E+00 0. -1.
         13    1    1    2    0    0  0.15641161012E+02  0.66865436112E+01 -0.35402955401E+02  0.39277680773E+02  0.10570000000E+00 0.  1.
<mgrwt>
<rscale>  0 0.37878774E+02</rscale>
<asrwt>0</asrwt>
<pdfrwt beam="2">  1        1 0.79806494E-02 0.37878774E+02</pdfrwt>
<pdfrwt beam="1">  1       -1 0.10638169E-02 0.37878774E+02</pdfrwt>
<totfact> 0.93761170E+05</totfact>
</mgrwt>
</event>
<event>
 4    1  0.4261729E-001  0.3651556E+02  0.7818608E-02  0.1535540E+00
          1   -1    0    0  501    0  0.00000000000E+00  0.00000000000E+00  0.89733664923E+01  0.89733677075E+01  0.46700000000E-02 0.  1.
         -1   -1    0    0    0  501 -0.00000000000E+00 -0.00000000000E+00 -0.37148440898E+02  0.37148441192E+02  0.46700000000E-02 0. -1.
        -13    1    1    2    0    0 -0.16743175138E+02 -0.44626121902E+01 -0.68222215162E+01  0.18622639452E+02  0.10570000000E+00 0.  1.
         13    1    1    2    0    0  0.16743175138E+02  0.44626121902E+01 -0.21352852890E+02  0.27499169447E+02  0.10570000000E+00 0. -1.
<mgrwt>
<rscale>  0 0.36515564E+02</rscale>
<asrwt>0</asrwt>
<pdfrwt beam="1">  1        1 0.13805181E-02 0.36515564E+02</pdfrwt>
<pdfrwt beam="2">  1       -1 0.57151448E-02 0.36515564E+02</pdfrwt>
<totfact> 0.90050243E+05</totfact>
</mgrwt>
</event>
<event>
 4    1  0.4261729E-001  0.8181472E+02  0.7818608E-02  0.1323979E+00
          1   -1    0    0  501    0  0.00000000000E+00  0.00000000000E+00  0.28457176499E+03  0.28457176503E+03  0.46700000000E-02 0. -1.
         -1   -1    0    0    0  501 -0.00000000000E+00 -0.00000000000E+00 -0.58804561144E+01  0.58804579688E+01  0.46700000000E-02 0.  1.
        -13    1    1    2    0    0 -0.30164233510E+02  0.26648482159E+02  0.16528300453E+03  0.17011321332E+03  0.10570000000E+00 0. -1.
         13    1    1    2    0    0  0.30164233510E+02 -0.26648482159E+02  0.11340830434E+03  0.12033900968E+03  0.10570000000E+00 0.  1.
<mgrwt>
<rscale>  0 0.81814719E+02</rscale>
<asrwt>0</asrwt>
<pdfrwt beam="1">  1        1 0.43780265E-01 0.81814719E+02</pdfrwt>
<pdfrwt beam="2">  1       -1 0.90468584E-03 0.81814719E+02</pdfrwt>
<totfact> 0.16901678E+05</totfact>
</mgrwt>
</event>
<event>
 4    1  0.4261729E-001  0.2316138E+02  0.7818608E-02  0.1688907E+00
         -1   -1    0    0    0  501 -0.00000000000E+00  0.00000000000E+00  0.49516128317E+01  0.49516150339E+01  0.46700000000E-02 0.  1.
          1   -1    0    0  501    0  0.00000000000E+00 -0.00000000000E+00 -0.27084575690E+02  0.27084576093E+02  0.46700000000E-02 0. -1.
        -13    1    1    2    0    0  0.40306445159E+01 -0.96220889452E+01 -0.18019661324E+02  0.20821864892E+02  0.10570000000E+00 0.  1.
         13    1    1    2    0    0 -0.40306445159E+01  0.96220889452E+01 -0.41133015346E+01  0.11214326234E+02  0.10570000000E+00 0. -1.
<mgrwt>
<rscale>  0 0.23161379E+02</rscale>
<asrwt>0</asrwt>
<pdfrwt beam="2">  1        1 0.41668579E-02 0.23161379E+02</pdfrwt>
<pdfrwt beam="1">  1       -1 0.76178681E-03 0.23161379E+02</pdfrwt>
<totfact> 0.28861659E+06</totfact>
</mgrwt>
</event>
<event>
 4    1  0.4261729E-001  0.3251831E+02  0.7818608E-02  0.1571812E+00
          1   -1    0    0  501    0  0.00000000000E+00  0.00000000000E+00  0.99202396903E+01  0.99202407895E+01  0.46700000000E-02 0. -1.
         -1   -1    0    0    0  501 -0.00000000000E+00 -0.00000000000E+00 -0.26648565505E+02  0.26648565914E+02  0.46700000000E-02 0.  1.
        -13    1    1    2    0    0  0.11691538363E+02 -0.89539386751E+01 -0.61497707178E+00  0.14739554144E+02  0.10570000000E+00 0. -1.
         13    1    1    2    0    0 -0.11691538363E+02  0.89539386751E+01 -0.16113348742E+02  0.21829252559E+02  0.10570000000E+00 0.  1.
<mgrwt>
<rscale>  0 0.32518314E+02</rscale>
<asrwt>0</asrwt>
<pdfrwt beam="1">  1        1 0.15261908E-02 0.32518314E+02</pdfrwt>
<pdfrwt beam="2">  1       -1 0.40997794E-02 0.32518314E+02</pdfrwt>
<totfact> 0.12158750E+06</totfact>
</mgrwt>
</event>
<event>
 4    1  0.4261729E-001  0.4975324E+02  0.7818608E-02  0.1446677E+00
          1   -1    0    0  501    0  0.00000000000E+00  0.00000000000E+00  0.35636137974E+02  0.35636138280E+02  0.46700000000E-02 0. -1.
         -1   -1    0    0    0  501 -0.00000000000E+00 -0.00000000000E+00 -0.17365688669E+02  0.17365689297E+02  0.46700000000E-02 0.  1.
        -13    1    1    2    0    0  0.23591607850E+02 -0.72487289885E+01  0.58127882750E+01  0.25355624877E+02  0.10570000000E+00 0. -1.
         13    1    1    2    0    0 -0.23591607850E+02  0.72487289885E+01  0.12457661030E+02  0.27646202700E+02  0.10570000000E+00 0.  1.
<mgrwt>
<rscale>  0 0.49753235E+02</rscale>
<asrwt>0</asrwt>
<pdfrwt beam="1">  1        1 0.54824829E-02 0.49753235E+02</pdfrwt>
<pdfrwt beam="2">  1       -1 0.26716445E-02 0.49753235E+02</pdfrwt>
<totfact> 0.45732954E+05</totfact>
</mgrwt>
</event>
<event>
 4    1  0.4261729E-001  0.3506448E+02  0.7818608E-02  0.1548029E+00
          1   -1    0    0  501    0  0.00000000000E+00  0.00000000000E+00  0.50208000915E+01  0.50208022634E+01  0.46700000000E-02 0.  1.
         -1   -1    0    0    0  501 -0.00000000000E+00 -0.00000000000E+00 -0.61221201028E+02  0.61221201206E+02  0.46700000000E-02 0. -1.
        -13    1    1    2    0    0  0.11570455427E+02  0.11381407732E+02 -0.40625186747E+02  0.43747329649E+02  0.10570000000E+00 0. -1.
         13    1    1    2    0    0 -0.11570455427E+02 -0.11381407732E+02 -0.15575214189E+02  0.22494673820E+02  0.10570000000E+00 0.  1.
<mgrwt>
<rscale>  0 0.35064483E+02</rscale>
<asrwt>0</asrwt>
<pdfrwt beam="1">  1        1 0.77243101E-03 0.35064483E+02</pdfrwt>
<pdfrwt beam="2">  1       -1 0.94186460E-02 0.35064483E+02</pdfrwt>
<totfact> 0.94306456E+05</totfact>
</mgrwt>
</event>
<event>
 4    1  0.4261729E-001  0.5896746E+02  0.7818608E-02  0.1402217E+00
          1   -1    0    0  501    0  0.00000000000E+00  0.00000000000E+00  0.65995629013E+01  0.65995645536E+01  0.46700000000E-02 0. -1.
         -1   -1    0    0    0  501 -0.00000000000E+00 -0.00000000000E+00 -0.13171937793E+03  0.13171937801E+03  0.46700000000E-02 0.  1.
        -13    1    1    2    0    0 -0.21874734099E+02  0.10005080294E+02 -0.22568007291E+02  0.32983810410E+02  0.10570000000E+00 0. -1.
         13    1    1    2    0    0  0.21874734099E+02 -0.10005080294E+02 -0.10255180774E+03  0.10533513216E+03  0.10570000000E+00 0.  1.
<mgrwt>
<rscale>  0 0.58967464E+02</rscale>
<asrwt>0</asrwt>
<pdfrwt beam="1">  1        1 0.10153176E-02 0.58967464E+02</pdfrwt>
<pdfrwt beam="2">  1       -1 0.20264518E-01 0.58967464E+02</pdfrwt>
<totfact> 0.23448171E+05</totfact>
</mgrwt>
</event>
<event>
 4    1  0.4261729E-001  0.2533109E+02  0.7818608E-02  0.1656291E+00
         -1   -1    0    0    0  501 -0.00000000000E+00  0.00000000000E+00  0.54062603978E+01  0.54062624148E+01  0.46700000000E-02 0. -1.
          1   -1    0    0  501    0  0.00000000000E+00 -0.00000000000E+00 -0.29672255545E+02  0.29672255912E+02  0.46700000000E-02 0.  1.
        -13    1    1    2    0    0 -0.31864940994E+01 -0.10785893674E+02 -0.40683212808E+01  0.11960420458E+02  0.10570000000E+00 0. -1.
         13    1    1    2    0    0  0.31864940994E+01  0.10785893674E+02 -0.20197673866E+02  0.23118097869E+02  0.10570000000E+00 0.  1.
<mgrwt>
<rscale>  0 0.25331086E+02</rscale>
<asrwt>0</asrwt>
<pdfrwt beam="2">  1        1 0.45649625E-02 0.25331086E+02</pdfrwt>
<pdfrwt beam="1">  1       -1 0.83173257E-03 0.25331086E+02</pdfrwt>
<totfact> 0.23584330E+06</totfact>
</mgrwt>
</event>
<event>
 4    1  0.4261729E-001  0.7874755E+02  0.7818608E-02  0.1332644E+00
         -1   -1    0    0    0  501 -0.00000000000E+00  0.00000000000E+00  0.13499572956E+03  0.13499572964E+03  0.46700000000E-02 0.  1.
          1   -1    0    0  501    0  0.00000000000E+00 -0.00000000000E+00 -0.11484022710E+02  0.11484023660E+02  0.46700000000E-02 0. -1.
        -13    1    1    2    0    0 -0.22615675666E+02  0.96745146973E+01  0.45676402496E+01  0.25018783552E+02  0.10570000000E+00 0. -1.
         13    1    1    2    0    0  0.22615675666E+02 -0.96745146973E+01  0.11894406660E+03  0.12146096974E+03  0.10570000000E+00 0.  1.
<mgrwt>
<rscale>  0 0.78747549E+02</rscale>
<asrwt>0</asrwt>
<pdfrwt beam="2">  1        1 0.17667728E-02 0.78747549E+02</pdfrwt>
<pdfrwt beam="1">  1       -1 0.20768574E-01 0.78747549E+02</pdfrwt>
<totfact> 0.11179574E+05</totfact>
</mgrwt>
</event>
<event>
 4    1  0.4261729E-001  0.2810794E+02  0.7818608E-02  0.1619997E+00
          1   -1    0    0  501    0  0.00000000000E+00  0.00000000000E+00  0.78745049350E+02  0.78745049488E+02  0.46700000000E-02 0. -1.
         -1   -1    0    0    0  501 -0.00000000000E+00 -0.00000000000E+00 -0.25082700559E+01  0.25082744033E+01  0.46700000000E-02 0.  1.
        -13    1    1    2    0    0 -0.11097271557E+02 -0.84963000532E+01  0.33863656621E+02  0.36634614272E+02  0.10570000000E+00 0.  1.
         13    1    1    2    0    0  0.11097271557E+02  0.84963000532E+01  0.42373122673E+02  0.44618709620E+02  0.10570000000E+00 0. -1.
<mgrwt>
<rscale>  0 0.28107937E+02</rscale>
<asrwt>0</asrwt>
<pdfrwt beam="1">  1        1 0.12114623E-01 0.28107937E+02</pdfrwt>
<pdfrwt beam="2">  1       -1 0.38588807E-03 0.28107937E+02</pdfrwt>
<totfact> 0.19945043E+06</totfact>
</mgrwt>
</event>
<event>
 4    1  0.4261729E-001  0.2501737E+02  0.7818608E-02  0.1660752E+00
         -1   -1    0    0    0  501 -0.00000000000E+00  0.00000000000E+00  0.18171877706E+01  0.18171937713E+01  0.46700000000E-02 0.  1.
          1   -1    0    0  501    0  0.00000000000E+00 -0.00000000000E+00 -0.86103920545E+02  0.86103920672E+02  0.46700000000E-02 0. -1.
        -13    1    1    2    0    0  0.10020135765E+02 -0.74083986197E+01 -0.45942494262E+02  0.47602641128E+02  0.10570000000E+00 0. -1.
         13    1    1    2    0    0 -0.10020135765E+02  0.74083986197E+01 -0.38344238513E+02  0.40318473315E+02  0.10570000000E+00 0.  1.
<mgrwt>
<rscale>  0 0.25017375E+02</rscale>
<asrwt>0</asrwt>
<pdfrwt beam="2">  1        1 0.13246754E-01 0.25017375E+02</pdfrwt>
<pdfrwt beam="1">  1       -1 0.27956789E-03 0.25017375E+02</pdfrwt>
<totfact> 0.26372536E+06</totfact>
</mgrwt>
</event>
<event>
 4    1  0.4261729E-001  0.2010680E+02  0.7818608E-02  0.1743213E+00
         -1   -1    0    0    0  501 -0.00000000000E+00  0.00000000000E+00  0.74817771626E+02  0.74817771772E+02  0.46700000000E-02 0.  1.
          1   -1    0    0  501    0  0.00000000000E+00 -0.00000000000E+00 -0.13508895848E+01  0.13508976569E+01  0.46700000000E-02 0. -1.
        -13    1    1    2    0    0 -0.51486792154E+01 -0.85880296262E+01  0.33352506576E+02  0.34823325773E+02  0.10570000000E+00 0. -1.
         13    1    1    2    0    0  0.51486792154E+01  0.85880296262E+01  0.40114375465E+02  0.41345343656E+02  0.10570000000E+00 0.  1.
<mgrwt>
<rscale>  0 0.20106801E+02</rscale>
<asrwt>0</asrwt>
<pdfrwt beam="2">  1        1 0.20782971E-03 0.20106801E+02</pdfrwt>
<pdfrwt beam="1">  1       -1 0.11510432E-01 0.20106801E+02</pdfrwt>
<totfact> 0.32916852E+06</totfact>
</mgrwt>
</event>
<event>
 4    1  0.4261729E-001  0.5144081E+02  0.7818608E-02  0.1437722E+00
          1   -1    0    0  501    0  0.00000000000E+00  0.00000000000E+00  0.11307590704E+03  0.11307590714E+03  0.46700000000E-02 0.  1.
         -1   -1    0    0    0  501 -0.00000000000E+00 -0.00000000000E+00 -0.58503974847E+01  0.58503993486E+01  0.46700000000E-02 0. -1.
        -13    1    1    2    0    0 -0.72390711687E+01  0.19912847287E+02  0.87322398111E+02  0.89856207480E+02  0.10570000000E+00 0.  1.
         13    1    1    2    0    0  0.72390711687E+01 -0.19912847287E+02  0.19903111445E+02  0.29070099005E+02  0.10570000000E+00 0. -1.
<mgrwt>
<rscale>  0 0.51440806E+02</rscale>
<asrwt>0</asrwt>
<pdfrwt beam="1">  1        1 0.17396292E-01 0.51440806E+02</pdfrwt>
<pdfrwt beam="2">  1       -1 0.90006137E-03 0.51440806E+02</pdfrwt>
<totfact> 0.47801532E+05</totfact>
</mgrwt>
</event>
<event>
 4    1  0.4261729E-001  0.2561730E+02  0.7818608E-02  0.1652291E+00
         -1   -1    0    0    0  501 -0.00000000000E+00  0.00000000000E+00  0.37474667493E+02  0.37474667784E+02  0.46700000000E-02 0. -1.
          1   -1    0    0  501    0  0.00000000000E+00 -0.00000000000E+00 -0.43779293863E+01  0.43779318771E+01  0.46700000000E-02 0.  1.
        -13    1    1    2    0    0 -0.11877078842E+02  0.34210543010E+01  0.11060841125E+02  0.16586801779E+02  0.10570000000E+00 0. -1.
         13    1    1    2    0    0  0.11877078842E+02 -0.34210543010E+01  0.22035896981E+02  0.25265797882E+02  0.10570000000E+00 0.  1.
<mgrwt>
<rscale>  0 0.25617299E+02</rscale>
<asrwt>0</asrwt>
<pdfrwt beam="2">  1        1 0.67352780E-03 0.25617299E+02</pdfrwt>
<pdfrwt beam="1">  1       -1 0.57653338E-02 0.25617299E+02</pdfrwt>
<totfact> 0.20583794E+06</totfact>
</mgrwt>
</event>
<event>
 4    1  0.4261729E-001  0.4452675E+02  0.7818608E-02  0.1477318E+00
          1   -1    0    0  501    0  0.00000000000E+00  0.00000000000E+00  0.53068249136E+02  0.53068249341E+02  0.46700000000E-02 0. -1.
         -1   -1    0    0    0  501 -0.00000000000E+00 -0.00000000000E+00 -0.93400080546E+01  0.93400092221E+01  0.46700000000E-02 0.  1.
        -13    1    1    2    0    0  0.66678024081E+01  0.19596261527E+02  0.33351491540E+02  0.39253104530E+02  0.10570000000E+00 0. -1.
         13    1    1    2    0    0 -0.66678024081E+01 -0.19596261527E+02  0.10376749540E+02  0.23155154033E+02  0.10570000000E+00 0.  1.
<mgrwt>
<rscale>  0 0.44526752E+02</rscale>
<asrwt>0</asrwt>
<pdfrwt beam="1">  1        1 0.81643460E-02 0.44526752E+02</pdfrwt>
<pdfrwt beam="2">  1       -1 0.14369244E-02 0.44526752E+02</pdfrwt>
<totfact> 0.62896293E+05</totfact>
</mgrwt>
</event>
<event>
 4    1  0.4261729E-001  0.2823692E+02  0.7818608E-02  0.1618437E+00
         -1   -1    0    0    0  501 -0.00000000000E+00  0.00000000000E+00  0.20190158102E+02  0.20190158642E+02  0.46700000000E-02 0. -1.
          1   -1    0    0  501    0  0.00000000000E+00 -0.00000000000E+00 -0.98726774246E+01  0.98726785291E+01  0.46700000000E-02 0.  1.
        -13    1    1    2    0    0 -0.37891797888E+01  0.12917949624E+02  0.96868137350E+01  0.16585440566E+02  0.10570000000E+00 0.  1.
         13    1    1    2    0    0  0.37891797888E+01 -0.12917949624E+02  0.63066694233E+00  0.13477396605E+02  0.10570000000E+00 0. -1.
<mgrwt>
<rscale>  0 0.28236922E+02</rscale>
<asrwt>0</asrwt>
<pdfrwt beam="2">  1        1 0.15188736E-02 0.28236922E+02</pdfrwt>
<pdfrwt beam="1">  1       -1 0.31061783E-02 0.28236922E+02</pdfrwt>
<totfact> 0.17192202E+06</totfact>
</mgrwt>
</event>
<event>
 4    1  0.4261729E-001  0.3201066E+02  0.7818608E-02  0.1576871E+00
         -1   -1    0    0    0  501 -0.00000000000E+00  0.00000000000E+00  0.44877741184E+02  0.44877741427E+02  0.46700000000E-02 0.  1.
          1   -1    0    0  501    0  0.00000000000E+00 -0.00000000000E+00 -0.57081863042E+01  0.57081882145E+01  0.46700000000E-02 0. -1.
        -13    1    1    2    0    0  0.31536805183E+00  0.15272409802E+02  0.27132752142E+02  0.31137491380E+02  0.10570000000E+00 0. -1.
         13    1    1    2    0    0 -0.31536805183E+00 -0.15272409802E+02  0.12036802738E+02  0.19448438262E+02  0.10570000000E+00 0.  1.
<mgrwt>
<rscale>  0 0.32010658E+02</rscale>
<asrwt>0</asrwt>
<pdfrwt beam="2">  1        1 0.87818270E-03 0.32010658E+02</pdfrwt>
<pdfrwt beam="1">  1       -1 0.69042678E-02 0.32010658E+02</pdfrwt>
<totfact> 0.12086472E+06</totfact>
</mgrwt>
</event>
<event>
 4    1  0.4261729E-001  0.3233521E+02  0.7818608E-02  0.1573623E+00
          1   -1    0    0  501    0  0.00000000000E+00  0.00000000000E+00  0.16370834928E+02  0.16370835594E+02  0.46700000000E-02 0. -1.
         -1   -1    0    0    0  501 -0.00000000000E+00 -0.00000000000E+00 -0.15966894088E+02  0.15966894771E+02  0.46700000000E-02 0.  1.
        -13    1    1    2    0    0 -0.82444794160E+01 -0.11838499695E+02  0.75003971196E+01  0.16260032144E+02  0.10570000000E+00 0.  1.
         13    1    1    2    0    0  0.82444794160E+01  0.11838499695E+02 -0.70964562789E+01  0.16077698221E+02  0.10570000000E+00 0. -1.
<mgrwt>
<rscale>  0 0.32335207E+02</rscale>
<asrwt>0</asrwt>
<pdfrwt beam="1">  1        1 0.25185901E-02 0.32335207E+02</pdfrwt>
<pdfrwt beam="2">  1       -1 0.24564454E-02 0.32335207E+02</pdfrwt>
<totfact> 0.12740297E+06</totfact>
</mgrwt>
</event>
<event>
 4    1  0.4261729E-001  0.2865238E+02  0.7818608E-02  0.1613481E+00
         -1   -1    0    0    0  501 -0.00000000000E+00  0.00000000000E+00  0.19779245752E+02  0.19779246303E+02  0.46700000000E-02 0. -1.
          1   -1    0    0  501    0  0.00000000000E+00 -0.00000000000E+00 -0.10376521397E+02  0.10376522448E+02  0.46700000000E-02 0.  1.
        -13    1    1    2    0    0 -0.49323201428E+01  0.13419099627E+02  0.56593996957E+01  0.15376605419E+02  0.10570000000E+00 0.  1.
         13    1    1    2    0    0  0.49323201428E+01 -0.13419099627E+02  0.37433246594E+01  0.14779163332E+02  0.10570000000E+00 0. -1.
<mgrwt>
<rscale>  0 0.28652385E+02</rscale>
<asrwt>0</asrwt>
<pdfrwt beam="2">  1        1 0.15963880E-02 0.28652385E+02</pdfrwt>
<pdfrwt beam="1">  1       -1 0.30429610E-02 0.28652385E+02</pdfrwt>
<totfact> 0.16644404E+06</totfact>
</mgrwt>
</event>
<event>
 4    1  0.4261729E-001  0.3589968E+02  0.7818608E-02  0.1540753E+00
          1   -1    0    0  501    0  0.00000000000E+00  0.00000000000E+00  0.31873500098E+02  0.31873500440E+02  0.46700000000E-02 0.  1.
         -1   -1    0    0    0  501 -0.00000000000E+00 -0.00000000000E+00 -0.10108609416E+02  0.10108610495E+02  0.46700000000E-02 0. -1.
        -13    1    1    2    0    0 -0.10736200241E+01 -0.14050189668E+02 -0.21200603263E+01  0.14250133962E+02  0.10570000000E+00 0. -1.
         13    1    1    2    0    0  0.10736200241E+01  0.14050189668E+02  0.23884951008E+02  0.27731976973E+02  0.10570000000E+00 0.  1.
<mgrwt>
<rscale>  0 0.35899682E+02</rscale>
<asrwt>0</asrwt>
<pdfrwt beam="1">  1        1 0.49036154E-02 0.35899682E+02</pdfrwt>
<pdfrwt beam="2">  1       -1 0.15551708E-02 0.35899682E+02</pdfrwt>
<totfact> 0.10294310E+06</totfact>
</mgrwt>
</event>
<event>
 4    1  0.4261729E-001  0.3251809E+02  0.7818608E-02  0.1571814E+00
          1   -1    0    0  501    0  0.00000000000E+00  0.00000000000E+00  0.51551560144E+01  0.51551581297E+01  0.46700000000E-02 0.  1.
         -1   -1    0    0    0  501 -0.00000000000E+00 -0.00000000000E+00 -0.51280029635E+02  0.51280029848E+02  0.46700000000E-02 0. -1.
        -13    1    1    2    0    0  0.11260975852E+02 -0.36231492123E+01 -0.42419977930E+02  0.44038647656E+02  0.10570000000E+00 0. -1.
         13    1    1    2    0    0 -0.11260975852E+02  0.36231492123E+01 -0.37048956911E+01  0.12396540321E+02  0.10570000000E+00 0.  1.
<mgrwt>
<rscale>  0 0.32518095E+02</rscale>
<asrwt>0</asrwt>
<pdfrwt beam="1">  1        1 0.79310114E-03 0.32518095E+02</pdfrwt>
<pdfrwt beam="2">  1       -1 0.78892351E-02 0.32518095E+02</pdfrwt>
<totfact> 0.11494075E+06</totfact>
</mgrwt>
</event>
<event>
 4    1  0.4261729E-001  0.5192376E+02  0.7818608E-02  0.1435233E+00
          1   -1    0    0  501    0  0.00000000000E+00  0.00000000000E+00  0.59837111183E+01  0.59837129406E+01  0.46700000000E-02 0. -1.
         -1   -1    0    0    0  501 -0.00000000000E+00 -0.00000000000E+00 -0.11264229903E+03  0.11264229912E+03  0.46700000000E-02 0.  1.
        -13    1    1    2    0    0 -0.10592679380E+02 -0.23643475594E+02 -0.57144761232E+02  0.62743555074E+02  0.10570000000E+00 0. -1.
         13    1    1    2    0    0  0.10592679380E+02  0.23643475594E+02 -0.49513826677E+02  0.55882456991E+02  0.10570000000E+00 0.  1.
<mgrwt>
<rscale>  0 0.51923755E+02</rscale>
<asrwt>0</asrwt>
<pdfrwt beam="1">  1        1 0.92057117E-03 0.51923755E+02</pdfrwt>
<pdfrwt beam="2">  1       -1 0.17329583E-01 0.51923755E+02</pdfrwt>
<totfact> 0.33207039E+05</totfact>
</mgrwt>
</event>
<event>
 4    1  0.4261729E-001  0.3263297E+02  0.7818608E-02  0.1570684E+00
          1   -1    0    0  501    0  0.00000000000E+00  0.00000000000E+00  0.61003262834E+01  0.61003280709E+01  0.46700000000E-02 0. -1.
         -1   -1    0    0    0  501 -0.00000000000E+00 -0.00000000000E+00 -0.43641529513E+02  0.43641529762E+02  0.46700000000E-02 0.  1.
        -13    1    1    2    0    0  0.14169990107E+02  0.47792165493E+01 -0.88233396997E+01  0.17363525748E+02  0.10570000000E+00 0. -1.
         13    1    1    2    0    0 -0.14169990107E+02 -0.47792165493E+01 -0.28717863529E+02  0.32378332085E+02  0.10570000000E+00 0.  1.
<mgrwt>
<rscale>  0 0.32632966E+02</rscale>
<asrwt>0</asrwt>
<pdfrwt beam="1">  1        1 0.93851192E-03 0.32632966E+02</pdfrwt>
<pdfrwt beam="2">  1       -1 0.67140814E-02 0.32632966E+02</pdfrwt>
<totfact> 0.11581684E+06</totfact>
</mgrwt>
</event>
<event>
 4    1  0.4261729E-001  0.2955832E+02  0.7818608E-02  0.1603023E+00
          1   -1    0    0  501    0  0.00000000000E+00  0.00000000000E+00  0.35970784788E+02  0.35970785091E+02  0.46700000000E-02 0. -1.
         -1   -1    0    0    0  501 -0.00000000000E+00 -0.00000000000E+00 -0.60722493298E+01  0.60722511256E+01  0.46700000000E-02 0.  1.
        -13    1    1    2    0    0  0.12899001930E+02 -0.66434417159E+01  0.18945327183E+02  0.23863280646E+02  0.10570000000E+00 0. -1.
         13    1    1    2    0    0 -0.12899001930E+02  0.66434417159E+01  0.10953208276E+02  0.18179755571E+02  0.10570000000E+00 0.  1.
<mgrwt>
<rscale>  0 0.29558323E+02</rscale>
<asrwt>0</asrwt>
<pdfrwt beam="1">  1        1 0.55339671E-02 0.29558323E+02</pdfrwt>
<pdfrwt beam="2">  1       -1 0.93419236E-03 0.29558323E+02</pdfrwt>
<totfact> 0.16600914E+06</totfact>
</mgrwt>
</event>
<event>
 4    1  0.4261729E-001  0.2226936E+02  0.7818608E-02  0.1703635E+00
         -1   -1    0    0    0  501 -0.00000000000E+00  0.00000000000E+00  0.27985593867E+02  0.27985594257E+02  0.46700000000E-02 0. -1.
          1   -1    0    0  501    0  0.00000000000E+00 -0.00000000000E+00 -0.44301741452E+01  0.44301766066E+01  0.46700000000E-02 0.  1.
        -13    1    1    2    0    0  0.10284757543E+02 -0.33374560958E+01  0.79113746947E+01  0.13398353367E+02  0.10570000000E+00 0. -1.
         13    1    1    2    0    0 -0.10284757543E+02  0.33374560958E+01  0.15644045027E+02  0.19017417496E+02  0.10570000000E+00 0.  1.
<mgrwt>
<rscale>  0 0.22269360E+02</rscale>
<asrwt>0</asrwt>
<pdfrwt beam="2">  1        1 0.68156545E-03 0.22269360E+02</pdfrwt>
<pdfrwt beam="1">  1       -1 0.43054763E-02 0.22269360E+02</pdfrwt>
<totfact> 0.28878812E+06</totfact>
</mgrwt>
</event>
<event>
 4    1  0.4261729E-001  0.2561954E+02  0.7818608E-02  0.1652259E+00
          1   -1    0    0  501    0  0.00000000000E+00  0.00000000000E+00  0.10827023854E+02  0.10827024862E+02  0.46700000000E-02 0. -1.
         -1   -1    0    0    0  501 -0.00000000000E+00 -0.00000000000E+00 -0.15155614449E+02  0.15155615169E+02  0.46700000000E-02 0.  1.
        -13    1    1    2    0    0  0.10468191673E+02  0.12765364043E+01 -0.95382773153E+01  0.14219792148E+02  0.10570000000E+00 0. -1.
         13    1    1    2    0    0 -0.10468191673E+02 -0.12765364043E+01  0.52096867202E+01  0.11762847883E+02  0.10570000000E+00 0.  1.
<mgrwt>
<rscale>  0 0.25619541E+02</rscale>
<asrwt>0</asrwt>
<pdfrwt beam="1">  1        1 0.16656961E-02 0.25619541E+02</pdfrwt>
<pdfrwt beam="2">  1       -1 0.23316331E-02 0.25619541E+02</pdfrwt>
<totfact> 0.21820033E+06</totfact>
</mgrwt>
</event>
<event>
 4    1  0.4261729E-001  0.4011800E+02  0.7818608E-02  0.1507345E+00
         -1   -1    0    0    0  501 -0.00000000000E+00  0.00000000000E+00  0.87053521826E+01  0.87053534352E+01  0.46700000000E-02 0. -1.
          1   -1    0    0  501    0  0.00000000000E+00 -0.00000000000E+00 -0.46220231001E+02  0.46220231237E+02  0.46700000000E-02 0.  1.
        -13    1    1    2    0    0 -0.76970918779E+01  0.15245475722E+02 -0.43537108027E+01  0.17624860953E+02  0.10570000000E+00 0. -1.
         13    1    1    2    0    0  0.76970918779E+01 -0.15245475722E+02 -0.33161168016E+02  0.37300723720E+02  0.10570000000E+00 0.  1.
<mgrwt>
<rscale>  0 0.40117997E+02</rscale>
<asrwt>0</asrwt>
<pdfrwt beam="2">  1        1 0.71108047E-02 0.40117997E+02</pdfrwt>
<pdfrwt beam="1">  1       -1 0.13392851E-02 0.40117997E+02</pdfrwt>
<totfact> 0.80559106E+05</totfact>
</mgrwt>
</event>
<event>
 4    1  0.4261729E-001  0.2777203E+02  0.7818608E-02  0.1624108E+00
         -1   -1    0    0    0  501 -0.00000000000E+00  0.00000000000E+00  0.52612727847E+01  0.52612748572E+01  0.46700000000E-02 0.  1.
          1   -1    0    0  501    0  0.00000000000E+00 -0.00000000000E+00 -0.36649172944E+02  0.36649173242E+02  0.46700000000E-02 0. -1.
        -13    1    1    2    0    0 -0.62277203337E+01 -0.92358288500E+01 -0.28204389516E+02  0.30324640073E+02  0.10570000000E+00 0. -1.
         13    1    1    2    0    0  0.62277203337E+01  0.92358288500E+01 -0.31835106432E+01  0.11585808026E+02  0.10570000000E+00 0.  1.
<mgrwt>
<rscale>  0 0.27772025E+02</rscale>
<asrwt>0</asrwt>
<pdfrwt beam="2">  1        1 0.56383343E-02 0.27772025E+02</pdfrwt>
<pdfrwt beam="1">  1       -1 0.80942679E-03 0.27772025E+02</pdfrwt>
<totfact> 0.19261197E+06</totfact>
</mgrwt>
</event>
<event>
 4    1  0.4261729E-001  0.2909765E+02  0.7818608E-02  0.1608283E+00
          1   -1    0    0  501    0  0.00000000000E+00  0.00000000000E+00  0.42744018941E+01  0.42744044452E+01  0.46700000000E-02 0. -1.
         -1   -1    0    0    0  501 -0.00000000000E+00 -0.00000000000E+00 -0.49519966579E+02  0.49519966799E+02  0.46700000000E-02 0.  1.
        -13    1    1    2    0    0 -0.11267967858E+02  0.78572856487E+01 -0.13765517646E+02  0.19447485338E+02  0.10570000000E+00 0. -1.
         13    1    1    2    0    0  0.11267967858E+02 -0.78572856487E+01 -0.31480047039E+02  0.34346885907E+02  0.10570000000E+00 0.  1.
<mgrwt>
<rscale>  0 0.29097650E+02</rscale>
<asrwt>0</asrwt>
<pdfrwt beam="1">  1        1 0.65760054E-03 0.29097650E+02</pdfrwt>
<pdfrwt beam="2">  1       -1 0.76184562E-02 0.29097650E+02</pdfrwt>
<totfact> 0.14962827E+06</totfact>
</mgrwt>
</event>
<event>
 4    1  0.4261729E-001  0.9366379E+02  0.7818608E-02  0.1294214E+00
          1   -1    0    0  501    0  0.00000000000E+00  0.00000000000E+00  0.87461056710E+01  0.87461069178E+01  0.46700000000E-02 0. -1.
         -1   -1    0    0    0  501 -0.00000000000E+00 -0.00000000000E+00 -0.25076603204E+03  0.25076603208E+03  0.46700000000E-02 0.  1.
        -13    1    1    2    0    0  0.80367559495E+01  0.45956410000E+02 -0.13231016430E+03  0.14029458940E+03  0.10570000000E+00 0.  1.
         13    1    1    2    0    0 -0.80367559495E+01 -0.45956410000E+02 -0.10970976206E+03  0.11921754959E+03  0.10570000000E+00 0. -1.
<mgrwt>
<rscale>  0 0.93663790E+02</rscale>
<asrwt>0</asrwt>
<pdfrwt beam="1">  1        1 0.13455550E-02 0.93663790E+02</pdfrwt>
<pdfrwt beam="2">  1       -1 0.38579384E-01 0.93663790E+02</pdfrwt>
<totfact> 0.60300876E+04</totfact>
</mgrwt>
</event>
<event>
 4    1  0.4261729E-001  0.2106272E+02  0.7818608E-02  0.1724985E+00
          1   -1    0    0  501    0  0.00000000000E+00  0.00000000000E+00  0.49537379100E+02  0.49537379320E+02  0.46700000000E-02 0.  1.
         -1   -1    0    0    0  501 -0.00000000000E+00 -0.00000000000E+00 -0.22389030280E+01  0.22389078984E+01  0.46700000000E-02 0. -1.
        -13    1    1    2    0    0 -0.10083479346E+01 -0.10042337997E+02  0.31037345557E+02  0.32637299364E+02  0.10570000000E+00 0.  1.
         13    1    1    2    0    0  0.10083479346E+01  0.10042337997E+02  0.16261130515E+02  0.19138987855E+02  0.10570000000E+00 0. -1.
<mgrwt>
<rscale>  0 0.21062718E+02</rscale>
<asrwt>0</asrwt>
<pdfrwt beam="1">  1        1 0.76211358E-02 0.21062718E+02</pdfrwt>
<pdfrwt beam="2">  1       -1 0.34444701E-03 0.21062718E+02</pdfrwt>
<totfact> 0.37133478E+06</totfact>
</mgrwt>
</event>
<event>
 4    1  0.4261729E-001  0.2653734E+02  0.7818608E-02  0.1639854E+00
         -1   -1    0    0    0  501 -0.00000000000E+00  0.00000000000E+00  0.32194248324E+02  0.32194248663E+02  0.46700000000E-02 0.  1.
          1   -1    0    0  501    0  0.00000000000E+00 -0.00000000000E+00 -0.54686024959E+01  0.54686044899E+01  0.46700000000E-02 0. -1.
        -13    1    1    2    0    0 -0.13253240393E+02  0.57948634764E+00  0.13716873744E+02  0.19082661846E+02  0.10570000000E+00 0. -1.
         13    1    1    2    0    0  0.13253240393E+02 -0.57948634764E+00  0.13008772085E+02  0.18580191307E+02  0.10570000000E+00 0.  1.
<mgrwt>
<rscale>  0 0.26537339E+02</rscale>
<asrwt>0</asrwt>
<pdfrwt beam="2">  1        1 0.84132365E-03 0.26537339E+02</pdfrwt>
<pdfrwt beam="1">  1       -1 0.49529614E-02 0.26537339E+02</pdfrwt>
<totfact> 0.19216639E+06</totfact>
</mgrwt>
</event>
<event>
 4    1  0.4261729E-001  0.2544292E+02  0.7818608E-02  0.1654720E+00
         -1   -1    0    0    0  501 -0.00000000000E+00  0.00000000000E+00  0.17690291136E+01  0.17690352777E+01  0.46700000000E-02 0. -1.
          1   -1    0    0  501    0  0.00000000000E+00 -0.00000000000E+00 -0.91482507598E+02  0.91482507717E+02  0.46700000000E-02 0.  1.
        -13    1    1    2    0    0  0.22044642988E+01  0.12152057685E+02 -0.56029171073E+02  0.57374309168E+02  0.10570000000E+00 0.  1.
         13    1    1    2    0    0 -0.22044642988E+01 -0.12152057685E+02 -0.33684307411E+02  0.35877233827E+02  0.10570000000E+00 0. -1.
<mgrwt>
<rscale>  0 0.25442917E+02</rscale>
<asrwt>0</asrwt>
<pdfrwt beam="2">  1        1 0.14074229E-01 0.25442917E+02</pdfrwt>
<pdfrwt beam="1">  1       -1 0.27215888E-03 0.25442917E+02</pdfrwt>
<totfact> 0.25535880E+06</totfact>
</mgrwt>
</event>
<event>
 4    1  0.4261729E-001  0.2786097E+02  0.7818608E-02  0.1623012E+00
         -1   -1    0    0    0  501 -0.00000000000E+00  0.00000000000E+00  0.42233236765E+01  0.42233262585E+01  0.46700000000E-02 0. -1.
          1   -1    0    0  501    0  0.00000000000E+00 -0.00000000000E+00 -0.45949208758E+02  0.45949208995E+02  0.46700000000E-02 0.  1.
        -13    1    1    2    0    0  0.43181127297E+01  0.13172128556E+02 -0.23342722413E+02  0.27148571424E+02  0.10570000000E+00 0. -1.
         13    1    1    2    0    0 -0.43181127297E+01 -0.13172128556E+02 -0.18383162668E+02  0.23023963829E+02  0.10570000000E+00 0.  1.
<mgrwt>
<rscale>  0 0.27860973E+02</rscale>
<asrwt>0</asrwt>
<pdfrwt beam="2">  1        1 0.70691089E-02 0.27860973E+02</pdfrwt>
<pdfrwt beam="1">  1       -1 0.64974235E-03 0.27860973E+02</pdfrwt>
<totfact> 0.19420884E+06</totfact>
</mgrwt>
</event>
<event>
 4    1  0.4261729E-001  0.3848518E+02  0.7818608E-02  0.1519664E+00
         -1   -1    0    0    0  501 -0.00000000000E+00  0.00000000000E+00  0.16822044883E+02  0.16822045531E+02  0.46700000000E-02 0. -1.
          1   -1    0    0  501    0  0.00000000000E+00 -0.00000000000E+00 -0.22011431503E+02  0.22011431998E+02  0.46700000000E-02 0.  1.
        -13    1    1    2    0    0  0.12607369074E+02 -0.90288889488E+01 -0.14090761383E+02  0.20952978773E+02  0.10570000000E+00 0.  1.
         13    1    1    2    0    0 -0.12607369074E+02  0.90288889488E+01  0.89013747633E+01  0.17880498756E+02  0.10570000000E+00 0. -1.
<mgrwt>
<rscale>  0 0.38485182E+02</rscale>
<asrwt>0</asrwt>
<pdfrwt beam="2">  1        1 0.33863742E-02 0.38485182E+02</pdfrwt>
<pdfrwt beam="1">  1       -1 0.25880070E-02 0.38485182E+02</pdfrwt>
<totfact> 0.84425231E+05</totfact>
</mgrwt>
</event>
<event>
 4    1  0.4261729E-001  0.2417086E+02  0.7818608E-02  0.1673205E+00
          1   -1    0    0  501    0  0.00000000000E+00  0.00000000000E+00  0.10895201049E+03  0.10895201059E+03  0.46700000000E-02 0.  1.
         -1   -1    0    0    0  501 -0.00000000000E+00 -0.00000000000E+00 -0.13405640495E+01  0.13405721837E+01  0.46700000000E-02 0. -1.
        -13    1    1    2    0    0  0.10749257696E+02 -0.51786673834E+01  0.45050757979E+02  0.46604153290E+02  0.10570000000E+00 0. -1.
         13    1    1    2    0    0 -0.10749257696E+02  0.51786673834E+01  0.62560688459E+02  0.63688429482E+02  0.10570000000E+00 0.  1.
<mgrwt>
<rscale>  0 0.24170859E+02</rscale>
<asrwt>0</asrwt>
<pdfrwt beam="1">  1        1 0.16761859E-01 0.24170859E+02</pdfrwt>
<pdfrwt beam="2">  1       -1 0.20624113E-03 0.24170859E+02</pdfrwt>
<totfact> 0.29298873E+06</totfact>
</mgrwt>
</event>
<event>
 4    1  0.4261729E-001  0.8494400E+02  0.7818608E-02  0.1315579E+00
          1   -1    0    0  501    0  0.00000000000E+00  0.00000000000E+00  0.41036161477E+02  0.41036161743E+02  0.46700000000E-02 0. -1.
         -1   -1    0    0    0  501 -0.00000000000E+00 -0.00000000000E+00 -0.43958077715E+02  0.43958077963E+02  0.46700000000E-02 0.  1.
        -13    1    1    2    0    0 -0.40276832543E+02 -0.13278731629E+02 -0.37670275557E+01  0.42576397481E+02  0.10570000000E+00 0.  1.
         13    1    1    2    0    0  0.40276832543E+02  0.13278731629E+02  0.84511131822E+00  0.42417842225E+02  0.10570000000E+00 0. -1.
<mgrwt>
<rscale>  0 0.84944000E+02</rscale>
<asrwt>0</asrwt>
<pdfrwt beam="1">  1        1 0.63132556E-02 0.84944000E+02</pdfrwt>
<pdfrwt beam="2">  1       -1 0.67627812E-02 0.84944000E+02</pdfrwt>
<totfact> 0.11099200E+05</totfact>
</mgrwt>
</event>
<event>
 4    1  0.4261729E-001  0.2214046E+02  0.7818608E-02  0.1705834E+00
          1   -1    0    0  501    0  0.00000000000E+00  0.00000000000E+00  0.21234104944E+02  0.21234105457E+02  0.46700000000E-02 0.  1.
         -1   -1    0    0    0  501 -0.00000000000E+00 -0.00000000000E+00 -0.57713764790E+01  0.57713783684E+01  0.46700000000E-02 0. -1.
        -13    1    1    2    0    0  0.51085229451E+01  0.93858628395E+01  0.11255413996E+02  0.15520533001E+02  0.10570000000E+00 0.  1.
         13    1    1    2    0    0 -0.51085229451E+01 -0.93858628395E+01  0.42073144692E+01  0.11484950825E+02  0.10570000000E+00 0. -1.
<mgrwt>
<rscale>  0 0.22140465E+02</rscale>
<asrwt>0</asrwt>
<pdfrwt beam="1">  1        1 0.32667855E-02 0.22140465E+02</pdfrwt>
<pdfrwt beam="2">  1       -1 0.88790427E-03 0.22140465E+02</pdfrwt>
<totfact> 0.31620634E+06</totfact>
</mgrwt>
</event>
<event>
 4    1  0.4261729E-001  0.3257519E+02  0.7818608E-02  0.1571252E+00
         -1   -1    0    0    0  501 -0.00000000000E+00  0.00000000000E+00  0.78883405049E+01  0.78883418873E+01  0.46700000000E-02 0. -1.
          1   -1    0    0  501    0  0.00000000000E+00 -0.00000000000E+00 -0.33630106442E+02  0.33630106767E+02  0.46700000000E-02 0.  1.
        -13    1    1    2    0    0  0.24382837903E+01 -0.15896016552E+02 -0.95851286248E+01  0.18722030694E+02  0.10570000000E+00 0.  1.
         13    1    1    2    0    0 -0.24382837903E+01  0.15896016552E+02 -0.16156637313E+02  0.22796417960E+02  0.10570000000E+00 0. -1.
<mgrwt>
<rscale>  0 0.32575191E+02</rscale>
<asrwt>0</asrwt>
<pdfrwt beam="2">  1        1 0.51738626E-02 0.32575191E+02</pdfrwt>
<pdfrwt beam="1">  1       -1 0.12135910E-02 0.32575191E+02</pdfrwt>
<totfact> 0.13089713E+06</totfact>
</mgrwt>
</event>
<event>
 4    1  0.4261729E-001  0.3048501E+02  0.7818608E-02  0.1592789E+00
         -1   -1    0    0    0  501 -0.00000000000E+00  0.00000000000E+00  0.11836506872E+03  0.11836506881E+03  0.46700000000E-02 0. -1.
          1   -1    0    0  501    0  0.00000000000E+00 -0.00000000000E+00 -0.19628561266E+01  0.19628616820E+01  0.46700000000E-02 0.  1.
        -13    1    1    2    0    0  0.76285373053E+01  0.12574666496E+02  0.42409699074E+02  0.44887755201E+02  0.10570000000E+00 0.  1.
         13    1    1    2    0    0 -0.76285373053E+01 -0.12574666496E+02  0.73992513520E+02  0.75440175294E+02  0.10570000000E+00 0. -1.
<mgrwt>
<rscale>  0 0.30485009E+02</rscale>
<asrwt>0</asrwt>
<pdfrwt beam="2">  1        1 0.30197829E-03 0.30485009E+02</pdfrwt>
<pdfrwt beam="1">  1       -1 0.18210012E-01 0.30485009E+02</pdfrwt>
<totfact> 0.11902034E+06</totfact>
</mgrwt>
</event>
<event>
 4    1  0.4261729E-001  0.5480060E+02  0.7818608E-02  0.1421044E+00
          1   -1    0    0  501    0  0.00000000000E+00  0.00000000000E+00  0.69949365927E+01  0.69949381516E+01  0.46700000000E-02 0. -1.
         -1   -1    0    0    0  501 -0.00000000000E+00 -0.00000000000E+00 -0.10733140904E+03  0.10733140914E+03  0.46700000000E-02 0.  1.
        -13    1    1    2    0    0  0.16221672328E+01 -0.26493229532E+02 -0.64354973377E+02  0.69613909590E+02  0.10570000000E+00 0. -1.
         13    1    1    2    0    0 -0.16221672328E+01  0.26493229532E+02 -0.35981499072E+02  0.44712437705E+02  0.10570000000E+00 0.  1.
<mgrwt>
<rscale>  0 0.54800602E+02</rscale>
<asrwt>0</asrwt>
<pdfrwt beam="1">  1        1 0.10761443E-02 0.54800602E+02</pdfrwt>
<pdfrwt beam="2">  1       -1 0.16512523E-01 0.54800602E+02</pdfrwt>
<totfact> 0.29283673E+05</totfact>
</mgrwt>
</event>
<event>
 4    1  0.4261729E-001  0.2824852E+02  0.7818608E-02  0.1618297E+00
         -1   -1    0    0    0  501 -0.00000000000E+00  0.00000000000E+00  0.25264997819E+01  0.25265040979E+01  0.46700000000E-02 0.  1.
          1   -1    0    0  501    0  0.00000000000E+00 -0.00000000000E+00 -0.78960836354E+02  0.78960836492E+02  0.46700000000E-02 0. -1.
        -13    1    1    2    0    0  0.11615226389E+02  0.14781411008E+01 -0.61001437012E+02  0.62115093780E+02  0.10570000000E+00 0. -1.
         13    1    1    2    0    0 -0.11615226389E+02 -0.14781411008E+01 -0.15432899560E+02  0.19372246811E+02  0.10570000000E+00 0.  1.
<mgrwt>
<rscale>  0 0.28248520E+02</rscale>
<asrwt>0</asrwt>
<pdfrwt beam="2">  1        1 0.12147819E-01 0.28248520E+02</pdfrwt>
<pdfrwt beam="1">  1       -1 0.38869268E-03 0.28248520E+02</pdfrwt>
<totfact> 0.19719131E+06</totfact>
</mgrwt>
</event>
<event>
 4    1  0.4261729E-001  0.4213307E+02  0.7818608E-02  0.1493076E+00
         -1   -1    0    0    0  501 -0.00000000000E+00  0.00000000000E+00  0.32686610488E+01  0.32686643849E+01  0.46700000000E-02 0. -1.
          1   -1    0    0  501    0  0.00000000000E+00 -0.00000000000E+00 -0.13577383148E+03  0.13577383156E+03  0.46700000000E-02 0.  1.
        -13    1    1    2    0    0  0.20625525506E+02 -0.26638052684E+01 -0.77335911749E+02  0.80083472573E+02  0.10570000000E+00 0.  1.
         13    1    1    2    0    0 -0.20625525506E+02  0.26638052684E+01 -0.55169258681E+02  0.58959023370E+02  0.10570000000E+00 0. -1.
<mgrwt>
<rscale>  0 0.42133069E+02</rscale>
<asrwt>0</asrwt>
<pdfrwt beam="2">  1        1 0.20888278E-01 0.42133069E+02</pdfrwt>
<pdfrwt beam="1">  1       -1 0.50287130E-03 0.42133069E+02</pdfrwt>
<totfact> 0.80772616E+05</totfact>
</mgrwt>
</event>
<event>
 4    1  0.4261729E-001  0.4596831E+02  0.7818608E-02  0.1468386E+00
          1   -1    0    0  501    0  0.00000000000E+00  0.00000000000E+00  0.22749012692E+02  0.22749013171E+02  0.46700000000E-02 0.  1.
         -1   -1    0    0    0  501 -0.00000000000E+00 -0.00000000000E+00 -0.23221723360E+02  0.23221723829E+02  0.46700000000E-02 0. -1.
        -13    1    1    2    0    0 -0.65178673263E+01 -0.20199255421E+02 -0.90554164236E+01  0.23076053674E+02  0.10570000000E+00 0. -1.
         13    1    1    2    0    0  0.65178673263E+01  0.20199255421E+02  0.85827057558E+01  0.22894683327E+02  0.10570000000E+00 0.  1.
<mgrwt>
<rscale>  0 0.45968307E+02</rscale>
<asrwt>0</asrwt>
<pdfrwt beam="1">  1        1 0.34998482E-02 0.45968307E+02</pdfrwt>
<pdfrwt beam="2">  1       -1 0.35725729E-02 0.45968307E+02</pdfrwt>
<totfact> 0.53921436E+05</totfact>
</mgrwt>
</event>
<event>
 4    1  0.4261729E-001  0.3089135E+02  0.7818608E-02  0.1588440E+00
         -1   -1    0    0    0  501 -0.00000000000E+00  0.00000000000E+00  0.17582931763E+02  0.17582932383E+02  0.46700000000E-02 0. -1.
          1   -1    0    0  501    0  0.00000000000E+00 -0.00000000000E+00 -0.13568210682E+02  0.13568211485E+02  0.46700000000E-02 0.  1.
        -13    1    1    2    0    0  0.98798169796E+01  0.76841588567E+01 -0.71186471840E+01  0.14399423291E+02  0.10570000000E+00 0.  1.
         13    1    1    2    0    0 -0.98798169796E+01 -0.76841588567E+01  0.11133368265E+02  0.16751720578E+02  0.10570000000E+00 0. -1.
<mgrwt>
<rscale>  0 0.30891354E+02</rscale>
<asrwt>0</asrwt>
<pdfrwt beam="2">  1        1 0.20874171E-02 0.30891354E+02</pdfrwt>
<pdfrwt beam="1">  1       -1 0.27050665E-02 0.30891354E+02</pdfrwt>
<totfact> 0.14084623E+06</totfact>
</mgrwt>
</event>
<event>
 4    1  0.4261729E-001  0.2347665E+02  0.7818608E-02  0.1683898E+00
         -1   -1    0    0    0  501 -0.00000000000E+00  0.00000000000E+00  0.11558296865E+02  0.11558297809E+02  0.46700000000E-02 0. -1.
          1   -1    0    0  501    0  0.00000000000E+00 -0.00000000000E+00 -0.11921154885E+02  0.11921155800E+02  0.46700000000E-02 0.  1.
        -13    1    1    2    0    0  0.68519172426E+01 -0.90844910446E+01  0.26999477290E+01  0.11695197205E+02  0.10570000000E+00 0.  1.
         13    1    1    2    0    0 -0.68519172426E+01  0.90844910446E+01 -0.30628057487E+01  0.11784256403E+02  0.10570000000E+00 0. -1.
<mgrwt>
<rscale>  0 0.23476650E+02</rscale>
<asrwt>0</asrwt>
<pdfrwt beam="2">  1        1 0.18340240E-02 0.23476650E+02</pdfrwt>
<pdfrwt beam="1">  1       -1 0.17781997E-02 0.23476650E+02</pdfrwt>
<totfact> 0.26920860E+06</totfact>
</mgrwt>
</event>
<event>
 4    1  0.4261729E-001  0.2212062E+02  0.7818608E-02  0.1706174E+00
          1   -1    0    0  501    0  0.00000000000E+00  0.00000000000E+00  0.61059018439E+02  0.61059018618E+02  0.46700000000E-02 0. -1.
         -1   -1    0    0    0  501 -0.00000000000E+00 -0.00000000000E+00 -0.20034758882E+01  0.20034813309E+01  0.46700000000E-02 0.  1.
        -13    1    1    2    0    0  0.27731788091E+01 -0.96312383284E+01  0.42859254519E+02  0.44015657928E+02  0.10570000000E+00 0. -1.
         13    1    1    2    0    0 -0.27731788091E+01  0.96312383284E+01  0.16196288032E+02  0.19046842020E+02  0.10570000000E+00 0.  1.
<mgrwt>
<rscale>  0 0.22120619E+02</rscale>
<asrwt>0</asrwt>
<pdfrwt beam="1">  1        1 0.93936944E-02 0.22120619E+02</pdfrwt>
<pdfrwt beam="2">  1       -1 0.30822753E-03 0.22120619E+02</pdfrwt>
<totfact> 0.33792349E+06</totfact>
</mgrwt>
</event>
<event>
 4    1  0.4261729E-001  0.2257679E+02  0.7818608E-02  0.1698463E+00
         -1   -1    0    0    0  501 -0.00000000000E+00  0.00000000000E+00  0.55112286980E+02  0.55112287178E+02  0.46700000000E-02 0.  1.
          1   -1    0    0  501    0  0.00000000000E+00 -0.00000000000E+00 -0.23121479729E+01  0.23121526891E+01  0.46700000000E-02 0. -1.
        -13    1    1    2    0    0  0.69805341765E+01  0.86863164178E+01  0.21824015344E+02  0.24504668301E+02  0.10570000000E+00 0. -1.
         13    1    1    2    0    0 -0.69805341765E+01 -0.86863164178E+01  0.30976123663E+02  0.32919771566E+02  0.10570000000E+00 0.  1.
<mgrwt>
<rscale>  0 0.22576794E+02</rscale>
<asrwt>0</asrwt>
<pdfrwt beam="2">  1        1 0.35571545E-03 0.22576794E+02</pdfrwt>
<pdfrwt beam="1">  1       -1 0.84788138E-02 0.22576794E+02</pdfrwt>
<totfact> 0.26414278E+06</totfact>
</mgrwt>
</event>
<event>
 4    1  0.4261729E-001  0.2103669E+02  0.7818608E-02  0.1725465E+00
         -1   -1    0    0    0  501 -0.00000000000E+00  0.00000000000E+00  0.42624272178E+02  0.42624272434E+02  0.46700000000E-02 0.  1.
          1   -1    0    0  501    0  0.00000000000E+00 -0.00000000000E+00 -0.25955986245E+01  0.25956028256E+01  0.46700000000E-02 0. -1.
        -13    1    1    2    0    0 -0.44237399638E+01 -0.90828032815E+01  0.26302573926E+02  0.28176290713E+02  0.10570000000E+00 0.  1.
         13    1    1    2    0    0  0.44237399638E+01  0.90828032815E+01  0.13726099627E+02  0.17043584546E+02  0.10570000000E+00 0. -1.
<mgrwt>
<rscale>  0 0.21036692E+02</rscale>
<asrwt>0</asrwt>
<pdfrwt beam="2">  1        1 0.39932322E-03 0.21036692E+02</pdfrwt>
<pdfrwt beam="1">  1       -1 0.65575804E-02 0.21036692E+02</pdfrwt>
<totfact> 0.31721422E+06</totfact>
</mgrwt>
</event>
<event>
 4    1  0.4261729E-001  0.2637542E+02  0.7818608E-02  0.1641997E+00
          1   -1    0    0  501    0  0.00000000000E+00  0.00000000000E+00  0.78773358931E+02  0.78773359069E+02  0.46700000000E-02 0.  1.
         -1   -1    0    0    0  501 -0.00000000000E+00 -0.00000000000E+00 -0.22077960070E+01  0.22078009461E+01  0.46700000000E-02 0. -1.
        -13    1    1    2    0    0  0.12009641462E+02 -0.48532463200E+01  0.45877762213E+02  0.47671435117E+02  0.10570000000E+00 0. -1.
         13    1    1    2    0    0 -0.12009641462E+02  0.48532463200E+01  0.30687800711E+02  0.33309724899E+02  0.10570000000E+00 0.  1.
<mgrwt>
<rscale>  0 0.26375421E+02</rscale>
<asrwt>0</asrwt>
<pdfrwt beam="1">  1        1 0.12118979E-01 0.26375421E+02</pdfrwt>
<pdfrwt beam="2">  1       -1 0.33966130E-03 0.26375421E+02</pdfrwt>
<totfact> 0.23130358E+06</totfact>
</mgrwt>
</event>
<event>
 4    1  0.4261729E-001  0.4502059E+02  0.7818608E-02  0.1474213E+00
         -1   -1    0    0    0  501 -0.00000000000E+00  0.00000000000E+00  0.42408543045E+02  0.42408543302E+02  0.46700000000E-02 0.  1.
          1   -1    0    0  501    0  0.00000000000E+00 -0.00000000000E+00 -0.11948378391E+02  0.11948379303E+02  0.46700000000E-02 0. -1.
        -13    1    1    2    0    0 -0.60311703154E+01  0.10350574548E+02 -0.77796882832E+01  0.14284401672E+02  0.10570000000E+00 0. -1.
         13    1    1    2    0    0  0.60311703154E+01 -0.10350574548E+02  0.38239852938E+02  0.40072520934E+02  0.10570000000E+00 0.  1.
<mgrwt>
<rscale>  0 0.45020589E+02</rscale>
<asrwt>0</asrwt>
<pdfrwt beam="2">  1        1 0.18382121E-02 0.45020589E+02</pdfrwt>
<pdfrwt beam="1">  1       -1 0.65243914E-02 0.45020589E+02</pdfrwt>
<totfact> 0.53733509E+05</totfact>
</mgrwt>
</event>
<event>
 4    1  0.4261729E-001  0.2857275E+02  0.7818608E-02  0.1614423E+00
         -1   -1    0    0    0  501 -0.00000000000E+00  0.00000000000E+00  0.74163339306E+01  0.74163354009E+01  0.46700000000E-02 0.  1.
          1   -1    0    0  501    0  0.00000000000E+00 -0.00000000000E+00 -0.27520391955E+02  0.27520392351E+02  0.46700000000E-02 0. -1.
        -13    1    1    2    0    0 -0.52498711811E+01  0.86559238351E+01  0.22728809271E+01  0.10376093921E+02  0.10570000000E+00 0.  1.
         13    1    1    2    0    0  0.52498711811E+01 -0.86559238351E+01 -0.22376938951E+02  0.24560633831E+02  0.10570000000E+00 0. -1.
<mgrwt>
<rscale>  0 0.28572746E+02</rscale>
<asrwt>0</asrwt>
<pdfrwt beam="2">  1        1 0.42339066E-02 0.28572746E+02</pdfrwt>
<pdfrwt beam="1">  1       -1 0.11409746E-02 0.28572746E+02</pdfrwt>
<totfact> 0.17694281E+06</totfact>
</mgrwt>
</event>
<event>
 4    1  0.4261729E-001  0.2836118E+02  0.7818608E-02  0.1616944E+00
         -1   -1    0    0    0  501 -0.00000000000E+00  0.00000000000E+00  0.19158431415E+01  0.19158488332E+01  0.46700000000E-02 0. -1.
          1   -1    0    0  501    0  0.00000000000E+00 -0.00000000000E+00 -0.10496100130E+03  0.10496100141E+03  0.46700000000E-02 0.  1.
        -13    1    1    2    0    0  0.84918976784E+01 -0.94140832126E+01 -0.27587720056E+02  0.30361665950E+02  0.10570000000E+00 0.  1.
         13    1    1    2    0    0 -0.84918976784E+01  0.94140832126E+01 -0.75457438106E+02  0.76515184290E+02  0.10570000000E+00 0. -1.
<mgrwt>
<rscale>  0 0.28361179E+02</rscale>
<asrwt>0</asrwt>
<pdfrwt beam="2">  1        1 0.16147842E-01 0.28361179E+02</pdfrwt>
<pdfrwt beam="1">  1       -1 0.29474563E-03 0.28361179E+02</pdfrwt>
<totfact> 0.20171157E+06</totfact>
</mgrwt>
</event>
<event>
 4    1  0.4261729E-001  0.7989811E+02  0.7818608E-02  0.1329341E+00
         -1   -1    0    0    0  501 -0.00000000000E+00  0.00000000000E+00  0.39682753102E+02  0.39682753377E+02  0.46700000000E-02 0.  1.
          1   -1    0    0  501    0  0.00000000000E+00 -0.00000000000E+00 -0.40217138449E+02  0.40217138720E+02  0.46700000000E-02 0. -1.
        -13    1    1    2    0    0 -0.12367610147E+02  0.16938185925E+02 -0.34268772291E+02  0.40177354940E+02  0.10570000000E+00 0. -1.
         13    1    1    2    0    0  0.12367610147E+02 -0.16938185925E+02  0.33734386944E+02  0.39722537157E+02  0.10570000000E+00 0.  1.
<mgrwt>
<rscale>  0 0.79898105E+02</rscale>
<asrwt>0</asrwt>
<pdfrwt beam="2">  1        1 0.61872521E-02 0.79898105E+02</pdfrwt>
<pdfrwt beam="1">  1       -1 0.61050390E-02 0.79898105E+02</pdfrwt>
<totfact> 0.13117887E+05</totfact>
</mgrwt>
</event>
<event>
 4    1  0.4261729E-001  0.3319492E+02  0.7818608E-02  0.1565240E+00
          1   -1    0    0  501    0  0.00000000000E+00  0.00000000000E+00  0.16524327000E+03  0.16524327007E+03  0.46700000000E-02 0. -1.
         -1   -1    0    0    0  501 -0.00000000000E+00 -0.00000000000E+00 -0.16670880036E+01  0.16670945446E+01  0.46700000000E-02 0.  1.
        -13    1    1    2    0    0 -0.87998325546E+01 -0.13790205426E+02  0.95882848274E+02  0.97268384300E+02  0.10570000000E+00 0. -1.
         13    1    1    2    0    0  0.87998325546E+01  0.13790205426E+02  0.67693333725E+02  0.69641980314E+02  0.10570000000E+00 0.  1.
<mgrwt>
<rscale>  0 0.33194917E+02</rscale>
<asrwt>0</asrwt>
<pdfrwt beam="1">  1        1 0.25422039E-01 0.33194917E+02</pdfrwt>
<pdfrwt beam="2">  1       -1 0.25647561E-03 0.33194917E+02</pdfrwt>
<totfact> 0.14816610E+06</totfact>
</mgrwt>
</event>
<event>
 4    1  0.4261729E-001  0.2131159E+02  0.7818608E-02  0.1720437E+00
         -1   -1    0    0    0  501 -0.00000000000E+00  0.00000000000E+00  0.39720584225E+01  0.39720611678E+01  0.46700000000E-02 0. -1.
          1   -1    0    0  501    0  0.00000000000E+00 -0.00000000000E+00 -0.28586153428E+02  0.28586153809E+02  0.46700000000E-02 0.  1.
        -13    1    1    2    0    0  0.10385361222E+02  0.23247227694E+00 -0.15930355607E+02  0.19018337817E+02  0.10570000000E+00 0.  1.
         13    1    1    2    0    0 -0.10385361222E+02 -0.23247227694E+00 -0.86837393984E+01  0.13539877160E+02  0.10570000000E+00 0. -1.
<mgrwt>
<rscale>  0 0.21311586E+02</rscale>
<asrwt>0</asrwt>
<pdfrwt beam="2">  1        1 0.43978699E-02 0.21311586E+02</pdfrwt>
<pdfrwt beam="1">  1       -1 0.61108617E-03 0.21311586E+02</pdfrwt>
<totfact> 0.34984377E+06</totfact>
</mgrwt>
</event>
<event>
 4    1  0.4261729E-001  0.3495337E+02  0.7818608E-02  0.1549015E+00
          1   -1    0    0  501    0  0.00000000000E+00  0.00000000000E+00  0.75966179475E+01  0.75966193830E+01  0.46700000000E-02 0. -1.
         -1   -1    0    0    0  501 -0.00000000000E+00 -0.00000000000E+00 -0.40206636449E+02  0.40206636720E+02  0.46700000000E-02 0.  1.
        -13    1    1    2    0    0 -0.76159775996E+01 -0.14434384072E+02 -0.77566397166E+01  0.18070174059E+02  0.10570000000E+00 0. -1.
         13    1    1    2    0    0  0.76159775996E+01  0.14434384072E+02 -0.24853378785E+02  0.29733082044E+02  0.10570000000E+00 0.  1.
<mgrwt>
<rscale>  0 0.34953369E+02</rscale>
<asrwt>0</asrwt>
<pdfrwt beam="1">  1        1 0.11687106E-02 0.34953369E+02</pdfrwt>
<pdfrwt beam="2">  1       -1 0.61856364E-02 0.34953369E+02</pdfrwt>
<totfact> 0.99214034E+05</totfact>
</mgrwt>
</event>
<event>
 4    1  0.4261729E-001  0.3209369E+02  0.7818608E-02  0.1576036E+00
         -1   -1    0    0    0  501 -0.00000000000E+00  0.00000000000E+00  0.31903456267E+01  0.31903490447E+01  0.46700000000E-02 0. -1.
          1   -1    0    0  501    0  0.00000000000E+00 -0.00000000000E+00 -0.80712581935E+02  0.80712582071E+02  0.46700000000E-02 0.  1.
        -13    1    1    2    0    0 -0.15183388716E+02 -0.12231817042E+01 -0.25570222151E+02  0.29763717841E+02  0.10570000000E+00 0. -1.
         13    1    1    2    0    0  0.15183388716E+02  0.12231817042E+01 -0.51952014158E+02  0.54139213274E+02  0.10570000000E+00 0.  1.
<mgrwt>
<rscale>  0 0.32093687E+02</rscale>
<asrwt>0</asrwt>
<pdfrwt beam="2">  1        1 0.12417319E-01 0.32093687E+02</pdfrwt>
<pdfrwt beam="1">  1       -1 0.49082274E-03 0.32093687E+02</pdfrwt>
<totfact> 0.14617534E+06</totfact>
</mgrwt>
</event>
<event>
 4    1  0.4261729E-001  0.2924520E+02  0.7818608E-02  0.1606585E+00
          1   -1    0    0  501    0  0.00000000000E+00  0.00000000000E+00  0.28208737983E+01  0.28208776640E+01  0.46700000000E-02 0. -1.
         -1   -1    0    0    0  501 -0.00000000000E+00 -0.00000000000E+00 -0.75799285636E+02  0.75799285780E+02  0.46700000000E-02 0.  1.
        -13    1    1    2    0    0  0.94571072939E+01  0.46746944451E+01 -0.92695417242E+01  0.14043689785E+02  0.10570000000E+00 0. -1.
         13    1    1    2    0    0 -0.94571072939E+01 -0.46746944451E+01 -0.63708870113E+02  0.64576473658E+02  0.10570000000E+00 0.  1.
<mgrwt>
<rscale>  0 0.29245196E+02</rscale>
<asrwt>0</asrwt>
<pdfrwt beam="1">  1        1 0.43398095E-03 0.29245196E+02</pdfrwt>
<pdfrwt beam="2">  1       -1 0.11661427E-01 0.29245196E+02</pdfrwt>
<totfact> 0.14072571E+06</totfact>
</mgrwt>
</event>
<event>
 4    1  0.4261729E-001  0.2599430E+02  0.7818608E-02  0.1647118E+00
          1   -1    0    0  501    0  0.00000000000E+00  0.00000000000E+00  0.50866647327E+01  0.50866668764E+01  0.46700000000E-02 0.  1.
         -1   -1    0    0    0  501 -0.00000000000E+00 -0.00000000000E+00 -0.33209553070E+02  0.33209553398E+02  0.46700000000E-02 0. -1.
        -13    1    1    2    0    0 -0.83130103151E+01 -0.97601026433E+01 -0.17203655743E+02  0.21455598047E+02  0.10570000000E+00 0. -1.
         13    1    1    2    0    0  0.83130103151E+01  0.97601026433E+01 -0.10919232594E+02  0.16840622228E+02  0.10570000000E+00 0.  1.
<mgrwt>
<rscale>  0 0.25994300E+02</rscale>
<asrwt>0</asrwt>
<pdfrwt beam="1">  1        1 0.78256401E-03 0.25994300E+02</pdfrwt>
<pdfrwt beam="2">  1       -1 0.51091621E-02 0.25994300E+02</pdfrwt>
<totfact> 0.20100946E+06</totfact>
</mgrwt>
</event>
<event>
 4    1  0.4261729E-001  0.2183711E+02  0.7818608E-02  0.1711084E+00
          1   -1    0    0  501    0  0.00000000000E+00  0.00000000000E+00  0.85939918289E+02  0.85939918416E+02  0.46700000000E-02 0.  1.
         -1   -1    0    0    0  501 -0.00000000000E+00 -0.00000000000E+00 -0.13871846305E+01  0.13871924913E+01  0.46700000000E-02 0. -1.
        -13    1    1    2    0    0  0.10744609679E+02  0.17846855525E+01  0.39251957017E+02  0.40735230966E+02  0.10570000000E+00 0.  1.
         13    1    1    2    0    0 -0.10744609679E+02 -0.17846855525E+01  0.45300776641E+02  0.46591879941E+02  0.10570000000E+00 0. -1.
<mgrwt>
<rscale>  0 0.21837114E+02</rscale>
<asrwt>0</asrwt>
<pdfrwt beam="1">  1        1 0.13221531E-01 0.21837114E+02</pdfrwt>
<pdfrwt beam="2">  1       -1 0.21341357E-03 0.21837114E+02</pdfrwt>
<totfact> 0.35901197E+06</totfact>
</mgrwt>
</event>
<event>
 4    1  0.4261729E-001  0.2291114E+02  0.7818608E-02  0.1692955E+00
         -1   -1    0    0    0  501 -0.00000000000E+00  0.00000000000E+00  0.91992414206E+02  0.91992414325E+02  0.46700000000E-02 0. -1.
          1   -1    0    0  501    0  0.00000000000E+00 -0.00000000000E+00 -0.14265280013E+01  0.14265356454E+01  0.46700000000E-02 0.  1.
        -13    1    1    2    0    0  0.72935675736E+01 -0.84115385740E+01  0.56276055151E+02  0.57366851622E+02  0.10570000000E+00 0.  1.
         13    1    1    2    0    0 -0.72935675736E+01  0.84115385740E+01  0.34289831054E+02  0.36052098348E+02  0.10570000000E+00 0. -1.
<mgrwt>
<rscale>  0 0.22911143E+02</rscale>
<asrwt>0</asrwt>
<pdfrwt beam="2">  1        1 0.21946639E-03 0.22911143E+02</pdfrwt>
<pdfrwt beam="1">  1       -1 0.14152683E-01 0.22911143E+02</pdfrwt>
<totfact> 0.23901338E+06</totfact>
</mgrwt>
</event>
<event>
 4    1  0.4261729E-001  0.2358478E+02  0.7818608E-02  0.1682203E+00
          1   -1    0    0  501    0  0.00000000000E+00  0.00000000000E+00  0.12460190148E+02  0.12460191024E+02  0.46700000000E-02 0. -1.
         -1   -1    0    0    0  501 -0.00000000000E+00 -0.00000000000E+00 -0.11160380575E+02  0.11160381552E+02  0.46700000000E-02 0.  1.
        -13    1    1    2    0    0  0.11666812298E+02 -0.17129178611E+01  0.67671647450E+00  0.11811761700E+02  0.10570000000E+00 0. -1.
         13    1    1    2    0    0 -0.11666812298E+02  0.17129178611E+01  0.62309309929E+00  0.11808810875E+02  0.10570000000E+00 0.  1.
<mgrwt>
<rscale>  0 0.23584782E+02</rscale>
<asrwt>0</asrwt>
<pdfrwt beam="1">  1        1 0.19169525E-02 0.23584782E+02</pdfrwt>
<pdfrwt beam="2">  1       -1 0.17169818E-02 0.23584782E+02</pdfrwt>
<totfact> 0.26688681E+06</totfact>
</mgrwt>
</event>
<event>
 4    1  0.4261729E-001  0.2826957E+02  0.7818608E-02  0.1618043E+00
          1   -1    0    0  501    0  0.00000000000E+00  0.00000000000E+00  0.48051190296E+02  0.48051190523E+02  0.46700000000E-02 0. -1.
         -1   -1    0    0    0  501 -0.00000000000E+00 -0.00000000000E+00 -0.41579019984E+01  0.41579046210E+01  0.46700000000E-02 0.  1.
        -13    1    1    2    0    0  0.24790545813E+01 -0.12059149189E+02  0.34770115209E+02  0.36885510366E+02  0.10570000000E+00 0. -1.
         13    1    1    2    0    0 -0.24790545813E+01  0.12059149189E+02  0.91231730888E+01  0.15323584779E+02  0.10570000000E+00 0.  1.
<mgrwt>
<rscale>  0 0.28269575E+02</rscale>
<asrwt>0</asrwt>
<pdfrwt beam="1">  1        1 0.73924916E-02 0.28269575E+02</pdfrwt>
<pdfrwt beam="2">  1       -1 0.63967740E-03 0.28269575E+02</pdfrwt>
<totfact> 0.18830931E+06</totfact>
</mgrwt>
</event>
<event>
 4    1  0.4261729E-001  0.2251971E+02  0.7818608E-02  0.1699416E+00
          1   -1    0    0  501    0  0.00000000000E+00  0.00000000000E+00  0.76825920843E+02  0.76825920985E+02  0.46700000000E-02 0.  1.
         -1   -1    0    0    0  501 -0.00000000000E+00 -0.00000000000E+00 -0.16502768188E+01  0.16502834264E+01  0.46700000000E-02 0. -1.
        -13    1    1    2    0    0  0.62817534905E+01 -0.92804885072E+01  0.41381648310E+02  0.42872367361E+02  0.10570000000E+00 0.  1.
         13    1    1    2    0    0 -0.62817534905E+01  0.92804885072E+01  0.33793995715E+02  0.35603837050E+02  0.10570000000E+00 0. -1.
<mgrwt>
<rscale>  0 0.22519707E+02</rscale>
<asrwt>0</asrwt>
<pdfrwt beam="1">  1        1 0.11819372E-01 0.22519707E+02</pdfrwt>
<pdfrwt beam="2">  1       -1 0.25388929E-03 0.22519707E+02</pdfrwt>
<totfact> 0.33127199E+06</totfact>
</mgrwt>
</event>
<event>
 4    1  0.4261729E-001  0.2861893E+02  0.7818608E-02  0.1613876E+00
          1   -1    0    0  501    0  0.00000000000E+00  0.00000000000E+00  0.66866442102E+01  0.66866458409E+01  0.46700000000E-02 0.  1.
         -1   -1    0    0    0  501 -0.00000000000E+00 -0.00000000000E+00 -0.30622340359E+02  0.30622340715E+02  0.46700000000E-02 0. -1.
        -13    1    1    2    0    0 -0.94381803359E+01 -0.10017192156E+02 -0.68642439790E+01  0.15380260227E+02  0.10570000000E+00 0.  1.
         13    1    1    2    0    0  0.94381803359E+01  0.10017192156E+02 -0.17071452170E+02  0.21928726329E+02  0.10570000000E+00 0. -1.
<mgrwt>
<rscale>  0 0.28618926E+02</rscale>
<asrwt>0</asrwt>
<pdfrwt beam="1">  1        1 0.10287147E-02 0.28618926E+02</pdfrwt>
<pdfrwt beam="2">  1       -1 0.47111293E-02 0.28618926E+02</pdfrwt>
<totfact> 0.16210080E+06</totfact>
</mgrwt>
</event>
<event>
 4    1  0.4261729E-001  0.6431004E+02  0.7818608E-02  0.1380586E+00
         -1   -1    0    0    0  501 -0.00000000000E+00  0.00000000000E+00  0.15964236965E+03  0.15964236972E+03  0.46700000000E-02 0. -1.
          1   -1    0    0  501    0  0.00000000000E+00 -0.00000000000E+00 -0.64766345068E+01  0.64766361904E+01  0.46700000000E-02 0.  1.
        -13    1    1    2    0    0  0.13384230365E+02 -0.29224764650E+02  0.78759057602E+02  0.85066002716E+02  0.10570000000E+00 0. -1.
         13    1    1    2    0    0 -0.13384230365E+02  0.29224764650E+02  0.74406677541E+02  0.81053003192E+02  0.10570000000E+00 0.  1.
<mgrwt>
<rscale>  0 0.64310044E+02</rscale>
<asrwt>0</asrwt>
<pdfrwt beam="2">  1        1 0.99640538E-03 0.64310044E+02</pdfrwt>
<pdfrwt beam="1">  1       -1 0.24560366E-01 0.64310044E+02</pdfrwt>
<totfact> 0.18061729E+05</totfact>
</mgrwt>
</event>
<event>
 4    1  0.4261729E-001  0.3184647E+02  0.7818608E-02  0.1578532E+00
         -1   -1    0    0    0  501 -0.00000000000E+00  0.00000000000E+00  0.49353596183E+01  0.49353618278E+01  0.46700000000E-02 0. -1.
          1   -1    0    0  501    0  0.00000000000E+00 -0.00000000000E+00 -0.51374022909E+02  0.51374023122E+02  0.46700000000E-02 0.  1.
        -13    1    1    2    0    0  0.14615852704E+02 -0.12158975694E+01 -0.12257273117E+02  0.19114221771E+02  0.10570000000E+00 0.  1.
         13    1    1    2    0    0 -0.14615852704E+02  0.12158975694E+01 -0.34181390174E+02  0.37195163178E+02  0.10570000000E+00 0. -1.
<mgrwt>
<rscale>  0 0.31846466E+02</rscale>
<asrwt>0</asrwt>
<pdfrwt beam="2">  1        1 0.79036957E-02 0.31846466E+02</pdfrwt>
<pdfrwt beam="1">  1       -1 0.75928632E-03 0.31846466E+02</pdfrwt>
<totfact> 0.14266488E+06</totfact>
</mgrwt>
</event>
<event>
 4    1  0.4261729E-001  0.3633646E+02  0.7818608E-02  0.1537043E+00
          1   -1    0    0  501    0  0.00000000000E+00  0.00000000000E+00  0.10087999656E+02  0.10088000737E+02  0.46700000000E-02 0. -1.
         -1   -1    0    0    0  501 -0.00000000000E+00 -0.00000000000E+00 -0.32720519590E+02  0.32720519923E+02  0.46700000000E-02 0.  1.
        -13    1    1    2    0    0 -0.19655186825E+01 -0.11321910737E+02  0.52623099780E+01  0.12639303985E+02  0.10570000000E+00 0. -1.
         13    1    1    2    0    0  0.19655186825E+01  0.11321910737E+02 -0.27894829912E+02  0.30169216675E+02  0.10570000000E+00 0.  1.
<mgrwt>
<rscale>  0 0.36336462E+02</rscale>
<asrwt>0</asrwt>
<pdfrwt beam="1">  1        1 0.15520001E-02 0.36336462E+02</pdfrwt>
<pdfrwt beam="2">  1       -1 0.50339262E-02 0.36336462E+02</pdfrwt>
<totfact> 0.92094947E+05</totfact>
</mgrwt>
</event>
<event>
 4    1  0.4261729E-001  0.2442951E+02  0.7818608E-02  0.1669334E+00
         -1   -1    0    0    0  501 -0.00000000000E+00  0.00000000000E+00  0.57170210168E+02  0.57170210359E+02  0.46700000000E-02 0. -1.
          1   -1    0    0  501    0  0.00000000000E+00 -0.00000000000E+00 -0.26097526441E+01  0.26097568224E+01  0.46700000000E-02 0.  1.
        -13    1    1    2    0    0  0.12128958829E+02  0.24354299619E-01  0.30806708375E+02  0.33108559147E+02  0.10570000000E+00 0. -1.
         13    1    1    2    0    0 -0.12128958829E+02 -0.24354299619E-01  0.23753749149E+02  0.26671408034E+02  0.10570000000E+00 0.  1.
<mgrwt>
<rscale>  0 0.24429510E+02</rscale>
<asrwt>0</asrwt>
<pdfrwt beam="2">  1        1 0.40150078E-03 0.24429510E+02</pdfrwt>
<pdfrwt beam="1">  1       -1 0.87954164E-02 0.24429510E+02</pdfrwt>
<totfact> 0.22023246E+06</totfact>
</mgrwt>
</event>
<event>
 4    1  0.4261729E-001  0.2159861E+02  0.7818608E-02  0.1715288E+00
          1   -1    0    0  501    0  0.00000000000E+00  0.00000000000E+00  0.52347631584E+01  0.52347652415E+01  0.46700000000E-02 0.  1.
         -1   -1    0    0    0  501 -0.00000000000E+00 -0.00000000000E+00 -0.22278935623E+02  0.22278936112E+02  0.46700000000E-02 0. -1.
        -13    1    1    2    0    0 -0.53498735146E+01 -0.85527783304E+01 -0.36143755740E+01  0.10716624799E+02  0.10570000000E+00 0.  1.
         13    1    1    2    0    0  0.53498735146E+01  0.85527783304E+01 -0.13429796890E+02  0.16797076555E+02  0.10570000000E+00 0. -1.
<mgrwt>
<rscale>  0 0.21598610E+02</rscale>
<asrwt>0</asrwt>
<pdfrwt beam="1">  1        1 0.80534839E-03 0.21598610E+02</pdfrwt>
<pdfrwt beam="2">  1       -1 0.34275287E-02 0.21598610E+02</pdfrwt>
<totfact> 0.31367757E+06</totfact>
</mgrwt>
</event>
<event>
 4    1  0.4261729E-001  0.3771028E+02  0.7818608E-02  0.1525771E+00
          1   -1    0    0  501    0  0.00000000000E+00  0.00000000000E+00  0.17991492807E+02  0.17991493413E+02  0.46700000000E-02 0.  1.
         -1   -1    0    0    0  501 -0.00000000000E+00 -0.00000000000E+00 -0.19760244154E+02  0.19760244706E+02  0.46700000000E-02 0. -1.
        -13    1    1    2    0    0 -0.48382783071E+01  0.17275142343E+02  0.49242147701E+01  0.18603723916E+02  0.10570000000E+00 0. -1.
         13    1    1    2    0    0  0.48382783071E+01 -0.17275142343E+02 -0.66929661178E+01  0.19148014203E+02  0.10570000000E+00 0.  1.
<mgrwt>
<rscale>  0 0.37710280E+02</rscale>
<asrwt>0</asrwt>
<pdfrwt beam="1">  1        1 0.27679220E-02 0.37710280E+02</pdfrwt>
<pdfrwt beam="2">  1       -1 0.30400377E-02 0.37710280E+02</pdfrwt>
<totfact> 0.87583464E+05</totfact>
</mgrwt>
</event>
<event>
 4    1  0.4261729E-001  0.3849913E+02  0.7818608E-02  0.1519556E+00
          1   -1    0    0  501    0  0.00000000000E+00  0.00000000000E+00  0.31486546648E+02  0.31486546994E+02  0.46700000000E-02 0. -1.
         -1   -1    0    0    0  501 -0.00000000000E+00 -0.00000000000E+00 -0.11768383119E+02  0.11768384046E+02  0.46700000000E-02 0.  1.
        -13    1    1    2    0    0  0.32752311523E+01 -0.17595187601E+02  0.18973166935E+01  0.17998020695E+02  0.10570000000E+00 0. -1.
         13    1    1    2    0    0 -0.32752311523E+01  0.17595187601E+02  0.17820846835E+02  0.25256910346E+02  0.10570000000E+00 0.  1.
<mgrwt>
<rscale>  0 0.38499131E+02</rscale>
<asrwt>0</asrwt>
<pdfrwt beam="1">  1        1 0.48440842E-02 0.38499131E+02</pdfrwt>
<pdfrwt beam="2">  1       -1 0.18105206E-02 0.38499131E+02</pdfrwt>
<totfact> 0.86543493E+05</totfact>
</mgrwt>
</event>
<event>
 4    1  0.4261729E-001  0.3394064E+02  0.7818608E-02  0.1558214E+00
          1   -1    0    0  501    0  0.00000000000E+00  0.00000000000E+00  0.23103188127E+01  0.23103235326E+01  0.46700000000E-02 0.  1.
         -1   -1    0    0    0  501 -0.00000000000E+00 -0.00000000000E+00 -0.12465443806E+03  0.12465443815E+03  0.46700000000E-02 0. -1.
        -13    1    1    2    0    0  0.14402395165E+02  0.70175220957E+01 -0.82102438865E+02  0.83651038504E+02  0.10570000000E+00 0. -1.
         13    1    1    2    0    0 -0.14402395165E+02 -0.70175220957E+01 -0.40241680385E+02  0.43313723178E+02  0.10570000000E+00 0.  1.
<mgrwt>
<rscale>  0 0.33940642E+02</rscale>
<asrwt>0</asrwt>
<pdfrwt beam="1">  1        1 0.35543413E-03 0.33940642E+02</pdfrwt>
<pdfrwt beam="2">  1       -1 0.19177601E-01 0.33940642E+02</pdfrwt>
<totfact> 0.91536438E+05</totfact>
</mgrwt>
</event>
<event>
 4    1  0.4261729E-001  0.2084789E+02  0.7818608E-02  0.1728974E+00
          1   -1    0    0  501    0  0.00000000000E+00  0.00000000000E+00  0.43193227583E+02  0.43193227835E+02  0.46700000000E-02 0. -1.
         -1   -1    0    0    0  501 -0.00000000000E+00 -0.00000000000E+00 -0.25156382657E+01  0.25156426004E+01  0.46700000000E-02 0.  1.
        -13    1    1    2    0    0 -0.10066159031E+02 -0.18476518928E+01  0.24672003958E+02  0.26710678144E+02  0.10570000000E+00 0. -1.
         13    1    1    2    0    0  0.10066159031E+02  0.18476518928E+01  0.16005585359E+02  0.18998192291E+02  0.10570000000E+00 0.  1.
<mgrwt>
<rscale>  0 0.20847891E+02</rscale>
<asrwt>0</asrwt>
<pdfrwt beam="1">  1        1 0.66451120E-02 0.20847891E+02</pdfrwt>
<pdfrwt beam="2">  1       -1 0.38702164E-03 0.20847891E+02</pdfrwt>
<totfact> 0.37645825E+06</totfact>
</mgrwt>
</event>
<event>
 4    1  0.4261729E-001  0.3856324E+02  0.7818608E-02  0.1519059E+00
          1   -1    0    0  501    0  0.00000000000E+00  0.00000000000E+00  0.21483450048E+02  0.21483450556E+02  0.46700000000E-02 0.  1.
         -1   -1    0    0    0  501 -0.00000000000E+00 -0.00000000000E+00 -0.17305451542E+02  0.17305452172E+02  0.46700000000E-02 0. -1.
        -13    1    1    2    0    0  0.69513734522E+01  0.10900945078E+02 -0.12299163644E+02  0.17844685352E+02  0.10570000000E+00 0. -1.
         13    1    1    2    0    0 -0.69513734522E+01 -0.10900945078E+02  0.16477162150E+02  0.20944217376E+02  0.10570000000E+00 0.  1.
<mgrwt>
<rscale>  0 0.38563238E+02</rscale>
<asrwt>0</asrwt>
<pdfrwt beam="1">  1        1 0.33051463E-02 0.38563238E+02</pdfrwt>
<pdfrwt beam="2">  1       -1 0.26623772E-02 0.38563238E+02</pdfrwt>
<totfact> 0.83853698E+05</totfact>
</mgrwt>
</event>
<event>
 4    1  0.4261729E-001  0.2867957E+02  0.7818608E-02  0.1613160E+00
         -1   -1    0    0    0  501 -0.00000000000E+00  0.00000000000E+00  0.80172694821E+01  0.80172708422E+01  0.46700000000E-02 0. -1.
          1   -1    0    0  501    0  0.00000000000E+00 -0.00000000000E+00 -0.25648314971E+02  0.25648315396E+02  0.46700000000E-02 0.  1.
        -13    1    1    2    0    0 -0.95027737536E+01 -0.73596495537E+01 -0.17994955475E+02  0.21640165101E+02  0.10570000000E+00 0.  1.
         13    1    1    2    0    0  0.95027737536E+01  0.73596495537E+01  0.36390998584E+00  0.12025421137E+02  0.10570000000E+00 0. -1.
<mgrwt>
<rscale>  0 0.28679573E+02</rscale>
<asrwt>0</asrwt>
<pdfrwt beam="2">  1        1 0.39458947E-02 0.28679573E+02</pdfrwt>
<pdfrwt beam="1">  1       -1 0.12334262E-02 0.28679573E+02</pdfrwt>
<totfact> 0.17466620E+06</totfact>
</mgrwt>
</event>
<event>
 4    1  0.4261729E-001  0.2170034E+02  0.7818608E-02  0.1713487E+00
          1   -1    0    0  501    0  0.00000000000E+00  0.00000000000E+00  0.98132347021E+02  0.98132347132E+02  0.46700000000E-02 0. -1.
         -1   -1    0    0    0  501 -0.00000000000E+00 -0.00000000000E+00 -0.11996627698E+01  0.11996718594E+01  0.46700000000E-02 0.  1.
        -13    1    1    2    0    0  0.65359736710E+01  0.84505502491E+01  0.39800270511E+02  0.41209264209E+02  0.10570000000E+00 0.  1.
         13    1    1    2    0    0 -0.65359736710E+01 -0.84505502491E+01  0.57132413740E+02  0.58122754783E+02  0.10570000000E+00 0. -1.
<mgrwt>
<rscale>  0 0.21700339E+02</rscale>
<asrwt>0</asrwt>
<pdfrwt beam="1">  1        1 0.15097287E-01 0.21700339E+02</pdfrwt>
<pdfrwt beam="2">  1       -1 0.18456419E-03 0.21700339E+02</pdfrwt>
<totfact> 0.36926830E+06</totfact>
</mgrwt>
</event>
<event>
 4    1  0.4261729E-001  0.2686622E+02  0.7818608E-02  0.1635558E+00
          1   -1    0    0  501    0  0.00000000000E+00  0.00000000000E+00  0.56025806566E+02  0.56025806761E+02  0.46700000000E-02 0. -1.
         -1   -1    0    0    0  501 -0.00000000000E+00 -0.00000000000E+00 -0.32208085910E+01  0.32208119766E+01  0.46700000000E-02 0.  1.
        -13    1    1    2    0    0 -0.59159490961E+01 -0.12046705070E+02  0.27641713341E+02  0.30727789469E+02  0.10570000000E+00 0. -1.
         13    1    1    2    0    0  0.59159490961E+01  0.12046705070E+02  0.25163284634E+02  0.28518829268E+02  0.10570000000E+00 0.  1.
<mgrwt>
<rscale>  0 0.26866225E+02</rscale>
<asrwt>0</asrwt>
<pdfrwt beam="1">  1        1 0.86193546E-02 0.26866225E+02</pdfrwt>
<pdfrwt beam="2">  1       -1 0.49550932E-03 0.26866225E+02</pdfrwt>
<totfact> 0.21476977E+06</totfact>
</mgrwt>
</event>
<event>
 4    1  0.4261729E-001  0.2589991E+02  0.7818608E-02  0.1648403E+00
         -1   -1    0    0    0  501 -0.00000000000E+00  0.00000000000E+00  0.14661692222E+01  0.14661766596E+01  0.46700000000E-02 0.  1.
          1   -1    0    0  501    0  0.00000000000E+00 -0.00000000000E+00 -0.11438030348E+03  0.11438030357E+03  0.46700000000E-02 0. -1.
        -13    1    1    2    0    0 -0.10047791650E+02 -0.75147415579E+01 -0.42129487721E+02  0.43958325330E+02  0.10570000000E+00 0.  1.
         13    1    1    2    0    0  0.10047791650E+02  0.75147415579E+01 -0.70784646532E+02  0.71888154900E+02  0.10570000000E+00 0. -1.
<mgrwt>
<rscale>  0 0.25899909E+02</rscale>
<asrwt>0</asrwt>
<pdfrwt beam="2">  1        1 0.17596963E-01 0.25899909E+02</pdfrwt>
<pdfrwt beam="1">  1       -1 0.22556516E-03 0.25899909E+02</pdfrwt>
<totfact> 0.25161189E+06</totfact>
</mgrwt>
</event>
<event>
 4    1  0.4261729E-001  0.8553112E+02  0.7818608E-02  0.1314049E+00
         -1   -1    0    0    0  501 -0.00000000000E+00  0.00000000000E+00  0.22208240300E+02  0.22208240792E+02  0.46700000000E-02 0.  1.
          1   -1    0    0  501    0  0.00000000000E+00 -0.00000000000E+00 -0.82351996116E+02  0.82351996249E+02  0.46700000000E-02 0. -1.
        -13    1    1    2    0    0 -0.38616722383E+02 -0.44304914702E+01 -0.82718599055E+01  0.39740600663E+02  0.10570000000E+00 0.  1.
         13    1    1    2    0    0  0.38616722383E+02  0.44304914702E+01 -0.51871895910E+02  0.64819636377E+02  0.10570000000E+00 0. -1.
<mgrwt>
<rscale>  0 0.85531116E+02</rscale>
<asrwt>0</asrwt>
<pdfrwt beam="2">  1        1 0.12669538E-01 0.85531116E+02</pdfrwt>
<pdfrwt beam="1">  1       -1 0.34166524E-02 0.85531116E+02</pdfrwt>
<totfact> 0.12048949E+05</totfact>
</mgrwt>
</event>
<event>
 4    1  0.4261729E-001  0.2404437E+02  0.7818608E-02  0.1675120E+00
         -1   -1    0    0    0  501 -0.00000000000E+00  0.00000000000E+00  0.32132959805E+02  0.32132960144E+02  0.46700000000E-02 0. -1.
          1   -1    0    0  501    0  0.00000000000E+00 -0.00000000000E+00 -0.44979648674E+01  0.44979672917E+01  0.46700000000E-02 0.  1.
        -13    1    1    2    0    0 -0.93418929507E+01 -0.60086648003E+01  0.68117152730E+01  0.13030182425E+02  0.10570000000E+00 0.  1.
         13    1    1    2    0    0  0.93418929507E+01  0.60086648003E+01  0.20823279664E+02  0.23600745010E+02  0.10570000000E+00 0. -1.
<mgrwt>
<rscale>  0 0.24044374E+02</rscale>
<asrwt>0</asrwt>
<pdfrwt beam="2">  1        1 0.69199482E-03 0.24044374E+02</pdfrwt>
<pdfrwt beam="1">  1       -1 0.49435324E-02 0.24044374E+02</pdfrwt>
<totfact> 0.24064931E+06</totfact>
</mgrwt>
</event>
<event>
 4    1  0.4261729E-001  0.2175098E+02  0.7818608E-02  0.1712595E+00
          1   -1    0    0  501    0  0.00000000000E+00  0.00000000000E+00  0.76365708271E+02  0.76365708414E+02  0.46700000000E-02 0. -1.
         -1   -1    0    0    0  501 -0.00000000000E+00 -0.00000000000E+00 -0.15488097956E+01  0.15488168361E+01  0.46700000000E-02 0.  1.
        -13    1    1    2    0    0 -0.84579859716E+01 -0.66317875044E+01  0.43345402797E+02  0.44658182322E+02  0.10570000000E+00 0.  1.
         13    1    1    2    0    0  0.84579859716E+01  0.66317875044E+01  0.31471495678E+02  0.33256342927E+02  0.10570000000E+00 0. -1.
<mgrwt>
<rscale>  0 0.21750976E+02</rscale>
<asrwt>0</asrwt>
<pdfrwt beam="1">  1        1 0.11748570E-01 0.21750976E+02</pdfrwt>
<pdfrwt beam="2">  1       -1 0.23827900E-03 0.21750976E+02</pdfrwt>
<totfact> 0.35802635E+06</totfact>
</mgrwt>
</event>
<event>
 4    1  0.4261729E-001  0.5069220E+02  0.7818608E-02  0.1441643E+00
          1   -1    0    0  501    0  0.00000000000E+00  0.00000000000E+00  0.10497899126E+03  0.10497899137E+03  0.46700000000E-02 0. -1.
         -1   -1    0    0    0  501 -0.00000000000E+00 -0.00000000000E+00 -0.61195536693E+01  0.61195554512E+01  0.46700000000E-02 0.  1.
        -13    1    1    2    0    0  0.16288870995E+02 -0.13999177581E+02  0.78923981650E+02  0.81794317304E+02  0.10570000000E+00 0. -1.
         13    1    1    2    0    0 -0.16288870995E+02  0.13999177581E+02  0.19935455943E+02  0.29304229513E+02  0.10570000000E+00 0.  1.
<mgrwt>
<rscale>  0 0.50692196E+02</rscale>
<asrwt>0</asrwt>
<pdfrwt beam="1">  1        1 0.16150614E-01 0.50692196E+02</pdfrwt>
<pdfrwt beam="2">  1       -1 0.94146994E-03 0.50692196E+02</pdfrwt>
<totfact> 0.49092307E+05</totfact>
</mgrwt>
</event>
<event>
 4    1  0.4261729E-001  0.2883666E+02  0.7818608E-02  0.1611316E+00
          1   -1    0    0  501    0  0.00000000000E+00  0.00000000000E+00  0.22208005240E+02  0.22208005731E+02  0.46700000000E-02 0.  1.
         -1   -1    0    0    0  501 -0.00000000000E+00 -0.00000000000E+00 -0.93609553200E+01  0.93609564849E+01  0.46700000000E-02 0. -1.
        -13    1    1    2    0    0 -0.10117287761E+02  0.94780332211E+01  0.20879270081E+01  0.14020101179E+02  0.10570000000E+00 0.  1.
         13    1    1    2    0    0  0.10117287761E+02 -0.94780332211E+01  0.10759122911E+02  0.17548861037E+02  0.10570000000E+00 0. -1.
<mgrwt>
<rscale>  0 0.28836655E+02</rscale>
<asrwt>0</asrwt>
<pdfrwt beam="1">  1        1 0.34166162E-02 0.28836655E+02</pdfrwt>
<pdfrwt beam="2">  1       -1 0.14401471E-02 0.28836655E+02</pdfrwt>
<totfact> 0.17101357E+06</totfact>
</mgrwt>
</event>
<event>
 4    1  0.4261729E-001  0.4584034E+02  0.7818608E-02  0.1469163E+00
         -1   -1    0    0    0  501 -0.00000000000E+00  0.00000000000E+00  0.13854521112E+03  0.13854521120E+03  0.46700000000E-02 0.  1.
          1   -1    0    0  501    0  0.00000000000E+00 -0.00000000000E+00 -0.37917877626E+01  0.37917906384E+01  0.46700000000E-02 0. -1.
        -13    1    1    2    0    0 -0.22853738749E+02 -0.12633289435E+01  0.63658800912E+02  0.67648676859E+02  0.10570000000E+00 0. -1.
         13    1    1    2    0    0  0.22853738749E+02  0.12633289435E+01  0.71094622446E+02  0.74688324978E+02  0.10570000000E+00 0.  1.
<mgrwt>
<rscale>  0 0.45840342E+02</rscale>
<asrwt>0</asrwt>
<pdfrwt beam="2">  1        1 0.58335211E-03 0.45840342E+02</pdfrwt>
<pdfrwt beam="1">  1       -1 0.21314651E-01 0.45840342E+02</pdfrwt>
<totfact> 0.43388436E+05</totfact>
</mgrwt>
</event>
<event>
 4    1  0.4261729E-001  0.2175556E+02  0.7818608E-02  0.1712514E+00
         -1   -1    0    0    0  501 -0.00000000000E+00  0.00000000000E+00  0.17548202916E+02  0.17548203537E+02  0.46700000000E-02 0.  1.
          1   -1    0    0  501    0  0.00000000000E+00 -0.00000000000E+00 -0.67429162491E+01  0.67429178662E+01  0.46700000000E-02 0. -1.
        -13    1    1    2    0    0  0.85632746330E+01  0.66785780026E+01  0.47126920553E+01  0.11838653449E+02  0.10570000000E+00 0.  1.
         13    1    1    2    0    0 -0.85632746330E+01 -0.66785780026E+01  0.60925946112E+01  0.12452467955E+02  0.10570000000E+00 0. -1.
<mgrwt>
<rscale>  0 0.21755559E+02</rscale>
<asrwt>0</asrwt>
<pdfrwt beam="2">  1        1 0.10373719E-02 0.21755559E+02</pdfrwt>
<pdfrwt beam="1">  1       -1 0.26997236E-02 0.21755559E+02</pdfrwt>
<totfact> 0.31273396E+06</totfact>
</mgrwt>
</event>
<event>
 4    1  0.4261729E-001  0.2918962E+02  0.7818608E-02  0.1607223E+00
         -1   -1    0    0    0  501 -0.00000000000E+00  0.00000000000E+00  0.12230052855E+02  0.12230053746E+02  0.46700000000E-02 0. -1.
          1   -1    0    0  501    0  0.00000000000E+00 -0.00000000000E+00 -0.17416805292E+02  0.17416805918E+02  0.46700000000E-02 0.  1.
        -13    1    1    2    0    0 -0.88584676547E+01  0.11590642263E+02 -0.21602432176E+01  0.14747652712E+02  0.10570000000E+00 0.  1.
         13    1    1    2    0    0  0.88584676547E+01 -0.11590642263E+02 -0.30265092201E+01  0.14899206952E+02  0.10570000000E+00 0. -1.
<mgrwt>
<rscale>  0 0.29189620E+02</rscale>
<asrwt>0</asrwt>
<pdfrwt beam="2">  1        1 0.26795086E-02 0.29189620E+02</pdfrwt>
<pdfrwt beam="1">  1       -1 0.18815467E-02 0.29189620E+02</pdfrwt>
<totfact> 0.16389994E+06</totfact>
</mgrwt>
</event>
<event>
 4    1  0.4261729E-001  0.4029760E+03  0.7818608E-02  0.1042754E+00
         -1   -1    0    0    0  501 -0.00000000000E+00  0.00000000000E+00  0.29307120535E+03  0.29307120539E+03  0.46700000000E-02 0.  1.
          1   -1    0    0  501    0  0.00000000000E+00 -0.00000000000E+00 -0.13852408960E+03  0.13852408968E+03  0.46700000000E-02 0. -1.
        -13    1    1    2    0    0 -0.48027211104E+01  0.20132961811E+03  0.70438344979E+02  0.21335007118E+03  0.10570000000E+00 0.  1.
         13    1    1    2    0    0  0.48027211104E+01 -0.20132961811E+03  0.84108770770E+02  0.21824522389E+03  0.10570000000E+00 0. -1.
<mgrwt>
<rscale>  0 0.40297604E+03</rscale>
<asrwt>0</asrwt>
<pdfrwt beam="2">  1        1 0.21311399E-01 0.40297604E+03</pdfrwt>
<pdfrwt beam="1">  1       -1 0.45087877E-01 0.40297604E+03</pdfrwt>
<totfact> 0.11744482E+03</totfact>
</mgrwt>
</event>
<event>
 4    1  0.4261729E-001  0.3355739E+02  0.7818608E-02  0.1561798E+00
          1   -1    0    0  501    0  0.00000000000E+00  0.00000000000E+00  0.18522533685E+02  0.18522534273E+02  0.46700000000E-02 0. -1.
         -1   -1    0    0    0  501 -0.00000000000E+00 -0.00000000000E+00 -0.15199028172E+02  0.15199028890E+02  0.46700000000E-02 0.  1.
        -13    1    1    2    0    0 -0.11838938966E+02 -0.98355243236E+01 -0.50503981637E+01  0.16199250250E+02  0.10570000000E+00 0. -1.
         13    1    1    2    0    0  0.11838938966E+02  0.98355243236E+01  0.83739036763E+01  0.17522312913E+02  0.10570000000E+00 0.  1.
<mgrwt>
<rscale>  0 0.33557386E+02</rscale>
<asrwt>0</asrwt>
<pdfrwt beam="1">  1        1 0.28496207E-02 0.33557386E+02</pdfrwt>
<pdfrwt beam="2">  1       -1 0.23383121E-02 0.33557386E+02</pdfrwt>
<totfact> 0.11721995E+06</totfact>
</mgrwt>
</event>
<event>
 4    1  0.4261729E-001  0.4456201E+02  0.7818608E-02  0.1477095E+00
         -1   -1    0    0    0  501 -0.00000000000E+00  0.00000000000E+00  0.43517569932E+01  0.43517594989E+01  0.46700000000E-02 0.  1.
          1   -1    0    0  501    0  0.00000000000E+00 -0.00000000000E+00 -0.11407876061E+03  0.11407876071E+03  0.46700000000E-02 0. -1.
        -13    1    1    2    0    0  0.12582401128E+02  0.10121864382E+02 -0.95662041956E+02  0.97015495672E+02  0.10570000000E+00 0. -1.
         13    1    1    2    0    0 -0.12582401128E+02 -0.10121864382E+02 -0.14064961660E+02  0.21415024533E+02  0.10570000000E+00 0.  1.
<mgrwt>
<rscale>  0 0.44562011E+02</rscale>
<asrwt>0</asrwt>
<pdfrwt beam="2">  1        1 0.17550576E-01 0.44562011E+02</pdfrwt>
<pdfrwt beam="1">  1       -1 0.66950136E-03 0.44562011E+02</pdfrwt>
<totfact> 0.68583490E+05</totfact>
</mgrwt>
</event>
<event>
 4    1  0.4261729E-001  0.7983083E+02  0.7818608E-02  0.1329532E+00
          1   -1    0    0  501    0  0.00000000000E+00  0.00000000000E+00  0.21116639491E+02  0.21116640007E+02  0.46700000000E-02 0. -1.
         -1   -1    0    0    0  501 -0.00000000000E+00 -0.00000000000E+00 -0.75449521364E+02  0.75449521508E+02  0.46700000000E-02 0.  1.
        -13    1    1    2    0    0  0.68694360991E+01 -0.25145742593E+02 -0.63731279671E+02  0.68856261181E+02  0.10570000000E+00 0.  1.
         13    1    1    2    0    0 -0.68694360991E+01  0.25145742593E+02  0.93983977976E+01  0.27709900334E+02  0.10570000000E+00 0. -1.
<mgrwt>
<rscale>  0 0.79830830E+02</rscale>
<asrwt>0</asrwt>
<pdfrwt beam="1">  1        1 0.32487139E-02 0.79830830E+02</pdfrwt>
<pdfrwt beam="2">  1       -1 0.11607619E-01 0.79830830E+02</pdfrwt>
<totfact> 0.11996258E+05</totfact>
</mgrwt>
</event>
<event>
 4    1  0.4261729E-001  0.3924850E+02  0.7818608E-02  0.1513816E+00
          1   -1    0    0  501    0  0.00000000000E+00  0.00000000000E+00  0.11312206231E+03  0.11312206241E+03  0.46700000000E-02 0.  1.
         -1   -1    0    0    0  501 -0.00000000000E+00 -0.00000000000E+00 -0.34043851715E+01  0.34043883745E+01  0.46700000000E-02 0. -1.
        -13    1    1    2    0    0 -0.19139858091E+02 -0.39016497078E+01  0.60447274041E+02  0.63525122193E+02  0.10570000000E+00 0.  1.
         13    1    1    2    0    0  0.19139858091E+02  0.39016497078E+01  0.49270403097E+02  0.53001328587E+02  0.10570000000E+00 0. -1.
<mgrwt>
<rscale>  0 0.39248504E+02</rscale>
<asrwt>0</asrwt>
<pdfrwt beam="1">  1        1 0.17403393E-01 0.39248504E+02</pdfrwt>
<pdfrwt beam="2">  1       -1 0.52375186E-03 0.39248504E+02</pdfrwt>
<totfact> 0.93660809E+05</totfact>
</mgrwt>
</event>
<event>
 4    1  0.4261729E-001  0.2081163E+02  0.7818608E-02  0.1729653E+00
          1   -1    0    0  501    0  0.00000000000E+00  0.00000000000E+00  0.68991662920E+01  0.68991678725E+01  0.46700000000E-02 0. -1.
         -1   -1    0    0    0  501 -0.00000000000E+00 -0.00000000000E+00 -0.15694789436E+02  0.15694790131E+02  0.46700000000E-02 0.  1.
        -13    1    1    2    0    0 -0.58304791925E+01 -0.82850532401E+01 -0.18211071787E+01  0.10293891327E+02  0.10570000000E+00 0. -1.
         13    1    1    2    0    0  0.58304791925E+01  0.82850532401E+01 -0.69745159658E+01  0.12300066677E+02  0.10570000000E+00 0.  1.
<mgrwt>
<rscale>  0 0.20811630E+02</rscale>
<asrwt>0</asrwt>
<pdfrwt beam="1">  1        1 0.10614104E-02 0.20811630E+02</pdfrwt>
<pdfrwt beam="2">  1       -1 0.24145832E-02 0.20811630E+02</pdfrwt>
<totfact> 0.34699530E+06</totfact>
</mgrwt>
</event>
<event>
 4    1  0.4261729E-001  0.2453745E+02  0.7818608E-02  0.1667736E+00
          1   -1    0    0  501    0  0.00000000000E+00  0.00000000000E+00  0.63564154015E+02  0.63564154187E+02  0.46700000000E-02 0. -1.
         -1   -1    0    0    0  501 -0.00000000000E+00 -0.00000000000E+00 -0.23680246360E+01  0.23680292408E+01  0.46700000000E-02 0.  1.
        -13    1    1    2    0    0 -0.61083375018E+01 -0.10430082176E+02  0.36242090764E+02  0.38204694956E+02  0.10570000000E+00 0.  1.
         13    1    1    2    0    0  0.61083375018E+01  0.10430082176E+02  0.24954038615E+02  0.27727488471E+02  0.10570000000E+00 0. -1.
<mgrwt>
<rscale>  0 0.24537452E+02</rscale>
<asrwt>0</asrwt>
<pdfrwt beam="1">  1        1 0.97791002E-02 0.24537452E+02</pdfrwt>
<pdfrwt beam="2">  1       -1 0.36431188E-03 0.24537452E+02</pdfrwt>
<totfact> 0.26778904E+06</totfact>
</mgrwt>
</event>
<event>
 4    1  0.4261729E-001  0.2617568E+02  0.7818608E-02  0.1644668E+00
          1   -1    0    0  501    0  0.00000000000E+00  0.00000000000E+00  0.18693831437E+02  0.18693832020E+02  0.46700000000E-02 0. -1.
         -1   -1    0    0    0  501 -0.00000000000E+00 -0.00000000000E+00 -0.91629988938E+01  0.91630000839E+01  0.46700000000E-02 0.  1.
        -13    1    1    2    0    0  0.95789465103E+01  0.69644976966E+01  0.10692681623E+02  0.15956348492E+02  0.10570000000E+00 0. -1.
         13    1    1    2    0    0 -0.95789465103E+01 -0.69644976966E+01 -0.11618490807E+01  0.11900483612E+02  0.10570000000E+00 0.  1.
<mgrwt>
<rscale>  0 0.26175682E+02</rscale>
<asrwt>0</asrwt>
<pdfrwt beam="1">  1        1 0.28759742E-02 0.26175682E+02</pdfrwt>
<pdfrwt beam="2">  1       -1 0.14096923E-02 0.26175682E+02</pdfrwt>
<totfact> 0.21315952E+06</totfact>
</mgrwt>
</event>
<event>
 4    1  0.4261729E-001  0.3659850E+02  0.7818608E-02  0.1534847E+00
         -1   -1    0    0    0  501 -0.00000000000E+00  0.00000000000E+00  0.78302428867E+02  0.78302429006E+02  0.46700000000E-02 0.  1.
          1   -1    0    0  501    0  0.00000000000E+00 -0.00000000000E+00 -0.42765259538E+01  0.42765285036E+01  0.46700000000E-02 0. -1.
        -13    1    1    2    0    0  0.45153064733E+01  0.14979495862E+02  0.15598075222E+02  0.22092632526E+02  0.10570000000E+00 0. -1.
         13    1    1    2    0    0 -0.45153064733E+01 -0.14979495862E+02  0.58427827691E+02  0.60486324983E+02  0.10570000000E+00 0.  1.
<mgrwt>
<rscale>  0 0.36598496E+02</rscale>
<asrwt>0</asrwt>
<pdfrwt beam="2">  1        1 0.65792735E-03 0.36598496E+02</pdfrwt>
<pdfrwt beam="1">  1       -1 0.12046526E-01 0.36598496E+02</pdfrwt>
<totfact> 0.82527771E+05</totfact>
</mgrwt>
</event>
<event>
 4    1  0.4261729E-001  0.4698797E+02  0.7818608E-02  0.1462299E+00
         -1   -1    0    0    0  501 -0.00000000000E+00  0.00000000000E+00  0.10112984061E+03  0.10112984072E+03  0.46700000000E-02 0.  1.
          1   -1    0    0  501    0  0.00000000000E+00 -0.00000000000E+00 -0.54580065191E+01  0.54580085170E+01  0.46700000000E-02 0. -1.
        -13    1    1    2    0    0 -0.19518523660E+02 -0.69505169771E+01  0.22711446883E+02  0.30742534771E+02  0.10570000000E+00 0. -1.
         13    1    1    2    0    0  0.19518523660E+02  0.69505169771E+01  0.72960387206E+02  0.75845314462E+02  0.10570000000E+00 0.  1.
<mgrwt>
<rscale>  0 0.46987975E+02</rscale>
<asrwt>0</asrwt>
<pdfrwt beam="2">  1        1 0.83969354E-03 0.46987975E+02</pdfrwt>
<pdfrwt beam="1">  1       -1 0.15558436E-01 0.46987975E+02</pdfrwt>
<totfact> 0.43299436E+05</totfact>
</mgrwt>
</event>
<event>
 4    1  0.4261729E-001  0.3086465E+02  0.7818608E-02  0.1588723E+00
         -1   -1    0    0    0  501 -0.00000000000E+00  0.00000000000E+00  0.81652933992E+01  0.81652947346E+01  0.46700000000E-02 0. -1.
          1   -1    0    0  501    0  0.00000000000E+00 -0.00000000000E+00 -0.29166943565E+02  0.29166943938E+02  0.46700000000E-02 0.  1.
        -13    1    1    2    0    0 -0.95705692113E+01 -0.10264230052E+02 -0.27375232213E+01  0.14298790839E+02  0.10570000000E+00 0. -1.
         13    1    1    2    0    0  0.95705692113E+01  0.10264230052E+02 -0.18264126944E+02  0.23033447834E+02  0.10570000000E+00 0.  1.
<mgrwt>
<rscale>  0 0.30864652E+02</rscale>
<asrwt>0</asrwt>
<pdfrwt beam="2">  1        1 0.44872222E-02 0.30864652E+02</pdfrwt>
<pdfrwt beam="1">  1       -1 0.12561991E-02 0.30864652E+02</pdfrwt>
<totfact> 0.14768477E+06</totfact>
</mgrwt>
</event>
