<event>
 4    1  0.1802450E-001  0.3088460E+02  0.7818608E-02  0.1588511E+00
          3   -1    0    0  501    0  0.00000000000E+00  0.00000000000E+00  0.28134004482E+01  0.28149371364E+01  0.93000000000E-01 0. -1.
         -3   -1    0    0    0  501 -0.00000000000E+00 -0.00000000000E+00 -0.84735576466E+02  0.84735627501E+02  0.93000000000E-01 0.  1.
        -13    1    1    2    0    0 -0.93352983401E+01 -0.12096926964E+02 -0.34641405596E+02  0.37861875168E+02  0.10570000000E+00 0. -1.
         13    1    1    2    0    0  0.93352983401E+01  0.12096926964E+02 -0.47280770421E+02  0.49688689469E+02  0.10570000000E+00 0.  1.
<mgrwt>
<rscale>  0 0.30884599E+02</rscale>
<asrwt>0</asrwt>
<pdfrwt beam="1">  1        3 0.43295304E-03 0.30884599E+02</pdfrwt>
<pdfrwt beam="2">  1       -3 0.13036363E-01 0.30884599E+02</pdfrwt>
<totfact> 0.55237022E+05</totfact>
</mgrwt>
</event>
<event>
 4    1  0.1802450E-001  0.3571305E+02  0.7818608E-02  0.1542358E+00
          3   -1    0    0  501    0  0.00000000000E+00  0.00000000000E+00  0.12061865285E+03  0.12061868870E+03  0.93000000000E-01 0.  1.
         -3   -1    0    0    0  501 -0.00000000000E+00 -0.00000000000E+00 -0.26426458735E+01  0.26442817952E+01  0.93000000000E-01 0. -1.
        -13    1    1    2    0    0  0.12374140057E+02  0.12630189912E+02  0.50391658104E+02  0.53403852093E+02  0.10570000000E+00 0. -1.
         13    1    1    2    0    0 -0.12374140057E+02 -0.12630189912E+02  0.67584348873E+02  0.69859118405E+02  0.10570000000E+00 0.  1.
<mgrwt>
<rscale>  0 0.35713046E+02</rscale>
<asrwt>0</asrwt>
<pdfrwt beam="1">  1        3 0.18556849E-01 0.35713046E+02</pdfrwt>
<pdfrwt beam="2">  1       -3 0.40668940E-03 0.35713046E+02</pdfrwt>
<totfact> 0.36057508E+05</totfact>
</mgrwt>
</event>
<event>
 4    1  0.1802450E-001  0.2676545E+02  0.7818608E-02  0.1636867E+00
          3   -1    0    0  501    0  0.00000000000E+00  0.00000000000E+00  0.31698452127E+01  0.31712091815E+01  0.93000000000E-01 0. -1.
         -3   -1    0    0    0  501 -0.00000000000E+00 -0.00000000000E+00 -0.56486800343E+02  0.56486876901E+02  0.93000000000E-01 0.  1.
        -13    1    1    2    0    0  0.10264266277E+00  0.13315929544E+02 -0.23700055968E+02  0.27185075695E+02  0.10570000000E+00 0.  1.
         13    1    1    2    0    0 -0.10264266277E+00 -0.13315929544E+02 -0.29616899162E+02  0.32473010387E+02  0.10570000000E+00 0. -1.
<mgrwt>
<rscale>  0 0.26765454E+02</rscale>
<asrwt>0</asrwt>
<pdfrwt beam="1">  1        3 0.48777935E-03 0.26765454E+02</pdfrwt>
<pdfrwt beam="2">  1       -3 0.86903870E-02 0.26765454E+02</pdfrwt>
<totfact> 0.82666957E+05</totfact>
</mgrwt>
</event>
<event>
 4    1  0.1802450E-001  0.2085159E+02  0.7818608E-02  0.1728905E+00
          3   -1    0    0  501    0  0.00000000000E+00  0.00000000000E+00  0.23062032979E+02  0.23062220494E+02  0.93000000000E-01 0.  1.
         -3   -1    0    0    0  501 -0.00000000000E+00 -0.00000000000E+00 -0.47125861387E+01  0.47135036984E+01  0.93000000000E-01 0. -1.
        -13    1    1    2    0    0  0.50512790583E+01 -0.90751051078E+01  0.79736160589E+01  0.13094375830E+02  0.10570000000E+00 0. -1.
         13    1    1    2    0    0 -0.50512790583E+01  0.90751051078E+01  0.10375830781E+02  0.14681348362E+02  0.10570000000E+00 0.  1.
<mgrwt>
<rscale>  0 0.20851586E+02</rscale>
<asrwt>0</asrwt>
<pdfrwt beam="1">  1        3 0.35480901E-02 0.20851586E+02</pdfrwt>
<pdfrwt beam="2">  1       -3 0.72509826E-03 0.20851586E+02</pdfrwt>
<totfact> 0.15894675E+06</totfact>
</mgrwt>
</event>
<event>
 4    1  0.1802450E-001  0.5244221E+02  0.7818608E-02  0.1432597E+00
         -3   -1    0    0    0  501 -0.00000000000E+00  0.00000000000E+00  0.15719728817E+02  0.15720003915E+02  0.93000000000E-01 0.  1.
          3   -1    0    0  501    0  0.00000000000E+00 -0.00000000000E+00 -0.43737093013E+02  0.43737191888E+02  0.93000000000E-01 0. -1.
        -13    1    1    2    0    0  0.18802170022E+02  0.15566982823E+02 -0.24864610654E+02  0.34844118402E+02  0.10570000000E+00 0. -1.
         13    1    1    2    0    0 -0.18802170022E+02 -0.15566982823E+02 -0.31527535425E+01  0.24613077401E+02  0.10570000000E+00 0.  1.
<mgrwt>
<rscale>  0 0.52442210E+02</rscale>
<asrwt>0</asrwt>
<pdfrwt beam="2">  1        3 0.67288122E-02 0.52442210E+02</pdfrwt>
<pdfrwt beam="1">  1       -3 0.24184486E-02 0.52442210E+02</pdfrwt>
<totfact> 0.16341957E+05</totfact>
</mgrwt>
</event>
<event>
 4    1  0.1802450E-001  0.9587028E+02  0.7818608E-02  0.1289228E+00
          3   -1    0    0  501    0  0.00000000000E+00  0.00000000000E+00  0.47749225079E+02  0.47749315646E+02  0.93000000000E-01 0. -1.
         -3   -1    0    0    0  501 -0.00000000000E+00 -0.00000000000E+00 -0.48121594052E+02  0.48121683918E+02  0.93000000000E-01 0.  1.
        -13    1    1    2    0    0 -0.38585735410E+02 -0.92886539274E+01  0.26695763638E+02  0.47831088610E+02  0.10570000000E+00 0. -1.
         13    1    1    2    0    0  0.38585735410E+02  0.92886539274E+01 -0.27068132611E+02  0.48039910954E+02  0.10570000000E+00 0.  1.
<mgrwt>
<rscale>  0 0.95870276E+02</rscale>
<asrwt>0</asrwt>
<pdfrwt beam="1">  1        3 0.73460485E-02 0.95870276E+02</pdfrwt>
<pdfrwt beam="2">  1       -3 0.74033361E-02 0.95870276E+02</pdfrwt>
<totfact> 0.30493101E+04</totfact>
</mgrwt>
</event>
<event>
 4    1  0.1802450E-001  0.3466505E+02  0.7818608E-02  0.1551595E+00
          3   -1    0    0  501    0  0.00000000000E+00  0.00000000000E+00  0.64846252142E+02  0.64846318831E+02  0.93000000000E-01 0. -1.
         -3   -1    0    0    0  501 -0.00000000000E+00 -0.00000000000E+00 -0.46322141005E+01  0.46331475773E+01  0.93000000000E-01 0.  1.
        -13    1    1    2    0    0 -0.26469454793E+01  0.11335644243E+02  0.55845194852E+02  0.57045596774E+02  0.10570000000E+00 0. -1.
         13    1    1    2    0    0  0.26469454793E+01 -0.11335644243E+02  0.43688431901E+01  0.12433869634E+02  0.10570000000E+00 0.  1.
<mgrwt>
<rscale>  0 0.34665053E+02</rscale>
<asrwt>0</asrwt>
<pdfrwt beam="1">  1        3 0.99764227E-02 0.34665053E+02</pdfrwt>
<pdfrwt beam="2">  1       -3 0.71272531E-03 0.34665053E+02</pdfrwt>
<totfact> 0.44078088E+05</totfact>
</mgrwt>
</event>
<event>
 4    1  0.1802450E-001  0.2967793E+02  0.7818608E-02  0.1601676E+00
          3   -1    0    0  501    0  0.00000000000E+00  0.00000000000E+00  0.57157593712E+02  0.57157669371E+02  0.93000000000E-01 0.  1.
         -3   -1    0    0    0  501 -0.00000000000E+00 -0.00000000000E+00 -0.38517787310E+01  0.38529012955E+01  0.93000000000E-01 0. -1.
        -13    1    1    2    0    0  0.29995919607E+01  0.10866378136E+02  0.46489407258E+02  0.47836721098E+02  0.10570000000E+00 0.  1.
         13    1    1    2    0    0 -0.29995919607E+01 -0.10866378136E+02  0.68164077234E+01  0.13173849569E+02  0.10570000000E+00 0. -1.
<mgrwt>
<rscale>  0 0.29677935E+02</rscale>
<asrwt>0</asrwt>
<pdfrwt beam="1">  1        3 0.87935682E-02 0.29677935E+02</pdfrwt>
<pdfrwt beam="2">  1       -3 0.59267351E-03 0.29677935E+02</pdfrwt>
<totfact> 0.64958962E+05</totfact>
</mgrwt>
</event>
<event>
 4    1  0.1802450E-001  0.5394078E+02  0.7818608E-02  0.1425175E+00
          3   -1    0    0  501    0  0.00000000000E+00  0.00000000000E+00  0.62729379665E+01  0.62736273185E+01  0.93000000000E-01 0. -1.
         -3   -1    0    0    0  501 -0.00000000000E+00 -0.00000000000E+00 -0.11595166184E+03  0.11595169914E+03  0.93000000000E-01 0.  1.
        -13    1    1    2    0    0  0.12704741506E+02  0.17621758501E+02 -0.18623376160E+02  0.28614299598E+02  0.10570000000E+00 0. -1.
         13    1    1    2    0    0 -0.12704741506E+02 -0.17621758501E+02 -0.91055347714E+02  0.93611026857E+02  0.10570000000E+00 0.  1.
<mgrwt>
<rscale>  0 0.53940782E+02</rscale>
<asrwt>0</asrwt>
<pdfrwt beam="1">  1        3 0.96512336E-03 0.53940782E+02</pdfrwt>
<pdfrwt beam="2">  1       -3 0.17838772E-01 0.53940782E+02</pdfrwt>
<totfact> 0.13120330E+05</totfact>
</mgrwt>
</event>
<event>
 4    1  0.1802450E-001  0.2263897E+02  0.7818608E-02  0.1697430E+00
         -3   -1    0    0    0  501 -0.00000000000E+00  0.00000000000E+00  0.23250672250E+02  0.23250858244E+02  0.93000000000E-01 0.  1.
          3   -1    0    0  501    0  0.00000000000E+00 -0.00000000000E+00 -0.55102399636E+01  0.55110247193E+01  0.93000000000E-01 0. -1.
        -13    1    1    2    0    0  0.10410123963E+02 -0.40032125978E+01  0.11321635442E+02  0.15892985673E+02  0.10570000000E+00 0. -1.
         13    1    1    2    0    0 -0.10410123963E+02  0.40032125978E+01  0.64187968441E+01  0.12868897290E+02  0.10570000000E+00 0.  1.
<mgrwt>
<rscale>  0 0.22638970E+02</rscale>
<asrwt>0</asrwt>
<pdfrwt beam="2">  1        3 0.84780390E-03 0.22638970E+02</pdfrwt>
<pdfrwt beam="1">  1       -3 0.35771012E-02 0.22638970E+02</pdfrwt>
<totfact> 0.13225938E+06</totfact>
</mgrwt>
</event>
<event>
 4    1  0.1802450E-001  0.2703943E+02  0.7818608E-02  0.1633326E+00
         -3   -1    0    0    0  501 -0.00000000000E+00  0.00000000000E+00  0.98516211282E+02  0.98516255178E+02  0.93000000000E-01 0.  1.
          3   -1    0    0  501    0  0.00000000000E+00 -0.00000000000E+00 -0.18541474226E+01  0.18564782963E+01  0.93000000000E-01 0. -1.
        -13    1    1    2    0    0 -0.11590637307E+02 -0.60092247099E+01  0.35302753351E+02  0.37639729295E+02  0.10570000000E+00 0. -1.
         13    1    1    2    0    0  0.11590637307E+02  0.60092247099E+01  0.61359310508E+02  0.62733004179E+02  0.10570000000E+00 0.  1.
<mgrwt>
<rscale>  0 0.27039435E+02</rscale>
<asrwt>0</asrwt>
<pdfrwt beam="2">  1        3 0.28543611E-03 0.27039435E+02</pdfrwt>
<pdfrwt beam="1">  1       -3 0.15156523E-01 0.27039435E+02</pdfrwt>
<totfact> 0.72686814E+05</totfact>
</mgrwt>
</event>
<event>
 4    1  0.1802450E-001  0.5116505E+02  0.7818608E-02  0.1439157E+00
         -3   -1    0    0    0  501 -0.00000000000E+00  0.00000000000E+00  0.55891830051E+02  0.55891907424E+02  0.93000000000E-01 0.  1.
          3   -1    0    0  501    0  0.00000000000E+00 -0.00000000000E+00 -0.11709233276E+02  0.11709602595E+02  0.93000000000E-01 0. -1.
        -13    1    1    2    0    0 -0.23256897175E+02  0.94942937090E+01  0.15695942441E+02  0.29620915935E+02  0.10570000000E+00 0. -1.
         13    1    1    2    0    0  0.23256897175E+02 -0.94942937090E+01  0.28486654334E+02  0.37980594083E+02  0.10570000000E+00 0.  1.
<mgrwt>
<rscale>  0 0.51165050E+02</rscale>
<asrwt>0</asrwt>
<pdfrwt beam="2">  1        3 0.18014548E-02 0.51165050E+02</pdfrwt>
<pdfrwt beam="1">  1       -3 0.85987776E-02 0.51165050E+02</pdfrwt>
<totfact> 0.17038784E+05</totfact>
</mgrwt>
</event>
<event>
 4    1  0.1802450E-001  0.4025189E+02  0.7818608E-02  0.1506366E+00
         -3   -1    0    0    0  501 -0.00000000000E+00  0.00000000000E+00  0.79997964729E+02  0.79998018787E+02  0.93000000000E-01 0. -1.
          3   -1    0    0  501    0  0.00000000000E+00 -0.00000000000E+00 -0.50628175321E+01  0.50636716287E+01  0.93000000000E-01 0.  1.
        -13    1    1    2    0    0 -0.14500364208E+02  0.73344183113E+01  0.12375345289E+02  0.20425831627E+02  0.10570000000E+00 0.  1.
         13    1    1    2    0    0  0.14500364208E+02 -0.73344183113E+01  0.62559801908E+02  0.64635858789E+02  0.10570000000E+00 0. -1.
<mgrwt>
<rscale>  0 0.40251893E+02</rscale>
<asrwt>0</asrwt>
<pdfrwt beam="2">  1        3 0.77896494E-03 0.40251893E+02</pdfrwt>
<pdfrwt beam="1">  1       -3 0.12307448E-01 0.40251893E+02</pdfrwt>
<totfact> 0.29572112E+05</totfact>
</mgrwt>
</event>
<event>
 4    1  0.1802450E-001  0.2308032E+02  0.7818608E-02  0.1690211E+00
         -3   -1    0    0    0  501 -0.00000000000E+00  0.00000000000E+00  0.56188046915E+02  0.56188123880E+02  0.93000000000E-01 0. -1.
          3   -1    0    0  501    0  0.00000000000E+00 -0.00000000000E+00 -0.23691807261E+01  0.23710053380E+01  0.93000000000E-01 0.  1.
        -13    1    1    2    0    0 -0.90280784158E+01 -0.52399046208E+01  0.39391096552E+02  0.40750858400E+02  0.10570000000E+00 0. -1.
         13    1    1    2    0    0  0.90280784158E+01  0.52399046208E+01  0.14427769637E+02  0.17808270818E+02  0.10570000000E+00 0.  1.
<mgrwt>
<rscale>  0 0.23080322E+02</rscale>
<asrwt>0</asrwt>
<pdfrwt beam="2">  1        3 0.36463568E-03 0.23080322E+02</pdfrwt>
<pdfrwt beam="1">  1       -3 0.86444597E-02 0.23080322E+02</pdfrwt>
<totfact> 0.11564785E+06</totfact>
</mgrwt>
</event>
<event>
 4    1  0.1802450E-001  0.2121280E+02  0.7818608E-02  0.1722233E+00
         -3   -1    0    0    0  501 -0.00000000000E+00  0.00000000000E+00  0.10407488122E+01  0.10448957317E+01  0.93000000000E-01 0. -1.
          3   -1    0    0  501    0  0.00000000000E+00 -0.00000000000E+00 -0.10787209887E+03  0.10787213896E+03  0.93000000000E-01 0.  1.
        -13    1    1    2    0    0 -0.28978630154E+01 -0.10125879213E+02 -0.59815406727E+02  0.60735698681E+02  0.10570000000E+00 0.  1.
         13    1    1    2    0    0  0.28978630154E+01  0.10125879213E+02 -0.47015943329E+02  0.48181336008E+02  0.10570000000E+00 0. -1.
<mgrwt>
<rscale>  0 0.21212805E+02</rscale>
<asrwt>0</asrwt>
<pdfrwt beam="2">  1        3 0.16596021E-01 0.21212805E+02</pdfrwt>
<pdfrwt beam="1">  1       -3 0.16043736E-03 0.21212805E+02</pdfrwt>
<totfact> 0.12218158E+06</totfact>
</mgrwt>
</event>
<event>
 4    1  0.1802450E-001  0.3604016E+02  0.7818608E-02  0.1539553E+00
         -3   -1    0    0    0  501 -0.00000000000E+00  0.00000000000E+00  0.21191467274E+02  0.21191671341E+02  0.93000000000E-01 0.  1.
          3   -1    0    0  501    0  0.00000000000E+00 -0.00000000000E+00 -0.15322884639E+02  0.15323166861E+02  0.93000000000E-01 0. -1.
        -13    1    1    2    0    0 -0.37227154045E+01  0.12596392474E+02 -0.95644919503E+01  0.16248642777E+02  0.10570000000E+00 0. -1.
         13    1    1    2    0    0  0.37227154045E+01 -0.12596392474E+02  0.15433074586E+02  0.20266195425E+02  0.10570000000E+00 0.  1.
<mgrwt>
<rscale>  0 0.36040160E+02</rscale>
<asrwt>0</asrwt>
<pdfrwt beam="2">  1        3 0.23574043E-02 0.36040160E+02</pdfrwt>
<pdfrwt beam="1">  1       -3 0.32602631E-02 0.36040160E+02</pdfrwt>
<totfact> 0.44055026E+05</totfact>
</mgrwt>
</event>
<event>
 4    1  0.1802450E-001  0.4010193E+02  0.7818608E-02  0.1507463E+00
         -3   -1    0    0    0  501 -0.00000000000E+00  0.00000000000E+00  0.10871493556E+02  0.10871891332E+02  0.93000000000E-01 0. -1.
          3   -1    0    0  501    0  0.00000000000E+00 -0.00000000000E+00 -0.36980103187E+02  0.36980220128E+02  0.93000000000E-01 0.  1.
        -13    1    1    2    0    0 -0.31443254907E+01  0.15950262986E+02  0.94975277228E+00  0.16285296280E+02  0.10570000000E+00 0. -1.
         13    1    1    2    0    0  0.31443254907E+01 -0.15950262986E+02 -0.27058362403E+02  0.31566815179E+02  0.10570000000E+00 0.  1.
<mgrwt>
<rscale>  0 0.40101934E+02</rscale>
<asrwt>0</asrwt>
<pdfrwt beam="2">  1        3 0.56892862E-02 0.40101934E+02</pdfrwt>
<pdfrwt beam="1">  1       -3 0.16725771E-02 0.40101934E+02</pdfrwt>
<totfact> 0.32896041E+05</totfact>
</mgrwt>
</event>
<event>
 4    1  0.1802450E-001  0.1020724E+03  0.7818608E-02  0.1275997E+00
         -3   -1    0    0    0  501 -0.00000000000E+00  0.00000000000E+00  0.20536031348E+03  0.20536033454E+03  0.93000000000E-01 0.  1.
          3   -1    0    0  501    0  0.00000000000E+00 -0.00000000000E+00 -0.12683330454E+02  0.12683671409E+02  0.93000000000E-01 0. -1.
        -13    1    1    2    0    0  0.45794672456E+02  0.22348840716E+02  0.10240247255E+03  0.11438050649E+03  0.10570000000E+00 0.  1.
         13    1    1    2    0    0 -0.45794672456E+02 -0.22348840716E+02  0.90274510470E+02  0.10366349946E+03  0.10570000000E+00 0. -1.
<mgrwt>
<rscale>  0 0.10207237E+03</rscale>
<asrwt>0</asrwt>
<pdfrwt beam="2">  1        3 0.19513095E-02 0.10207237E+03</pdfrwt>
<pdfrwt beam="1">  1       -3 0.31593921E-01 0.10207237E+03</pdfrwt>
<totfact> 0.20306384E+04</totfact>
</mgrwt>
</event>
<event>
 4    1  0.1802450E-001  0.2251920E+02  0.7818608E-02  0.1699424E+00
         -3   -1    0    0    0  501 -0.00000000000E+00  0.00000000000E+00  0.79414415951E+01  0.79419861249E+01  0.93000000000E-01 0.  1.
          3   -1    0    0  501    0  0.00000000000E+00 -0.00000000000E+00 -0.15962958370E+02  0.15963229276E+02  0.93000000000E-01 0. -1.
        -13    1    1    2    0    0  0.95653716833E+01  0.57309651065E+01 -0.23569297336E+01  0.11397657073E+02  0.10570000000E+00 0. -1.
         13    1    1    2    0    0 -0.95653716833E+01 -0.57309651065E+01 -0.56645870411E+01  0.12507558328E+02  0.10570000000E+00 0.  1.
<mgrwt>
<rscale>  0 0.22519205E+02</rscale>
<asrwt>0</asrwt>
<pdfrwt beam="2">  1        3 0.24559025E-02 0.22519205E+02</pdfrwt>
<pdfrwt beam="1">  1       -3 0.12218230E-02 0.22519205E+02</pdfrwt>
<totfact> 0.13606094E+06</totfact>
</mgrwt>
</event>
<event>
 4    1  0.1802450E-001  0.2082230E+02  0.7818608E-02  0.1729453E+00
         -3   -1    0    0    0  501 -0.00000000000E+00  0.00000000000E+00  0.13743598787E+02  0.13743913439E+02  0.93000000000E-01 0.  1.
          3   -1    0    0  501    0  0.00000000000E+00 -0.00000000000E+00 -0.78860523823E+01  0.78866007364E+01  0.93000000000E-01 0. -1.
        -13    1    1    2    0    0  0.24592094021E+00 -0.10350255515E+02  0.17943064248E+01  0.10508043318E+02  0.10570000000E+00 0.  1.
         13    1    1    2    0    0 -0.24592094021E+00  0.10350255515E+02  0.40632399801E+01  0.11122470857E+02  0.10570000000E+00 0. -1.
<mgrwt>
<rscale>  0 0.20822303E+02</rscale>
<asrwt>0</asrwt>
<pdfrwt beam="2">  1        3 0.12133052E-02 0.20822303E+02</pdfrwt>
<pdfrwt beam="1">  1       -3 0.21144662E-02 0.20822303E+02</pdfrwt>
<totfact> 0.16291943E+06</totfact>
</mgrwt>
</event>
<event>
 4    1  0.1802450E-001  0.3819352E+02  0.7818608E-02  0.1521942E+00
          3   -1    0    0  501    0  0.00000000000E+00  0.00000000000E+00  0.58253492780E+02  0.58253567016E+02  0.93000000000E-01 0.  1.
         -3   -1    0    0    0  501 -0.00000000000E+00 -0.00000000000E+00 -0.62599075468E+01  0.62605983336E+01  0.93000000000E-01 0. -1.
        -13    1    1    2    0    0 -0.18650479166E+02  0.25653563502E+00  0.19079813838E+02  0.26682515853E+02  0.10570000000E+00 0. -1.
         13    1    1    2    0    0  0.18650479166E+02 -0.25653563502E+00  0.32913771396E+02  0.37831649497E+02  0.10570000000E+00 0.  1.
<mgrwt>
<rscale>  0 0.38193515E+02</rscale>
<asrwt>0</asrwt>
<pdfrwt beam="1">  1        3 0.89621343E-02 0.38193515E+02</pdfrwt>
<pdfrwt beam="2">  1       -3 0.96312158E-03 0.38193515E+02</pdfrwt>
<totfact> 0.35390629E+05</totfact>
</mgrwt>
</event>
<event>
 4    1  0.1802450E-001  0.2553258E+02  0.7818608E-02  0.1653468E+00
          3   -1    0    0  501    0  0.00000000000E+00  0.00000000000E+00  0.30748552166E+01  0.30762613028E+01  0.93000000000E-01 0. -1.
         -3   -1    0    0    0  501 -0.00000000000E+00 -0.00000000000E+00 -0.52989973786E+02  0.52990055395E+02  0.93000000000E-01 0.  1.
        -13    1    1    2    0    0  0.15137718174E+01 -0.10913299851E+02 -0.10798788802E+02  0.15427787620E+02  0.10570000000E+00 0. -1.
         13    1    1    2    0    0 -0.15137718174E+01  0.10913299851E+02 -0.39116329767E+02  0.40638529078E+02  0.10570000000E+00 0.  1.
<mgrwt>
<rscale>  0 0.25532583E+02</rscale>
<asrwt>0</asrwt>
<pdfrwt beam="1">  1        3 0.47316912E-03 0.25532583E+02</pdfrwt>
<pdfrwt beam="2">  1       -3 0.81524175E-02 0.25532583E+02</pdfrwt>
<totfact> 0.92936325E+05</totfact>
</mgrwt>
</event>
<event>
 4    1  0.1802450E-001  0.2113623E+02  0.7818608E-02  0.1723633E+00
          3   -1    0    0  501    0  0.00000000000E+00  0.00000000000E+00  0.87982935248E+02  0.87982984399E+02  0.93000000000E-01 0.  1.
         -3   -1    0    0    0  501 -0.00000000000E+00 -0.00000000000E+00 -0.12676417222E+01  0.12710485970E+01  0.93000000000E-01 0. -1.
        -13    1    1    2    0    0  0.10485899225E+02  0.12312651448E+01  0.45263994752E+02  0.46479140373E+02  0.10570000000E+00 0. -1.
         13    1    1    2    0    0 -0.10485899225E+02 -0.12312651448E+01  0.41451298773E+02  0.42774892623E+02  0.10570000000E+00 0.  1.
<mgrwt>
<rscale>  0 0.21136231E+02</rscale>
<asrwt>0</asrwt>
<pdfrwt beam="1">  1        3 0.13536100E-01 0.21136231E+02</pdfrwt>
<pdfrwt beam="2">  1       -3 0.19528769E-03 0.21136231E+02</pdfrwt>
<totfact> 0.12921462E+06</totfact>
</mgrwt>
</event>
<event>
 4    1  0.1802450E-001  0.4951997E+02  0.7818608E-02  0.1447948E+00
         -3   -1    0    0    0  501 -0.00000000000E+00  0.00000000000E+00  0.90311170548E+01  0.90315958865E+01  0.93000000000E-01 0.  1.
          3   -1    0    0  501    0  0.00000000000E+00 -0.00000000000E+00 -0.67880414431E+02  0.67880478138E+02  0.93000000000E-01 0. -1.
        -13    1    1    2    0    0 -0.31886049306E+01 -0.15392821157E+02 -0.59135754285E+02  0.61189498707E+02  0.10570000000E+00 0. -1.
         13    1    1    2    0    0  0.31886049306E+01  0.15392821157E+02  0.28645690946E+00  0.15722575318E+02  0.10570000000E+00 0.  1.
<mgrwt>
<rscale>  0 0.49519969E+02</rscale>
<asrwt>0</asrwt>
<pdfrwt beam="2">  1        3 0.10443182E-01 0.49519969E+02</pdfrwt>
<pdfrwt beam="1">  1       -3 0.13894444E-02 0.49519969E+02</pdfrwt>
<totfact> 0.18072605E+05</totfact>
</mgrwt>
</event>
<event>
 4    1  0.1802450E-001  0.6338035E+02  0.7818608E-02  0.1384170E+00
          3   -1    0    0  501    0  0.00000000000E+00  0.00000000000E+00  0.10983386455E+02  0.10983780179E+02  0.93000000000E-01 0.  1.
         -3   -1    0    0    0  501 -0.00000000000E+00 -0.00000000000E+00 -0.91433058482E+02  0.91433105779E+02  0.93000000000E-01 0. -1.
        -13    1    1    2    0    0 -0.23660796590E+02 -0.16559369005E+02 -0.19142947787E+02  0.34648371095E+02  0.10570000000E+00 0.  1.
         13    1    1    2    0    0  0.23660796590E+02  0.16559369005E+02 -0.61306724241E+02  0.67768514863E+02  0.10570000000E+00 0. -1.
<mgrwt>
<rscale>  0 0.63380350E+02</rscale>
<asrwt>0</asrwt>
<pdfrwt beam="1">  1        3 0.16897857E-02 0.63380350E+02</pdfrwt>
<pdfrwt beam="2">  1       -3 0.14066658E-01 0.63380350E+02</pdfrwt>
<totfact> 0.90669438E+04</totfact>
</mgrwt>
</event>
<event>
 4    1  0.1802450E-001  0.9574543E+02  0.7818608E-02  0.1289506E+00
         -3   -1    0    0    0  501 -0.00000000000E+00  0.00000000000E+00  0.10325611219E+03  0.10325615407E+03  0.93000000000E-01 0. -1.
          3   -1    0    0  501    0  0.00000000000E+00 -0.00000000000E+00 -0.22195120402E+02  0.22195315241E+02  0.93000000000E-01 0.  1.
        -13    1    1    2    0    0 -0.18845681011E+02 -0.24171410070E+02 -0.76537734300E+01  0.31591267429E+02  0.10570000000E+00 0.  1.
         13    1    1    2    0    0  0.18845681011E+02  0.24171410070E+02  0.88714765215E+02  0.93860201881E+02  0.10570000000E+00 0. -1.
<mgrwt>
<rscale>  0 0.95745427E+02</rscale>
<asrwt>0</asrwt>
<pdfrwt beam="2">  1        3 0.34146521E-02 0.95745427E+02</pdfrwt>
<pdfrwt beam="1">  1       -3 0.15885574E-01 0.95745427E+02</pdfrwt>
<totfact> 0.28776270E+04</totfact>
</mgrwt>
</event>
<event>
 4    1  0.1802450E-001  0.3074511E+02  0.7818608E-02  0.1589996E+00
         -3   -1    0    0    0  501 -0.00000000000E+00  0.00000000000E+00  0.30826430552E+01  0.30840455907E+01  0.93000000000E-01 0. -1.
          3   -1    0    0  501    0  0.00000000000E+00 -0.00000000000E+00 -0.76641149299E+02  0.76641205725E+02  0.93000000000E-01 0.  1.
        -13    1    1    2    0    0  0.12219518642E+02 -0.93072766287E+01 -0.38339985852E+02  0.41302635772E+02  0.10570000000E+00 0.  1.
         13    1    1    2    0    0 -0.12219518642E+02  0.93072766287E+01 -0.35218520393E+02  0.38422615544E+02  0.10570000000E+00 0. -1.
<mgrwt>
<rscale>  0 0.30745111E+02</rscale>
<asrwt>0</asrwt>
<pdfrwt beam="2">  1        3 0.11791057E-01 0.30745111E+02</pdfrwt>
<pdfrwt beam="1">  1       -3 0.47436506E-03 0.30745111E+02</pdfrwt>
<totfact> 0.56929595E+05</totfact>
</mgrwt>
</event>
<event>
 4    1  0.1802450E-001  0.2155409E+02  0.7818608E-02  0.1716080E+00
          3   -1    0    0  501    0  0.00000000000E+00  0.00000000000E+00  0.12041849460E+02  0.12042208577E+02  0.93000000000E-01 0. -1.
         -3   -1    0    0    0  501 -0.00000000000E+00 -0.00000000000E+00 -0.96443570251E+01  0.96448054116E+01  0.93000000000E-01 0.  1.
        -13    1    1    2    0    0 -0.80912336205E+01  0.59817708881E+01  0.50804963134E+01  0.11272633221E+02  0.10570000000E+00 0. -1.
         13    1    1    2    0    0  0.80912336205E+01 -0.59817708881E+01 -0.26830038790E+01  0.10414380767E+02  0.10570000000E+00 0.  1.
<mgrwt>
<rscale>  0 0.21554086E+02</rscale>
<asrwt>0</asrwt>
<pdfrwt beam="1">  1        3 0.18526543E-02 0.21554086E+02</pdfrwt>
<pdfrwt beam="2">  1       -3 0.14838094E-02 0.21554086E+02</pdfrwt>
<totfact> 0.15103028E+06</totfact>
</mgrwt>
</event>
<event>
 4    1  0.1802450E-001  0.2262327E+02  0.7818608E-02  0.1697691E+00
          3   -1    0    0  501    0  0.00000000000E+00  0.00000000000E+00  0.52795060002E+01  0.52803250474E+01  0.93000000000E-01 0.  1.
         -3   -1    0    0    0  501 -0.00000000000E+00 -0.00000000000E+00 -0.24233019642E+02  0.24233198096E+02  0.93000000000E-01 0. -1.
        -13    1    1    2    0    0  0.49273032181E+01 -0.90982100715E+01 -0.15438800269E+02  0.18585571547E+02  0.10570000000E+00 0. -1.
         13    1    1    2    0    0 -0.49273032181E+01  0.90982100715E+01 -0.35147133731E+01  0.10927951596E+02  0.10570000000E+00 0.  1.
<mgrwt>
<rscale>  0 0.22623271E+02</rscale>
<asrwt>0</asrwt>
<pdfrwt beam="1">  1        3 0.81230843E-03 0.22623271E+02</pdfrwt>
<pdfrwt beam="2">  1       -3 0.37282336E-02 0.22623271E+02</pdfrwt>
<totfact> 0.13212904E+06</totfact>
</mgrwt>
</event>
<event>
 4    1  0.1802450E-001  0.1204764E+03  0.7818608E-02  0.1242313E+00
          3   -1    0    0  501    0  0.00000000000E+00  0.00000000000E+00  0.98272824045E+02  0.98272868050E+02  0.93000000000E-01 0. -1.
         -3   -1    0    0    0  501 -0.00000000000E+00 -0.00000000000E+00 -0.36924057862E+02  0.36924174981E+02  0.93000000000E-01 0.  1.
        -13    1    1    2    0    0 -0.36167112925E+02 -0.32602243997E+02 -0.91223632577E+01  0.49539833012E+02  0.10570000000E+00 0. -1.
         13    1    1    2    0    0  0.36167112925E+02  0.32602243997E+02  0.70471129440E+02  0.85657210018E+02  0.10570000000E+00 0.  1.
<mgrwt>
<rscale>  0 0.12047643E+03</rscale>
<asrwt>0</asrwt>
<pdfrwt beam="1">  1        3 0.15118908E-01 0.12047643E+03</pdfrwt>
<pdfrwt beam="2">  1       -3 0.56806367E-02 0.12047643E+03</pdfrwt>
<totfact> 0.14939476E+04</totfact>
</mgrwt>
</event>
<event>
 4    1  0.1802450E-001  0.2113656E+02  0.7818608E-02  0.1723627E+00
         -3   -1    0    0    0  501 -0.00000000000E+00  0.00000000000E+00  0.27944240714E+02  0.27944395468E+02  0.93000000000E-01 0. -1.
          3   -1    0    0  501    0  0.00000000000E+00 -0.00000000000E+00 -0.39961285155E+01  0.39972105414E+01  0.93000000000E-01 0.  1.
        -13    1    1    2    0    0 -0.41408692466E+01 -0.93724381303E+01  0.15882189383E+02  0.18900912854E+02  0.10570000000E+00 0. -1.
         13    1    1    2    0    0  0.41408692466E+01  0.93724381303E+01  0.80659228157E+01  0.13040693156E+02  0.10570000000E+00 0.  1.
<mgrwt>
<rscale>  0 0.21136559E+02</rscale>
<asrwt>0</asrwt>
<pdfrwt beam="2">  1        3 0.61488414E-03 0.21136559E+02</pdfrwt>
<pdfrwt beam="1">  1       -3 0.42992091E-02 0.21136559E+02</pdfrwt>
<totfact> 0.15217745E+06</totfact>
</mgrwt>
</event>
<event>
 4    1  0.1802450E-001  0.2398415E+02  0.7818608E-02  0.1676037E+00
          3   -1    0    0  501    0  0.00000000000E+00  0.00000000000E+00  0.94927156491E+01  0.94931711980E+01  0.93000000000E-01 0.  1.
         -3   -1    0    0    0  501 -0.00000000000E+00 -0.00000000000E+00 -0.15148532564E+02  0.15148818035E+02  0.93000000000E-01 0. -1.
        -13    1    1    2    0    0 -0.43010857806E+01  0.97301471369E+01  0.28577314885E+01  0.11016029409E+02  0.10570000000E+00 0.  1.
         13    1    1    2    0    0  0.43010857806E+01 -0.97301471369E+01 -0.85135484036E+01  0.13625959823E+02  0.10570000000E+00 0. -1.
<mgrwt>
<rscale>  0 0.23984148E+02</rscale>
<asrwt>0</asrwt>
<pdfrwt beam="1">  1        3 0.14604748E-02 0.23984148E+02</pdfrwt>
<pdfrwt beam="2">  1       -3 0.23306005E-02 0.23984148E+02</pdfrwt>
<totfact> 0.11796837E+06</totfact>
</mgrwt>
</event>
<event>
 4    1  0.1802450E-001  0.2999983E+02  0.7818608E-02  0.1598091E+00
          3   -1    0    0  501    0  0.00000000000E+00  0.00000000000E+00  0.21461740533E+02  0.21461942030E+02  0.93000000000E-01 0. -1.
         -3   -1    0    0    0  501 -0.00000000000E+00 -0.00000000000E+00 -0.10483198634E+02  0.10483611143E+02  0.93000000000E-01 0.  1.
        -13    1    1    2    0    0 -0.11336726609E+02 -0.93741077298E+01  0.23681191079E+01  0.14900148541E+02  0.10570000000E+00 0.  1.
         13    1    1    2    0    0  0.11336726609E+02  0.93741077298E+01  0.86104227913E+01  0.17045404632E+02  0.10570000000E+00 0. -1.
<mgrwt>
<rscale>  0 0.29999833E+02</rscale>
<asrwt>0</asrwt>
<pdfrwt beam="1">  1        3 0.33018534E-02 0.29999833E+02</pdfrwt>
<pdfrwt beam="2">  1       -3 0.16128471E-02 0.29999833E+02</pdfrwt>
<totfact> 0.69013551E+05</totfact>
</mgrwt>
</event>
<event>
 4    1  0.1802450E-001  0.2466054E+02  0.7818608E-02  0.1665926E+00
          3   -1    0    0  501    0  0.00000000000E+00  0.00000000000E+00  0.75648136278E+02  0.75648193444E+02  0.93000000000E-01 0. -1.
         -3   -1    0    0    0  501 -0.00000000000E+00 -0.00000000000E+00 -0.20086384494E+01  0.20107902477E+01  0.93000000000E-01 0.  1.
        -13    1    1    2    0    0 -0.11676850811E+02 -0.29728051095E+01  0.45054524844E+02  0.46638050951E+02  0.10570000000E+00 0. -1.
         13    1    1    2    0    0  0.11676850811E+02  0.29728051095E+01  0.28584972985E+02  0.31020932741E+02  0.10570000000E+00 0.  1.
<mgrwt>
<rscale>  0 0.24660537E+02</rscale>
<asrwt>0</asrwt>
<pdfrwt beam="1">  1        3 0.11638347E-01 0.24660537E+02</pdfrwt>
<pdfrwt beam="2">  1       -3 0.30919115E-03 0.24660537E+02</pdfrwt>
<totfact> 0.94733588E+05</totfact>
</mgrwt>
</event>
<event>
 4    1  0.1802450E-001  0.2743874E+02  0.7818608E-02  0.1628258E+00
          3   -1    0    0  501    0  0.00000000000E+00  0.00000000000E+00  0.99083590968E+01  0.99087955369E+01  0.93000000000E-01 0.  1.
         -3   -1    0    0    0  501 -0.00000000000E+00 -0.00000000000E+00 -0.18995221978E+02  0.18995449639E+02  0.93000000000E-01 0. -1.
        -13    1    1    2    0    0 -0.13222510132E+02 -0.20459478340E+01 -0.13501511438E+01  0.13448225063E+02  0.10570000000E+00 0.  1.
         13    1    1    2    0    0  0.13222510132E+02  0.20459478340E+01 -0.77367117373E+01  0.15456020113E+02  0.10570000000E+00 0. -1.
<mgrwt>
<rscale>  0 0.27438737E+02</rscale>
<asrwt>0</asrwt>
<pdfrwt beam="1">  1        3 0.15244140E-02 0.27438737E+02</pdfrwt>
<pdfrwt beam="2">  1       -3 0.29223929E-02 0.27438737E+02</pdfrwt>
<totfact> 0.85681549E+05</totfact>
</mgrwt>
</event>
<event>
 4    1  0.1802450E-001  0.2231874E+02  0.7818608E-02  0.1702797E+00
          3   -1    0    0  501    0  0.00000000000E+00  0.00000000000E+00  0.29168903865E+02  0.29169052122E+02  0.93000000000E-01 0. -1.
         -3   -1    0    0    0  501 -0.00000000000E+00 -0.00000000000E+00 -0.42686585034E+01  0.42696714649E+01  0.93000000000E-01 0.  1.
        -13    1    1    2    0    0  0.21485001999E+01  0.10645576301E+02  0.16292149933E+02  0.19580338858E+02  0.10570000000E+00 0. -1.
         13    1    1    2    0    0 -0.21485001999E+01 -0.10645576301E+02  0.86080954289E+01  0.13858384729E+02  0.10570000000E+00 0.  1.
<mgrwt>
<rscale>  0 0.22318737E+02</rscale>
<asrwt>0</asrwt>
<pdfrwt beam="1">  1        3 0.44876130E-02 0.22318737E+02</pdfrwt>
<pdfrwt beam="2">  1       -3 0.65680602E-03 0.22318737E+02</pdfrwt>
<totfact> 0.13437743E+06</totfact>
</mgrwt>
</event>
<event>
 4    1  0.1802450E-001  0.5497533E+02  0.7818608E-02  0.1420216E+00
          3   -1    0    0  501    0  0.00000000000E+00  0.00000000000E+00  0.29911101343E+01  0.29925555693E+01  0.93000000000E-01 0.  1.
         -3   -1    0    0    0  501 -0.00000000000E+00 -0.00000000000E+00 -0.25254328996E+03  0.25254330709E+03  0.93000000000E-01 0. -1.
        -13    1    1    2    0    0  0.10656672893E+02 -0.25128147338E+02 -0.10966265821E+03  0.11300839899E+03  0.10570000000E+00 0.  1.
         13    1    1    2    0    0 -0.10656672893E+02  0.25128147338E+02 -0.13988952162E+03  0.14252746366E+03  0.10570000000E+00 0. -1.
<mgrwt>
<rscale>  0 0.54975328E+02</rscale>
<asrwt>0</asrwt>
<pdfrwt beam="1">  1        3 0.46028349E-03 0.54975328E+02</pdfrwt>
<pdfrwt beam="2">  1       -3 0.38852910E-01 0.54975328E+02</pdfrwt>
<totfact> 0.96592262E+04</totfact>
</mgrwt>
</event>
<event>
 4    1  0.1802450E-001  0.2465370E+02  0.7818608E-02  0.1666026E+00
         -3   -1    0    0    0  501 -0.00000000000E+00  0.00000000000E+00  0.59741851578E+01  0.59749089783E+01  0.93000000000E-01 0. -1.
          3   -1    0    0  501    0  0.00000000000E+00 -0.00000000000E+00 -0.25432294168E+02  0.25432464207E+02  0.93000000000E-01 0.  1.
        -13    1    1    2    0    0 -0.94281350834E+01  0.56167202510E+01 -0.16879353022E+02  0.20133579127E+02  0.10570000000E+00 0.  1.
         13    1    1    2    0    0  0.94281350834E+01 -0.56167202510E+01 -0.25787559876E+01  0.11273794058E+02  0.10570000000E+00 0. -1.
<mgrwt>
<rscale>  0 0.24653703E+02</rscale>
<asrwt>0</asrwt>
<pdfrwt beam="2">  1        3 0.39127294E-02 0.24653703E+02</pdfrwt>
<pdfrwt beam="1">  1       -3 0.91917418E-03 0.24653703E+02</pdfrwt>
<totfact> 0.10840468E+06</totfact>
</mgrwt>
</event>
<event>
 4    1  0.1802450E-001  0.2427954E+02  0.7818608E-02  0.1671571E+00
         -3   -1    0    0    0  501 -0.00000000000E+00  0.00000000000E+00  0.22022934162E+02  0.22023130524E+02  0.93000000000E-01 0.  1.
          3   -1    0    0  501    0  0.00000000000E+00 -0.00000000000E+00 -0.66912924407E+01  0.66919386972E+01  0.93000000000E-01 0. -1.
        -13    1    1    2    0    0 -0.93422434160E+01 -0.65222458724E+01  0.27118465937E+01  0.11712492805E+02  0.10570000000E+00 0. -1.
         13    1    1    2    0    0  0.93422434160E+01  0.65222458724E+01  0.12619795127E+02  0.17002576417E+02  0.10570000000E+00 0.  1.
<mgrwt>
<rscale>  0 0.24279538E+02</rscale>
<asrwt>0</asrwt>
<pdfrwt beam="2">  1        3 0.10294944E-02 0.24279538E+02</pdfrwt>
<pdfrwt beam="1">  1       -3 0.33882085E-02 0.24279538E+02</pdfrwt>
<totfact> 0.11320636E+06</totfact>
</mgrwt>
</event>
<event>
 4    1  0.1802450E-001  0.4095570E+02  0.7818608E-02  0.1501294E+00
          3   -1    0    0  501    0  0.00000000000E+00  0.00000000000E+00  0.16901788818E+02  0.16902044677E+02  0.93000000000E-01 0. -1.
         -3   -1    0    0    0  501 -0.00000000000E+00 -0.00000000000E+00 -0.24809997457E+02  0.24810171761E+02  0.93000000000E-01 0.  1.
        -13    1    1    2    0    0  0.18185873184E+02  0.19513843468E+01  0.54245347018E+01  0.19078014402E+02  0.10570000000E+00 0. -1.
         13    1    1    2    0    0 -0.18185873184E+02 -0.19513843468E+01 -0.13332743341E+02  0.22634202036E+02  0.10570000000E+00 0.  1.
<mgrwt>
<rscale>  0 0.40955698E+02</rscale>
<asrwt>0</asrwt>
<pdfrwt beam="1">  1        3 0.26003083E-02 0.40955698E+02</pdfrwt>
<pdfrwt beam="2">  1       -3 0.38169558E-02 0.40955698E+02</pdfrwt>
<totfact> 0.31794604E+05</totfact>
</mgrwt>
</event>
<event>
 4    1  0.1802450E-001  0.2900160E+02  0.7818608E-02  0.1609394E+00
          3   -1    0    0  501    0  0.00000000000E+00  0.00000000000E+00  0.56656667583E+02  0.56656743911E+02  0.93000000000E-01 0. -1.
         -3   -1    0    0    0  501 -0.00000000000E+00 -0.00000000000E+00 -0.37106968838E+01  0.37118621153E+01  0.93000000000E-01 0.  1.
        -13    1    1    2    0    0  0.10483046300E+02  0.56829425681E+01  0.43647054861E+02  0.45246731003E+02  0.10570000000E+00 0. -1.
         13    1    1    2    0    0 -0.10483046300E+02 -0.56829425681E+01  0.92989158378E+01  0.15121875023E+02  0.10570000000E+00 0.  1.
<mgrwt>
<rscale>  0 0.29001600E+02</rscale>
<asrwt>0</asrwt>
<pdfrwt beam="1">  1        3 0.87165054E-02 0.29001600E+02</pdfrwt>
<pdfrwt beam="2">  1       -3 0.57097198E-03 0.29001600E+02</pdfrwt>
<totfact> 0.68637626E+05</totfact>
</mgrwt>
</event>
<event>
 4    1  0.1802450E-001  0.2713590E+02  0.7818608E-02  0.1632092E+00
          3   -1    0    0  501    0  0.00000000000E+00  0.00000000000E+00  0.27412902249E+02  0.27413060003E+02  0.93000000000E-01 0.  1.
         -3   -1    0    0    0  501 -0.00000000000E+00 -0.00000000000E+00 -0.67149265543E+01  0.67155705364E+01  0.93000000000E-01 0. -1.
        -13    1    1    2    0    0  0.70127366194E+01  0.81377173114E+01 -0.73728671818E-01  0.10743254923E+02  0.10570000000E+00 0. -1.
         13    1    1    2    0    0 -0.70127366194E+01 -0.81377173114E+01  0.20771704367E+02  0.23385375617E+02  0.10570000000E+00 0.  1.
<mgrwt>
<rscale>  0 0.27135903E+02</rscale>
<asrwt>0</asrwt>
<pdfrwt beam="1">  1        3 0.42174311E-02 0.27135903E+02</pdfrwt>
<pdfrwt beam="2">  1       -3 0.10331273E-02 0.27135903E+02</pdfrwt>
<totfact> 0.86414919E+05</totfact>
</mgrwt>
</event>
<event>
 4    1  0.1802450E-001  0.6027286E+02  0.7818608E-02  0.1396690E+00
         -3   -1    0    0    0  501 -0.00000000000E+00  0.00000000000E+00  0.24279340740E+02  0.24279518854E+02  0.93000000000E-01 0.  1.
          3   -1    0    0  501    0  0.00000000000E+00 -0.00000000000E+00 -0.37406090646E+02  0.37406206256E+02  0.93000000000E-01 0. -1.
        -13    1    1    2    0    0 -0.11856369178E+02  0.27684371271E+02 -0.54444936158E+01  0.30604764106E+02  0.10570000000E+00 0. -1.
         13    1    1    2    0    0  0.11856369178E+02 -0.27684371271E+02 -0.76822562905E+01  0.31080961004E+02  0.10570000000E+00 0.  1.
<mgrwt>
<rscale>  0 0.60272856E+02</rscale>
<asrwt>0</asrwt>
<pdfrwt beam="2">  1        3 0.57548058E-02 0.60272856E+02</pdfrwt>
<pdfrwt beam="1">  1       -3 0.37353058E-02 0.60272856E+02</pdfrwt>
<totfact> 0.11370709E+05</totfact>
</mgrwt>
</event>
<event>
 4    1  0.1802450E-001  0.2817199E+02  0.7818608E-02  0.1619221E+00
          3   -1    0    0  501    0  0.00000000000E+00  0.00000000000E+00  0.42518961864E+01  0.42529131404E+01  0.93000000000E-01 0.  1.
         -3   -1    0    0    0  501 -0.00000000000E+00 -0.00000000000E+00 -0.46658471861E+02  0.46658564546E+02  0.93000000000E-01 0. -1.
        -13    1    1    2    0    0 -0.50345534407E+01 -0.10866792320E+02 -0.34601957071E+02  0.36616123625E+02  0.10570000000E+00 0.  1.
         13    1    1    2    0    0  0.50345534407E+01  0.10866792320E+02 -0.78046186037E+01  0.14295354061E+02  0.10570000000E+00 0. -1.
<mgrwt>
<rscale>  0 0.28171988E+02</rscale>
<asrwt>0</asrwt>
<pdfrwt beam="1">  1        3 0.65422326E-03 0.28171988E+02</pdfrwt>
<pdfrwt beam="2">  1       -3 0.71783114E-02 0.28171988E+02</pdfrwt>
<totfact> 0.75379060E+05</totfact>
</mgrwt>
</event>
<event>
 4    1  0.1802450E-001  0.3478360E+02  0.7818608E-02  0.1550531E+00
          3   -1    0    0  501    0  0.00000000000E+00  0.00000000000E+00  0.43090736046E+02  0.43090836404E+02  0.93000000000E-01 0.  1.
         -3   -1    0    0    0  501 -0.00000000000E+00 -0.00000000000E+00 -0.70190669495E+01  0.70196830300E+01  0.93000000000E-01 0. -1.
        -13    1    1    2    0    0  0.72316487799E-01 -0.16444100708E+02  0.26191651143E+02  0.30926161091E+02  0.10570000000E+00 0.  1.
         13    1    1    2    0    0 -0.72316487799E-01  0.16444100708E+02  0.98800179538E+01  0.19184358343E+02  0.10570000000E+00 0. -1.
<mgrwt>
<rscale>  0 0.34783600E+02</rscale>
<asrwt>0</asrwt>
<pdfrwt beam="1">  1        3 0.66293993E-02 0.34783600E+02</pdfrwt>
<pdfrwt beam="2">  1       -3 0.10799115E-02 0.34783600E+02</pdfrwt>
<totfact> 0.46094211E+05</totfact>
</mgrwt>
</event>
<event>
 4    1  0.1802450E-001  0.7842827E+02  0.7818608E-02  0.1333572E+00
         -3   -1    0    0    0  501 -0.00000000000E+00  0.00000000000E+00  0.50936326118E+02  0.50936411018E+02  0.93000000000E-01 0.  1.
          3   -1    0    0  501    0  0.00000000000E+00 -0.00000000000E+00 -0.30189443161E+02  0.30189586407E+02  0.93000000000E-01 0. -1.
        -13    1    1    2    0    0 -0.62530583560E+01 -0.18781312715E+02 -0.24642076012E+02  0.31608250961E+02  0.10570000000E+00 0. -1.
         13    1    1    2    0    0  0.62530583560E+01  0.18781312715E+02  0.45388958968E+02  0.49517746464E+02  0.10570000000E+00 0.  1.
<mgrwt>
<rscale>  0 0.78428275E+02</rscale>
<asrwt>0</asrwt>
<pdfrwt beam="2">  1        3 0.46445474E-02 0.78428275E+02</pdfrwt>
<pdfrwt beam="1">  1       -3 0.78363752E-02 0.78428275E+02</pdfrwt>
<totfact> 0.54268496E+04</totfact>
</mgrwt>
</event>
<event>
 4    1  0.1802450E-001  0.5161360E+02  0.7818608E-02  0.1436828E+00
          3   -1    0    0  501    0  0.00000000000E+00  0.00000000000E+00  0.14277696386E+03  0.14277699415E+03  0.93000000000E-01 0. -1.
         -3   -1    0    0    0  501 -0.00000000000E+00 -0.00000000000E+00 -0.46640605698E+01  0.46649876740E+01  0.93000000000E-01 0.  1.
        -13    1    1    2    0    0 -0.23946354038E+02  0.88396783847E+01  0.79901201808E+02  0.83879562520E+02  0.10570000000E+00 0. -1.
         13    1    1    2    0    0  0.23946354038E+02 -0.88396783847E+01  0.58211701484E+02  0.63562419304E+02  0.10570000000E+00 0.  1.
<mgrwt>
<rscale>  0 0.51613602E+02</rscale>
<asrwt>0</asrwt>
<pdfrwt beam="1">  1        3 0.21965760E-01 0.51613602E+02</pdfrwt>
<pdfrwt beam="2">  1       -3 0.71762143E-03 0.51613602E+02</pdfrwt>
<totfact> 0.13898900E+05</totfact>
</mgrwt>
</event>
<event>
 4    1  0.1802450E-001  0.3298992E+02  0.7818608E-02  0.1567211E+00
          3   -1    0    0  501    0  0.00000000000E+00  0.00000000000E+00  0.92468127592E+01  0.92472804220E+01  0.93000000000E-01 0.  1.
         -3   -1    0    0    0  501 -0.00000000000E+00 -0.00000000000E+00 -0.29423302102E+02  0.29423449077E+02  0.93000000000E-01 0. -1.
        -13    1    1    2    0    0  0.59632220672E+01  0.14984035007E+02 -0.60291269625E+01  0.17217516282E+02  0.10570000000E+00 0.  1.
         13    1    1    2    0    0 -0.59632220672E+01 -0.14984035007E+02 -0.14147362380E+02  0.21453213217E+02  0.10570000000E+00 0. -1.
<mgrwt>
<rscale>  0 0.32989917E+02</rscale>
<asrwt>0</asrwt>
<pdfrwt beam="1">  1        3 0.14226339E-02 0.32989917E+02</pdfrwt>
<pdfrwt beam="2">  1       -3 0.45267091E-02 0.32989917E+02</pdfrwt>
<totfact> 0.54053324E+05</totfact>
</mgrwt>
</event>
<event>
 4    1  0.1802450E-001  0.7526606E+02  0.7818608E-02  0.1343049E+00
         -3   -1    0    0    0  501 -0.00000000000E+00  0.00000000000E+00  0.26475029684E+02  0.26475193026E+02  0.93000000000E-01 0.  1.
          3   -1    0    0  501    0  0.00000000000E+00 -0.00000000000E+00 -0.53493245134E+02  0.53493325976E+02  0.93000000000E-01 0. -1.
        -13    1    1    2    0    0  0.32462955557E+02 -0.11810297713E+02 -0.29371983964E+02  0.45343701106E+02  0.10570000000E+00 0. -1.
         13    1    1    2    0    0 -0.32462955557E+02  0.11810297713E+02  0.23537685139E+01  0.34624817895E+02  0.10570000000E+00 0.  1.
<mgrwt>
<rscale>  0 0.75266062E+02</rscale>
<asrwt>0</asrwt>
<pdfrwt beam="2">  1        3 0.82297488E-02 0.75266062E+02</pdfrwt>
<pdfrwt beam="1">  1       -3 0.40731003E-02 0.75266062E+02</pdfrwt>
<totfact> 0.60736852E+04</totfact>
</mgrwt>
</event>
<event>
 4    1  0.1802450E-001  0.4511217E+02  0.7818608E-02  0.1473643E+00
          3   -1    0    0  501    0  0.00000000000E+00  0.00000000000E+00  0.10353089873E+02  0.10353507566E+02  0.93000000000E-01 0. -1.
         -3   -1    0    0    0  501 -0.00000000000E+00 -0.00000000000E+00 -0.49141065590E+02  0.49141153592E+02  0.93000000000E-01 0.  1.
        -13    1    1    2    0    0  0.19560080595E+02  0.10913325343E+02 -0.15887742659E+02  0.27461408599E+02  0.10570000000E+00 0. -1.
         13    1    1    2    0    0 -0.19560080595E+02 -0.10913325343E+02 -0.22900233057E+02  0.32033252559E+02  0.10570000000E+00 0.  1.
<mgrwt>
<rscale>  0 0.45112167E+02</rscale>
<asrwt>0</asrwt>
<pdfrwt beam="1">  1        3 0.15928220E-02 0.45112167E+02</pdfrwt>
<pdfrwt beam="2">  1       -3 0.75602027E-02 0.45112167E+02</pdfrwt>
<totfact> 0.23849331E+05</totfact>
</mgrwt>
</event>
<event>
 4    1  0.1802450E-001  0.9302624E+02  0.7818608E-02  0.1295684E+00
         -3   -1    0    0    0  501 -0.00000000000E+00  0.00000000000E+00  0.63567108195E+02  0.63567176226E+02  0.93000000000E-01 0.  1.
          3   -1    0    0  501    0  0.00000000000E+00 -0.00000000000E+00 -0.34034283699E+02  0.34034410762E+02  0.93000000000E-01 0. -1.
        -13    1    1    2    0    0 -0.25071424410E+02  0.32829717966E+02  0.37197663860E+02  0.55588164863E+02  0.10570000000E+00 0.  1.
         13    1    1    2    0    0  0.25071424410E+02 -0.32829717966E+02 -0.76648393633E+01  0.42013422125E+02  0.10570000000E+00 0. -1.
<mgrwt>
<rscale>  0 0.93026244E+02</rscale>
<asrwt>0</asrwt>
<pdfrwt beam="2">  1        3 0.52360587E-02 0.93026244E+02</pdfrwt>
<pdfrwt beam="1">  1       -3 0.97795701E-02 0.93026244E+02</pdfrwt>
<totfact> 0.32991843E+04</totfact>
</mgrwt>
</event>
<event>
 4    1  0.1802450E-001  0.5371418E+02  0.7818608E-02  0.1426279E+00
         -3   -1    0    0    0  501 -0.00000000000E+00  0.00000000000E+00  0.18204782045E+03  0.18204784421E+03  0.93000000000E-01 0. -1.
          3   -1    0    0  501    0  0.00000000000E+00 -0.00000000000E+00 -0.39615942088E+01  0.39626856644E+01  0.93000000000E-01 0.  1.
        -13    1    1    2    0    0  0.18715673266E+02 -0.16369245497E+02  0.53886984385E+02  0.59346835489E+02  0.10570000000E+00 0.  1.
         13    1    1    2    0    0 -0.18715673266E+02  0.16369245497E+02  0.12419924186E+03  0.12666369438E+03  0.10570000000E+00 0. -1.
<mgrwt>
<rscale>  0 0.53714181E+02</rscale>
<asrwt>0</asrwt>
<pdfrwt beam="2">  1        3 0.60956192E-03 0.53714181E+02</pdfrwt>
<pdfrwt beam="1">  1       -3 0.28007438E-01 0.53714181E+02</pdfrwt>
<totfact> 0.11637009E+05</totfact>
</mgrwt>
</event>
<event>
 4    1  0.1802450E-001  0.2377952E+02  0.7818608E-02  0.1679177E+00
         -3   -1    0    0    0  501 -0.00000000000E+00  0.00000000000E+00  0.47170529735E+01  0.47179696644E+01  0.93000000000E-01 0. -1.
          3   -1    0    0  501    0  0.00000000000E+00 -0.00000000000E+00 -0.29965323733E+02  0.29965468049E+02  0.93000000000E-01 0.  1.
        -13    1    1    2    0    0  0.37072456738E+00  0.11459722649E+02 -0.17211608166E+02  0.20681230816E+02  0.10570000000E+00 0. -1.
         13    1    1    2    0    0 -0.37072456738E+00 -0.11459722649E+02 -0.80366625933E+01  0.14002206898E+02  0.10570000000E+00 0.  1.
<mgrwt>
<rscale>  0 0.23779522E+02</rscale>
<asrwt>0</asrwt>
<pdfrwt beam="2">  1        3 0.46101313E-02 0.23779522E+02</pdfrwt>
<pdfrwt beam="1">  1       -3 0.72578209E-03 0.23779522E+02</pdfrwt>
<totfact> 0.11628857E+06</totfact>
</mgrwt>
</event>
<event>
 4    1  0.1802450E-001  0.3553143E+02  0.7818608E-02  0.1543931E+00
          3   -1    0    0  501    0  0.00000000000E+00  0.00000000000E+00  0.26487012271E+01  0.26503334112E+01  0.93000000000E-01 0.  1.
         -3   -1    0    0    0  501 -0.00000000000E+00 -0.00000000000E+00 -0.11912218373E+03  0.11912222003E+03  0.93000000000E-01 0. -1.
        -13    1    1    2    0    0  0.42863397393E+01  0.17206622041E+02 -0.54531362996E+02  0.57342142209E+02  0.10570000000E+00 0.  1.
         13    1    1    2    0    0 -0.42863397393E+01 -0.17206622041E+02 -0.61942119504E+02  0.64430411232E+02  0.10570000000E+00 0. -1.
<mgrwt>
<rscale>  0 0.35531432E+02</rscale>
<asrwt>0</asrwt>
<pdfrwt beam="1">  1        3 0.40762093E-03 0.35531432E+02</pdfrwt>
<pdfrwt beam="2">  1       -3 0.18326614E-01 0.35531432E+02</pdfrwt>
<totfact> 0.36625704E+05</totfact>
</mgrwt>
</event>
<event>
 4    1  0.1802450E-001  0.4148226E+02  0.7818608E-02  0.1497579E+00
          3   -1    0    0  501    0  0.00000000000E+00  0.00000000000E+00  0.10385669914E+03  0.10385674078E+03  0.93000000000E-01 0. -1.
         -3   -1    0    0    0  501 -0.00000000000E+00 -0.00000000000E+00 -0.41416281512E+01  0.41426721742E+01  0.93000000000E-01 0.  1.
        -13    1    1    2    0    0  0.15352465304E+02  0.89552637598E+01  0.77690531732E+02  0.79697709084E+02  0.10570000000E+00 0. -1.
         13    1    1    2    0    0 -0.15352465304E+02 -0.89552637598E+01  0.22024539255E+02  0.28301703868E+02  0.10570000000E+00 0.  1.
<mgrwt>
<rscale>  0 0.41482259E+02</rscale>
<asrwt>0</asrwt>
<pdfrwt beam="1">  1        3 0.15978035E-01 0.41482259E+02</pdfrwt>
<pdfrwt beam="2">  1       -3 0.63725715E-03 0.41482259E+02</pdfrwt>
<totfact> 0.26018817E+05</totfact>
</mgrwt>
</event>
<event>
 4    1  0.1802450E-001  0.2622240E+02  0.7818608E-02  0.1644040E+00
          3   -1    0    0  501    0  0.00000000000E+00  0.00000000000E+00  0.20952994188E+02  0.20953200578E+02  0.93000000000E-01 0.  1.
         -3   -1    0    0    0  501 -0.00000000000E+00 -0.00000000000E+00 -0.82037359991E+01  0.82042631201E+01  0.93000000000E-01 0. -1.
        -13    1    1    2    0    0  0.75349443864E+01 -0.98289304481E+01  0.11158395063E+02  0.16670459308E+02  0.10570000000E+00 0.  1.
         13    1    1    2    0    0 -0.75349443864E+01  0.98289304481E+01  0.15908631261E+01  0.12487004390E+02  0.10570000000E+00 0. -1.
<mgrwt>
<rscale>  0 0.26222397E+02</rscale>
<asrwt>0</asrwt>
<pdfrwt beam="1">  1        3 0.32235940E-02 0.26222397E+02</pdfrwt>
<pdfrwt beam="2">  1       -3 0.12621697E-02 0.26222397E+02</pdfrwt>
<totfact> 0.94960839E+05</totfact>
</mgrwt>
</event>
<event>
 4    1  0.1802450E-001  0.3478378E+02  0.7818608E-02  0.1550529E+00
         -3   -1    0    0    0  501 -0.00000000000E+00  0.00000000000E+00  0.39300504961E+01  0.39311507097E+01  0.93000000000E-01 0.  1.
          3   -1    0    0  501    0  0.00000000000E+00 -0.00000000000E+00 -0.76953487794E+02  0.76953543990E+02  0.93000000000E-01 0. -1.
        -13    1    1    2    0    0 -0.17362250200E+02  0.17827043055E+00 -0.34201320814E+02  0.38356499192E+02  0.10570000000E+00 0. -1.
         13    1    1    2    0    0  0.17362250200E+02 -0.17827043055E+00 -0.38822116484E+02  0.42528195508E+02  0.10570000000E+00 0.  1.
<mgrwt>
<rscale>  0 0.34783781E+02</rscale>
<asrwt>0</asrwt>
<pdfrwt beam="2">  1        3 0.11839086E-01 0.34783781E+02</pdfrwt>
<pdfrwt beam="1">  1       -3 0.60471217E-03 0.34783781E+02</pdfrwt>
<totfact> 0.42455016E+05</totfact>
</mgrwt>
</event>
<event>
 4    1  0.1802450E-001  0.2159618E+02  0.7818608E-02  0.1715331E+00
          3   -1    0    0  501    0  0.00000000000E+00  0.00000000000E+00  0.33539730013E+01  0.33552621199E+01  0.93000000000E-01 0.  1.
         -3   -1    0    0    0  501 -0.00000000000E+00 -0.00000000000E+00 -0.34756327473E+02  0.34756451896E+02  0.93000000000E-01 0. -1.
        -13    1    1    2    0    0  0.61986241984E+01 -0.88340757529E+01 -0.15080471836E+02  0.18544423411E+02  0.10570000000E+00 0.  1.
         13    1    1    2    0    0 -0.61986241984E+01  0.88340757529E+01 -0.16321882636E+02  0.19567290605E+02  0.10570000000E+00 0. -1.
<mgrwt>
<rscale>  0 0.21596177E+02</rscale>
<asrwt>0</asrwt>
<pdfrwt beam="1">  1        3 0.51610460E-03 0.21596177E+02</pdfrwt>
<pdfrwt beam="2">  1       -3 0.53472358E-02 0.21596177E+02</pdfrwt>
<totfact> 0.14231085E+06</totfact>
</mgrwt>
</event>
<event>
 4    1  0.1802450E-001  0.3184370E+02  0.7818608E-02  0.1578560E+00
          3   -1    0    0  501    0  0.00000000000E+00  0.00000000000E+00  0.41429181846E+01  0.41439618826E+01  0.93000000000E-01 0. -1.
         -3   -1    0    0    0  501 -0.00000000000E+00 -0.00000000000E+00 -0.61181252392E+02  0.61181323075E+02  0.93000000000E-01 0.  1.
        -13    1    1    2    0    0 -0.17652494610E+01 -0.14132809392E+02 -0.43117796884E+02  0.45409338110E+02  0.10570000000E+00 0.  1.
         13    1    1    2    0    0  0.17652494610E+01  0.14132809392E+02 -0.13920537323E+02  0.19915946848E+02  0.10570000000E+00 0. -1.
<mgrwt>
<rscale>  0 0.31843701E+02</rscale>
<asrwt>0</asrwt>
<pdfrwt beam="1">  1        3 0.63745779E-03 0.31843701E+02</pdfrwt>
<pdfrwt beam="2">  1       -3 0.94125854E-02 0.31843701E+02</pdfrwt>
<totfact> 0.54469533E+05</totfact>
</mgrwt>
</event>
<event>
 4    1  0.1802450E-001  0.2890846E+02  0.7818608E-02  0.1610477E+00
         -3   -1    0    0    0  501 -0.00000000000E+00  0.00000000000E+00  0.75572718992E+02  0.75572776215E+02  0.93000000000E-01 0. -1.
          3   -1    0    0  501    0  0.00000000000E+00 -0.00000000000E+00 -0.27637128516E+01  0.27652771518E+01  0.93000000000E-01 0.  1.
        -13    1    1    2    0    0  0.11636565992E+02 -0.75947705977E+01  0.25625017338E+02  0.29150349819E+02  0.10570000000E+00 0. -1.
         13    1    1    2    0    0 -0.11636565992E+02  0.75947705977E+01  0.47183988802E+02  0.49187703548E+02  0.10570000000E+00 0.  1.
<mgrwt>
<rscale>  0 0.28908463E+02</rscale>
<asrwt>0</asrwt>
<pdfrwt beam="2">  1        3 0.42531133E-03 0.28908463E+02</pdfrwt>
<pdfrwt beam="1">  1       -3 0.11626697E-01 0.28908463E+02</pdfrwt>
<totfact> 0.65912632E+05</totfact>
</mgrwt>
</event>
<event>
 4    1  0.1802450E-001  0.3219211E+02  0.7818608E-02  0.1575049E+00
         -3   -1    0    0    0  501 -0.00000000000E+00  0.00000000000E+00  0.19102921980E+02  0.19103148357E+02  0.93000000000E-01 0.  1.
          3   -1    0    0  501    0  0.00000000000E+00 -0.00000000000E+00 -0.13562012131E+02  0.13562330996E+02  0.93000000000E-01 0. -1.
        -13    1    1    2    0    0  0.81039907634E+01 -0.11711573188E+02 -0.48388942848E+01  0.15041997315E+02  0.10570000000E+00 0. -1.
         13    1    1    2    0    0 -0.81039907634E+01  0.11711573188E+02  0.10379804134E+02  0.17623482039E+02  0.10570000000E+00 0.  1.
<mgrwt>
<rscale>  0 0.32192109E+02</rscale>
<asrwt>0</asrwt>
<pdfrwt beam="2">  1        3 0.20865053E-02 0.32192109E+02</pdfrwt>
<pdfrwt beam="1">  1       -3 0.29389530E-02 0.32192109E+02</pdfrwt>
<totfact> 0.58341296E+05</totfact>
</mgrwt>
</event>
<event>
 4    1  0.1802450E-001  0.2555277E+02  0.7818608E-02  0.1653187E+00
         -3   -1    0    0    0  501 -0.00000000000E+00  0.00000000000E+00  0.25569453670E+02  0.25569622797E+02  0.93000000000E-01 0. -1.
          3   -1    0    0  501    0  0.00000000000E+00 -0.00000000000E+00 -0.63834976586E+01  0.63841750726E+01  0.93000000000E-01 0.  1.
        -13    1    1    2    0    0  0.14883379505E+01 -0.10988085209E+02  0.16572900488E+01  0.11212089422E+02  0.10570000000E+00 0.  1.
         13    1    1    2    0    0 -0.14883379505E+01  0.10988085209E+02  0.17528665962E+02  0.20741708448E+02  0.10570000000E+00 0. -1.
<mgrwt>
<rscale>  0 0.25552775E+02</rscale>
<asrwt>0</asrwt>
<pdfrwt beam="2">  1        3 0.98214168E-03 0.25552775E+02</pdfrwt>
<pdfrwt beam="1">  1       -3 0.39338272E-02 0.25552775E+02</pdfrwt>
<totfact> 0.99801839E+05</totfact>
</mgrwt>
</event>
<event>
 4    1  0.1802450E-001  0.3630462E+02  0.7818608E-02  0.1537311E+00
         -3   -1    0    0    0  501 -0.00000000000E+00  0.00000000000E+00  0.18317215800E+02  0.18317451888E+02  0.93000000000E-01 0.  1.
          3   -1    0    0  501    0  0.00000000000E+00 -0.00000000000E+00 -0.17988420236E+02  0.17988660639E+02  0.93000000000E-01 0. -1.
        -13    1    1    2    0    0  0.87420746957E+01 -0.15202849149E+02  0.48491133863E+01  0.18195482004E+02  0.10570000000E+00 0.  1.
         13    1    1    2    0    0 -0.87420746957E+01  0.15202849149E+02 -0.45203178229E+01  0.18110630523E+02  0.10570000000E+00 0. -1.
<mgrwt>
<rscale>  0 0.36304624E+02</rscale>
<asrwt>0</asrwt>
<pdfrwt beam="2">  1        3 0.27674859E-02 0.36304624E+02</pdfrwt>
<pdfrwt beam="1">  1       -3 0.28180699E-02 0.36304624E+02</pdfrwt>
<totfact> 0.43312118E+05</totfact>
</mgrwt>
</event>
<event>
 4    1  0.1802450E-001  0.5303745E+02  0.7818608E-02  0.1429615E+00
         -3   -1    0    0    0  501 -0.00000000000E+00  0.00000000000E+00  0.17097441885E+02  0.17097694816E+02  0.93000000000E-01 0.  1.
          3   -1    0    0  501    0  0.00000000000E+00 -0.00000000000E+00 -0.41130856802E+02  0.41130961942E+02  0.93000000000E-01 0. -1.
        -13    1    1    2    0    0 -0.61002649992E+01  0.11664855307E+02 -0.37290557052E+02  0.39545908767E+02  0.10570000000E+00 0. -1.
         13    1    1    2    0    0  0.61002649992E+01 -0.11664855307E+02  0.13257142136E+02  0.18682747991E+02  0.10570000000E+00 0.  1.
<mgrwt>
<rscale>  0 0.53037453E+02</rscale>
<asrwt>0</asrwt>
<pdfrwt beam="2">  1        3 0.63278517E-02 0.53037453E+02</pdfrwt>
<pdfrwt beam="1">  1       -3 0.26304032E-02 0.53037453E+02</pdfrwt>
<totfact> 0.15929699E+05</totfact>
</mgrwt>
</event>
<event>
 4    1  0.1802450E-001  0.2791262E+02  0.7818608E-02  0.1622378E+00
          3   -1    0    0  501    0  0.00000000000E+00  0.00000000000E+00  0.41188310749E+01  0.41198808750E+01  0.93000000000E-01 0.  1.
         -3   -1    0    0    0  501 -0.00000000000E+00 -0.00000000000E+00 -0.47282641472E+02  0.47282732933E+02  0.93000000000E-01 0. -1.
        -13    1    1    2    0    0  0.98171885577E+01  0.84544671901E+01 -0.12028482996E+02  0.17679105812E+02  0.10570000000E+00 0.  1.
         13    1    1    2    0    0 -0.98171885577E+01 -0.84544671901E+01 -0.31135327401E+02  0.33723507995E+02  0.10570000000E+00 0. -1.
<mgrwt>
<rscale>  0 0.27912617E+02</rscale>
<asrwt>0</asrwt>
<pdfrwt beam="1">  1        3 0.63375414E-03 0.27912617E+02</pdfrwt>
<pdfrwt beam="2">  1       -3 0.72743400E-02 0.27912617E+02</pdfrwt>
<totfact> 0.76887570E+05</totfact>
</mgrwt>
</event>
<event>
 4    1  0.1802450E-001  0.2302063E+02  0.7818608E-02  0.1691176E+00
          3   -1    0    0  501    0  0.00000000000E+00  0.00000000000E+00  0.21266078671E+02  0.21266282022E+02  0.93000000000E-01 0. -1.
         -3   -1    0    0    0  501 -0.00000000000E+00 -0.00000000000E+00 -0.62294034062E+01  0.62300975753E+01  0.93000000000E-01 0.  1.
        -13    1    1    2    0    0 -0.10087914810E+02  0.55415910267E+01  0.75540340384E+01  0.13767710742E+02  0.10570000000E+00 0.  1.
         13    1    1    2    0    0  0.10087914810E+02 -0.55415910267E+01  0.74826412260E+01  0.13728668855E+02  0.10570000000E+00 0. -1.
<mgrwt>
<rscale>  0 0.23020627E+02</rscale>
<asrwt>0</asrwt>
<pdfrwt beam="1">  1        3 0.32717735E-02 0.23020627E+02</pdfrwt>
<pdfrwt beam="2">  1       -3 0.95843878E-03 0.23020627E+02</pdfrwt>
<totfact> 0.12798870E+06</totfact>
</mgrwt>
</event>
<event>
 4    1  0.1802450E-001  0.2376858E+02  0.7818608E-02  0.1679346E+00
          3   -1    0    0  501    0  0.00000000000E+00  0.00000000000E+00  0.26190907379E+01  0.26207413634E+01  0.93000000000E-01 0. -1.
         -3   -1    0    0    0  501 -0.00000000000E+00 -0.00000000000E+00 -0.53907041386E+02  0.53907121608E+02  0.93000000000E-01 0.  1.
        -13    1    1    2    0    0  0.80277217716E+01  0.62882238739E+01 -0.11130917183E+02  0.15096177204E+02  0.10570000000E+00 0. -1.
         13    1    1    2    0    0 -0.80277217716E+01 -0.62882238739E+01 -0.40157033465E+02  0.41431685767E+02  0.10570000000E+00 0.  1.
<mgrwt>
<rscale>  0 0.23768580E+02</rscale>
<asrwt>0</asrwt>
<pdfrwt beam="1">  1        3 0.40307022E-03 0.23768580E+02</pdfrwt>
<pdfrwt beam="2">  1       -3 0.82935233E-02 0.23768580E+02</pdfrwt>
<totfact> 0.10897924E+06</totfact>
</mgrwt>
</event>
<event>
 4    1  0.1802450E-001  0.2755003E+02  0.7818608E-02  0.1626864E+00
          3   -1    0    0  501    0  0.00000000000E+00  0.00000000000E+00  0.14291862203E+02  0.14292164784E+02  0.93000000000E-01 0. -1.
         -3   -1    0    0    0  501 -0.00000000000E+00 -0.00000000000E+00 -0.13276255287E+02  0.13276581015E+02  0.93000000000E-01 0.  1.
        -13    1    1    2    0    0  0.25297399264E+01  0.13339922559E+02  0.28303240404E+01  0.13869932395E+02  0.10570000000E+00 0. -1.
         13    1    1    2    0    0 -0.25297399264E+01 -0.13339922559E+02 -0.18147171244E+01  0.13698813405E+02  0.10570000000E+00 0.  1.
<mgrwt>
<rscale>  0 0.27550032E+02</rscale>
<asrwt>0</asrwt>
<pdfrwt beam="1">  1        3 0.21987964E-02 0.27550032E+02</pdfrwt>
<pdfrwt beam="2">  1       -3 0.20425491E-02 0.27550032E+02</pdfrwt>
<totfact> 0.85261653E+05</totfact>
</mgrwt>
</event>
<event>
 4    1  0.1802450E-001  0.5795503E+02  0.7818608E-02  0.1406620E+00
         -3   -1    0    0    0  501 -0.00000000000E+00  0.00000000000E+00  0.62532839581E+01  0.62539754765E+01  0.93000000000E-01 0. -1.
          3   -1    0    0  501    0  0.00000000000E+00 -0.00000000000E+00 -0.13427274686E+03  0.13427277906E+03  0.93000000000E-01 0.  1.
        -13    1    1    2    0    0 -0.28366602131E+02 -0.70874710253E+00 -0.78255833179E+02  0.83241534332E+02  0.10570000000E+00 0. -1.
         13    1    1    2    0    0  0.28366602131E+02  0.70874710253E+00 -0.49763629719E+02  0.57285220207E+02  0.10570000000E+00 0.  1.
<mgrwt>
<rscale>  0 0.57955033E+02</rscale>
<asrwt>0</asrwt>
<pdfrwt beam="2">  1        3 0.20657399E-01 0.57955033E+02</pdfrwt>
<pdfrwt beam="1">  1       -3 0.96209946E-03 0.57955033E+02</pdfrwt>
<totfact> 0.10511785E+05</totfact>
</mgrwt>
</event>
<event>
 4    1  0.1802450E-001  0.2614732E+02  0.7818608E-02  0.1645049E+00
         -3   -1    0    0    0  501 -0.00000000000E+00  0.00000000000E+00  0.85632700976E+01  0.85637750884E+01  0.93000000000E-01 0.  1.
          3   -1    0    0  501    0  0.00000000000E+00 -0.00000000000E+00 -0.19958534211E+02  0.19958750884E+02  0.93000000000E-01 0. -1.
        -13    1    1    2    0    0  0.78793132256E+01 -0.94890732068E+01 -0.96996036656E+00  0.12372472786E+02  0.10570000000E+00 0.  1.
         13    1    1    2    0    0 -0.78793132256E+01  0.94890732068E+01 -0.10425303747E+02  0.16150053187E+02  0.10570000000E+00 0. -1.
<mgrwt>
<rscale>  0 0.26147322E+02</rscale>
<asrwt>0</asrwt>
<pdfrwt beam="2">  1        3 0.30705992E-02 0.26147322E+02</pdfrwt>
<pdfrwt beam="1">  1       -3 0.13174817E-02 0.26147322E+02</pdfrwt>
<totfact> 0.95784740E+05</totfact>
</mgrwt>
</event>
<event>
 4    1  0.1802450E-001  0.3277816E+02  0.7818608E-02  0.1569265E+00
         -3   -1    0    0    0  501 -0.00000000000E+00  0.00000000000E+00  0.70569356371E+02  0.70569417651E+02  0.93000000000E-01 0. -1.
          3   -1    0    0  501    0  0.00000000000E+00 -0.00000000000E+00 -0.38055799967E+01  0.38067161847E+01  0.93000000000E-01 0.  1.
        -13    1    1    2    0    0  0.11768461705E+02  0.10837457366E+02  0.41450206727E+02  0.44430597377E+02  0.10570000000E+00 0.  1.
         13    1    1    2    0    0 -0.11768461705E+02 -0.10837457366E+02  0.25313569647E+02  0.29945536459E+02  0.10570000000E+00 0. -1.
<mgrwt>
<rscale>  0 0.32778155E+02</rscale>
<asrwt>0</asrwt>
<pdfrwt beam="2">  1        3 0.58556594E-03 0.32778155E+02</pdfrwt>
<pdfrwt beam="1">  1       -3 0.10856916E-01 0.32778155E+02</pdfrwt>
<totfact> 0.49684829E+05</totfact>
</mgrwt>
</event>
<event>
 4    1  0.1802450E-001  0.3070437E+02  0.7818608E-02  0.1590431E+00
          3   -1    0    0  501    0  0.00000000000E+00  0.00000000000E+00  0.85055241804E+02  0.85055292648E+02  0.93000000000E-01 0. -1.
         -3   -1    0    0    0  501 -0.00000000000E+00 -0.00000000000E+00 -0.27701863001E+01  0.27717469468E+01  0.93000000000E-01 0.  1.
        -13    1    1    2    0    0  0.12398042448E+02  0.75639760728E+01  0.55373818220E+02  0.57246799975E+02  0.10570000000E+00 0. -1.
         13    1    1    2    0    0 -0.12398042448E+02 -0.75639760728E+01  0.26911237284E+02  0.30580239620E+02  0.10570000000E+00 0.  1.
<mgrwt>
<rscale>  0 0.30704373E+02</rscale>
<asrwt>0</asrwt>
<pdfrwt beam="1">  1        3 0.13085546E-01 0.30704373E+02</pdfrwt>
<pdfrwt beam="2">  1       -3 0.42630646E-03 0.30704373E+02</pdfrwt>
<totfact> 0.55947944E+05</totfact>
</mgrwt>
</event>
<event>
 4    1  0.1802450E-001  0.2461785E+02  0.7818608E-02  0.1666552E+00
          3   -1    0    0  501    0  0.00000000000E+00  0.00000000000E+00  0.66973244992E+01  0.66979701737E+01  0.93000000000E-01 0.  1.
         -3   -1    0    0    0  501 -0.00000000000E+00 -0.00000000000E+00 -0.22620571243E+02  0.22620762417E+02  0.93000000000E-01 0. -1.
        -13    1    1    2    0    0 -0.10192555648E+02 -0.20677611912E+01 -0.12168904316E+00  0.10401432963E+02  0.10570000000E+00 0.  1.
         13    1    1    2    0    0  0.10192555648E+02  0.20677611912E+01 -0.15801557700E+02  0.18917299628E+02  0.10570000000E+00 0. -1.
<mgrwt>
<rscale>  0 0.24617845E+02</rscale>
<asrwt>0</asrwt>
<pdfrwt beam="1">  1        3 0.10304220E-02 0.24617845E+02</pdfrwt>
<pdfrwt beam="2">  1       -3 0.34801522E-02 0.24617845E+02</pdfrwt>
<totfact> 0.10951932E+06</totfact>
</mgrwt>
</event>
<event>
 4    1  0.1802450E-001  0.2732221E+02  0.7818608E-02  0.1629726E+00
          3   -1    0    0  501    0  0.00000000000E+00  0.00000000000E+00  0.14848844530E+02  0.14849135762E+02  0.93000000000E-01 0.  1.
         -3   -1    0    0    0  501 -0.00000000000E+00 -0.00000000000E+00 -0.12567787566E+02  0.12568131655E+02  0.93000000000E-01 0. -1.
        -13    1    1    2    0    0 -0.40260745140E+00  0.10104952661E+02 -0.80752393695E+01  0.12941901885E+02  0.10570000000E+00 0. -1.
         13    1    1    2    0    0  0.40260745140E+00 -0.10104952661E+02  0.10356296334E+02  0.14475365532E+02  0.10570000000E+00 0.  1.
<mgrwt>
<rscale>  0 0.27322213E+02</rscale>
<asrwt>0</asrwt>
<pdfrwt beam="1">  1        3 0.22844865E-02 0.27322213E+02</pdfrwt>
<pdfrwt beam="2">  1       -3 0.19335547E-02 0.27322213E+02</pdfrwt>
<totfact> 0.86946210E+05</totfact>
</mgrwt>
</event>
<event>
 4    1  0.1802450E-001  0.2050275E+02  0.7818608E-02  0.1735511E+00
          3   -1    0    0  501    0  0.00000000000E+00  0.00000000000E+00  0.99251249141E+01  0.99255606169E+01  0.93000000000E-01 0. -1.
         -3   -1    0    0    0  501 -0.00000000000E+00 -0.00000000000E+00 -0.10587475789E+02  0.10587884236E+02  0.93000000000E-01 0.  1.
        -13    1    1    2    0    0  0.44567117529E+01 -0.89614472570E+01 -0.25481131097E+01  0.10328304290E+02  0.10570000000E+00 0.  1.
         13    1    1    2    0    0 -0.44567117529E+01  0.89614472570E+01  0.18857622346E+01  0.10185140563E+02  0.10570000000E+00 0. -1.
<mgrwt>
<rscale>  0 0.20502749E+02</rscale>
<asrwt>0</asrwt>
<pdfrwt beam="1">  1        3 0.15270072E-02 0.20502749E+02</pdfrwt>
<pdfrwt beam="2">  1       -3 0.16289074E-02 0.20502749E+02</pdfrwt>
<totfact> 0.16917953E+06</totfact>
</mgrwt>
</event>
<event>
 4    1  0.1802450E-001  0.2212227E+02  0.7818608E-02  0.1706146E+00
         -3   -1    0    0    0  501 -0.00000000000E+00  0.00000000000E+00  0.39534485521E+01  0.39545422559E+01  0.93000000000E-01 0.  1.
          3   -1    0    0  501    0  0.00000000000E+00 -0.00000000000E+00 -0.30941905546E+02  0.30942045308E+02  0.93000000000E-01 0. -1.
        -13    1    1    2    0    0 -0.58004685149E+01 -0.88615500143E+01 -0.84649170814E+01  0.13558705592E+02  0.10570000000E+00 0. -1.
         13    1    1    2    0    0  0.58004685149E+01  0.88615500143E+01 -0.18523539913E+02  0.21337881972E+02  0.10570000000E+00 0.  1.
<mgrwt>
<rscale>  0 0.22122274E+02</rscale>
<asrwt>0</asrwt>
<pdfrwt beam="2">  1        3 0.47603879E-02 0.22122274E+02</pdfrwt>
<pdfrwt beam="1">  1       -3 0.60831776E-03 0.22122274E+02</pdfrwt>
<totfact> 0.13637068E+06</totfact>
</mgrwt>
</event>
<event>
 4    1  0.1802450E-001  0.2462658E+02  0.7818608E-02  0.1666424E+00
          3   -1    0    0  501    0  0.00000000000E+00  0.00000000000E+00  0.15366648001E+02  0.15366929420E+02  0.93000000000E-01 0. -1.
         -3   -1    0    0    0  501 -0.00000000000E+00 -0.00000000000E+00 -0.98660444875E+01  0.98664827993E+01  0.93000000000E-01 0.  1.
        -13    1    1    2    0    0  0.68689841472E+01 -0.98682596272E+01  0.54690692559E+01  0.13209367218E+02  0.10570000000E+00 0. -1.
         13    1    1    2    0    0 -0.68689841472E+01  0.98682596272E+01  0.31534257598E-01  0.12024045001E+02  0.10570000000E+00 0.  1.
<mgrwt>
<rscale>  0 0.24626580E+02</rscale>
<asrwt>0</asrwt>
<pdfrwt beam="1">  1        3 0.23641551E-02 0.24626580E+02</pdfrwt>
<pdfrwt beam="2">  1       -3 0.15179084E-02 0.24626580E+02</pdfrwt>
<totfact> 0.11094466E+06</totfact>
</mgrwt>
</event>
<event>
 4    1  0.1802450E-001  0.2062856E+02  0.7818608E-02  0.1733110E+00
         -3   -1    0    0    0  501 -0.00000000000E+00  0.00000000000E+00  0.13829550571E+02  0.13829863268E+02  0.93000000000E-01 0. -1.
          3   -1    0    0  501    0  0.00000000000E+00 -0.00000000000E+00 -0.76918556456E+01  0.76924178431E+01  0.93000000000E-01 0.  1.
        -13    1    1    2    0    0 -0.49804671532E+01  0.89968928345E+01  0.38930178967E+01  0.10996176361E+02  0.10570000000E+00 0.  1.
         13    1    1    2    0    0  0.49804671532E+01 -0.89968928345E+01  0.22446770289E+01  0.10526104749E+02  0.10570000000E+00 0. -1.
<mgrwt>
<rscale>  0 0.20628555E+02</rscale>
<asrwt>0</asrwt>
<pdfrwt beam="2">  1        3 0.11834297E-02 0.20628555E+02</pdfrwt>
<pdfrwt beam="1">  1       -3 0.21276904E-02 0.20628555E+02</pdfrwt>
<totfact> 0.16633580E+06</totfact>
</mgrwt>
</event>
<event>
 4    1  0.1802450E-001  0.2419374E+02  0.7818608E-02  0.1672860E+00
          3   -1    0    0  501    0  0.00000000000E+00  0.00000000000E+00  0.26982403691E+02  0.26982563962E+02  0.93000000000E-01 0. -1.
         -3   -1    0    0    0  501 -0.00000000000E+00 -0.00000000000E+00 -0.54227452481E+01  0.54235426637E+01  0.93000000000E-01 0.  1.
        -13    1    1    2    0    0  0.80833046464E+01  0.83850756934E+01  0.15155878241E+02  0.19114421941E+02  0.10570000000E+00 0. -1.
         13    1    1    2    0    0 -0.80833046464E+01 -0.83850756934E+01  0.64037802022E+01  0.13291684685E+02  0.10570000000E+00 0.  1.
<mgrwt>
<rscale>  0 0.24193736E+02</rscale>
<asrwt>0</asrwt>
<pdfrwt beam="1">  1        3 0.41512127E-02 0.24193736E+02</pdfrwt>
<pdfrwt beam="2">  1       -3 0.83434218E-03 0.24193736E+02</pdfrwt>
<totfact> 0.11271872E+06</totfact>
</mgrwt>
</event>
<event>
 4    1  0.1802450E-001  0.2268583E+02  0.7818608E-02  0.1696654E+00
         -3   -1    0    0    0  501 -0.00000000000E+00  0.00000000000E+00  0.56276759398E+02  0.56276836242E+02  0.93000000000E-01 0. -1.
          3   -1    0    0  501    0  0.00000000000E+00 -0.00000000000E+00 -0.22852076767E+01  0.22870992820E+01  0.93000000000E-01 0.  1.
        -13    1    1    2    0    0  0.40064159756E+01  0.10460827387E+02  0.31592238610E+02  0.33519561326E+02  0.10570000000E+00 0.  1.
         13    1    1    2    0    0 -0.40064159756E+01 -0.10460827387E+02  0.22399313112E+02  0.25044374198E+02  0.10570000000E+00 0. -1.
<mgrwt>
<rscale>  0 0.22685830E+02</rscale>
<asrwt>0</asrwt>
<pdfrwt beam="2">  1        3 0.35172181E-03 0.22685830E+02</pdfrwt>
<pdfrwt beam="1">  1       -3 0.86581150E-02 0.22685830E+02</pdfrwt>
<totfact> 0.12013493E+06</totfact>
</mgrwt>
</event>
<event>
 4    1  0.1802450E-001  0.5877199E+02  0.7818608E-02  0.1403059E+00
          3   -1    0    0  501    0  0.00000000000E+00  0.00000000000E+00  0.44131290741E+02  0.44131388733E+02  0.93000000000E-01 0.  1.
         -3   -1    0    0    0  501 -0.00000000000E+00 -0.00000000000E+00 -0.19567215686E+02  0.19567436692E+02  0.93000000000E-01 0. -1.
        -13    1    1    2    0    0  0.35221074004E+00 -0.27492968048E+02  0.23521415525E+02  0.36183635877E+02  0.10570000000E+00 0.  1.
         13    1    1    2    0    0 -0.35221074004E+00  0.27492968048E+02  0.10426595307E+01  0.27515189548E+02  0.10570000000E+00 0. -1.
<mgrwt>
<rscale>  0 0.58771988E+02</rscale>
<asrwt>0</asrwt>
<pdfrwt beam="1">  1        3 0.67894538E-02 0.58771988E+02</pdfrwt>
<pdfrwt beam="2">  1       -3 0.30103655E-02 0.58771988E+02</pdfrwt>
<totfact> 0.12074593E+05</totfact>
</mgrwt>
</event>
<event>
 4    1  0.1802450E-001  0.8924017E+02  0.7818608E-02  0.1304702E+00
         -3   -1    0    0    0  501 -0.00000000000E+00  0.00000000000E+00  0.14010828638E+02  0.14011137289E+02  0.93000000000E-01 0.  1.
          3   -1    0    0  501    0  0.00000000000E+00 -0.00000000000E+00 -0.14209905661E+03  0.14209908704E+03  0.93000000000E-01 0. -1.
        -13    1    1    2    0    0  0.42429189913E+02 -0.82208946358E+00 -0.39929477776E+02  0.58269085763E+02  0.10570000000E+00 0.  1.
         13    1    1    2    0    0 -0.42429189913E+02  0.82208946358E+00 -0.88158750193E+02  0.97841138565E+02  0.10570000000E+00 0. -1.
<mgrwt>
<rscale>  0 0.89240170E+02</rscale>
<asrwt>0</asrwt>
<pdfrwt beam="2">  1        3 0.21861418E-01 0.89240170E+02</pdfrwt>
<pdfrwt beam="1">  1       -3 0.21555383E-02 0.89240170E+02</pdfrwt>
<totfact> 0.32783432E+04</totfact>
</mgrwt>
</event>
<event>
 4    1  0.1802450E-001  0.2059574E+02  0.7818608E-02  0.1733734E+00
         -3   -1    0    0    0  501 -0.00000000000E+00  0.00000000000E+00  0.55732368449E+02  0.55732446043E+02  0.93000000000E-01 0.  1.
          3   -1    0    0  501    0  0.00000000000E+00 -0.00000000000E+00 -0.19015591847E+01  0.19038320128E+01  0.93000000000E-01 0. -1.
        -13    1    1    2    0    0 -0.83547269819E+01  0.59761478179E+01  0.24899054590E+02  0.26934919670E+02  0.10570000000E+00 0. -1.
         13    1    1    2    0    0  0.83547269819E+01 -0.59761478179E+01  0.28931754674E+02  0.30701358385E+02  0.10570000000E+00 0.  1.
<mgrwt>
<rscale>  0 0.20595740E+02</rscale>
<asrwt>0</asrwt>
<pdfrwt beam="2">  1        3 0.29272843E-03 0.20595740E+02</pdfrwt>
<pdfrwt beam="1">  1       -3 0.85743895E-02 0.20595740E+02</pdfrwt>
<totfact> 0.14879636E+06</totfact>
</mgrwt>
</event>
<event>
 4    1  0.1802450E-001  0.5985807E+02  0.7818608E-02  0.1398428E+00
          3   -1    0    0  501    0  0.00000000000E+00  0.00000000000E+00  0.17913879205E+03  0.17913881620E+03  0.93000000000E-01 0. -1.
         -3   -1    0    0    0  501 -0.00000000000E+00 -0.00000000000E+00 -0.49998405927E+01  0.50007054454E+01  0.93000000000E-01 0.  1.
        -13    1    1    2    0    0  0.27960224959E+02  0.10181004568E+00  0.54230896129E+02  0.61014636052E+02  0.10570000000E+00 0. -1.
         13    1    1    2    0    0 -0.27960224959E+02 -0.10181004568E+00  0.11990805533E+03  0.12312488559E+03  0.10570000000E+00 0.  1.
<mgrwt>
<rscale>  0 0.59858074E+02</rscale>
<asrwt>0</asrwt>
<pdfrwt beam="1">  1        3 0.27559882E-01 0.59858074E+02</pdfrwt>
<pdfrwt beam="2">  1       -3 0.76927465E-03 0.59858074E+02</pdfrwt>
<totfact> 0.88709641E+04</totfact>
</mgrwt>
</event>
<event>
 4    1  0.1802450E-001  0.3567588E+02  0.7818608E-02  0.1542679E+00
         -3   -1    0    0    0  501 -0.00000000000E+00  0.00000000000E+00  0.13207863968E+02  0.13208191383E+02  0.93000000000E-01 0. -1.
          3   -1    0    0  501    0  0.00000000000E+00 -0.00000000000E+00 -0.24090398969E+02  0.24090578480E+02  0.93000000000E-01 0.  1.
        -13    1    1    2    0    0  0.71325444830E+01 -0.15850049061E+02 -0.96341568202E+01  0.19872729962E+02  0.10570000000E+00 0.  1.
         13    1    1    2    0    0 -0.71325444830E+01  0.15850049061E+02 -0.12483781807E+01  0.17426039900E+02  0.10570000000E+00 0. -1.
<mgrwt>
<rscale>  0 0.35675884E+02</rscale>
<asrwt>0</asrwt>
<pdfrwt beam="2">  1        3 0.37062542E-02 0.35675884E+02</pdfrwt>
<pdfrwt beam="1">  1       -3 0.20320181E-02 0.35675884E+02</pdfrwt>
<totfact> 0.45039430E+05</totfact>
</mgrwt>
</event>
<event>
 4    1  0.1802450E-001  0.3106542E+02  0.7818608E-02  0.1586602E+00
          3   -1    0    0  501    0  0.00000000000E+00  0.00000000000E+00  0.40667085677E+01  0.40677718194E+01  0.93000000000E-01 0.  1.
         -3   -1    0    0    0  501 -0.00000000000E+00 -0.00000000000E+00 -0.59318001193E+02  0.59318074097E+02  0.93000000000E-01 0. -1.
        -13    1    1    2    0    0  0.12273483568E+02 -0.92683090803E+01 -0.32055665451E+02  0.35554420430E+02  0.10570000000E+00 0. -1.
         13    1    1    2    0    0 -0.12273483568E+02  0.92683090803E+01 -0.23195627174E+02  0.27831425486E+02  0.10570000000E+00 0.  1.
<mgrwt>
<rscale>  0 0.31065417E+02</rscale>
<asrwt>0</asrwt>
<pdfrwt beam="1">  1        3 0.62573491E-03 0.31065417E+02</pdfrwt>
<pdfrwt beam="2">  1       -3 0.91259331E-02 0.31065417E+02</pdfrwt>
<totfact> 0.58025009E+05</totfact>
</mgrwt>
</event>
<event>
 4    1  0.1802450E-001  0.2298150E+02  0.7818608E-02  0.1691810E+00
         -3   -1    0    0    0  501 -0.00000000000E+00  0.00000000000E+00  0.31958417082E+02  0.31958552398E+02  0.93000000000E-01 0. -1.
          3   -1    0    0  501    0  0.00000000000E+00 -0.00000000000E+00 -0.41308664758E+01  0.41319132180E+01  0.93000000000E-01 0.  1.
        -13    1    1    2    0    0 -0.10206112881E+02  0.38594102842E+01  0.19568645305E+02  0.22405419868E+02  0.10570000000E+00 0. -1.
         13    1    1    2    0    0  0.10206112881E+02 -0.38594102842E+01  0.82589053005E+01  0.13685045748E+02  0.10570000000E+00 0.  1.
<mgrwt>
<rscale>  0 0.22981496E+02</rscale>
<asrwt>0</asrwt>
<pdfrwt beam="2">  1        3 0.63560882E-03 0.22981496E+02</pdfrwt>
<pdfrwt beam="1">  1       -3 0.49167707E-02 0.22981496E+02</pdfrwt>
<totfact> 0.12490074E+06</totfact>
</mgrwt>
</event>
<event>
 4    1  0.1802450E-001  0.2794981E+02  0.7818608E-02  0.1621923E+00
          3   -1    0    0  501    0  0.00000000000E+00  0.00000000000E+00  0.43478979437E+01  0.43488924485E+01  0.93000000000E-01 0.  1.
         -3   -1    0    0    0  501 -0.00000000000E+00 -0.00000000000E+00 -0.44911597320E+02  0.44911693609E+02  0.93000000000E-01 0. -1.
        -13    1    1    2    0    0 -0.14312068173E+01 -0.10566477208E+02 -0.36201509099E+02  0.37739359124E+02  0.10570000000E+00 0. -1.
         13    1    1    2    0    0  0.14312068173E+01  0.10566477208E+02 -0.43621902769E+01  0.11521226933E+02  0.10570000000E+00 0.  1.
<mgrwt>
<rscale>  0 0.27949806E+02</rscale>
<asrwt>0</asrwt>
<pdfrwt beam="1">  1        3 0.66899132E-03 0.27949806E+02</pdfrwt>
<pdfrwt beam="2">  1       -3 0.69095601E-02 0.27949806E+02</pdfrwt>
<totfact> 0.77131407E+05</totfact>
</mgrwt>
</event>
<event>
 4    1  0.1802450E-001  0.2392479E+02  0.7818608E-02  0.1676944E+00
          3   -1    0    0  501    0  0.00000000000E+00  0.00000000000E+00  0.10063675904E+02  0.10064105608E+02  0.93000000000E-01 0.  1.
         -3   -1    0    0    0  501 -0.00000000000E+00 -0.00000000000E+00 -0.14218459955E+02  0.14218764099E+02  0.93000000000E-01 0. -1.
        -13    1    1    2    0    0  0.30752330090E+00 -0.11854831281E+02 -0.36680478985E+01  0.12413595094E+02  0.10570000000E+00 0. -1.
         13    1    1    2    0    0 -0.30752330090E+00  0.11854831281E+02 -0.48673615302E+00  0.11869274614E+02  0.10570000000E+00 0.  1.
<mgrwt>
<rscale>  0 0.23924789E+02</rscale>
<asrwt>0</asrwt>
<pdfrwt beam="1">  1        3 0.15483143E-02 0.23924789E+02</pdfrwt>
<pdfrwt beam="2">  1       -3 0.21875118E-02 0.23924789E+02</pdfrwt>
<totfact> 0.11877079E+06</totfact>
</mgrwt>
</event>
<event>
 4    1  0.1802450E-001  0.2686515E+02  0.7818608E-02  0.1635572E+00
          3   -1    0    0  501    0  0.00000000000E+00  0.00000000000E+00  0.23268602663E+01  0.23287180377E+01  0.93000000000E-01 0.  1.
         -3   -1    0    0    0  501 -0.00000000000E+00 -0.00000000000E+00 -0.77511178731E+02  0.77511234523E+02  0.93000000000E-01 0. -1.
        -13    1    1    2    0    0 -0.97128563560E+01  0.66286951857E+01 -0.56885055656E+02  0.58087863689E+02  0.10570000000E+00 0. -1.
         13    1    1    2    0    0  0.97128563560E+01 -0.66286951857E+01 -0.18299262809E+02  0.21752088872E+02  0.10570000000E+00 0.  1.
<mgrwt>
<rscale>  0 0.26865150E+02</rscale>
<asrwt>0</asrwt>
<pdfrwt beam="1">  1        3 0.35812576E-03 0.26865150E+02</pdfrwt>
<pdfrwt beam="2">  1       -3 0.11924942E-01 0.26865150E+02</pdfrwt>
<totfact> 0.77645909E+05</totfact>
</mgrwt>
</event>
<event>
 4    1  0.1802450E-001  0.8908094E+02  0.7818608E-02  0.1305093E+00
         -3   -1    0    0    0  501 -0.00000000000E+00  0.00000000000E+00  0.12714342237E+03  0.12714345638E+03  0.93000000000E-01 0. -1.
          3   -1    0    0  501    0  0.00000000000E+00 -0.00000000000E+00 -0.15603096663E+02  0.15603373817E+02  0.93000000000E-01 0.  1.
        -13    1    1    2    0    0  0.33399965549E+02 -0.17252930565E+02  0.17491610008E+02  0.41463102934E+02  0.10570000000E+00 0.  1.
         13    1    1    2    0    0 -0.33399965549E+02  0.17252930565E+02  0.94048715696E+02  0.10128372726E+03  0.10570000000E+00 0. -1.
<mgrwt>
<rscale>  0 0.89080937E+02</rscale>
<asrwt>0</asrwt>
<pdfrwt beam="2">  1        3 0.24005003E-02 0.89080937E+02</pdfrwt>
<pdfrwt beam="1">  1       -3 0.19560551E-01 0.89080937E+02</pdfrwt>
<totfact> 0.33817738E+04</totfact>
</mgrwt>
</event>
<event>
 4    1  0.1802450E-001  0.2476916E+02  0.7818608E-02  0.1664340E+00
         -3   -1    0    0    0  501 -0.00000000000E+00  0.00000000000E+00  0.48130964597E+02  0.48131054446E+02  0.93000000000E-01 0.  1.
          3   -1    0    0  501    0  0.00000000000E+00 -0.00000000000E+00 -0.31859043854E+01  0.31872614817E+01  0.93000000000E-01 0. -1.
        -13    1    1    2    0    0 -0.83387226589E+01 -0.78802950379E+01  0.32131339995E+02  0.34118433842E+02  0.10570000000E+00 0. -1.
         13    1    1    2    0    0  0.83387226589E+01  0.78802950379E+01  0.12813720217E+02  0.17199882085E+02  0.10570000000E+00 0.  1.
<mgrwt>
<rscale>  0 0.24769156E+02</rscale>
<asrwt>0</asrwt>
<pdfrwt beam="2">  1        3 0.49025043E-03 0.24769156E+02</pdfrwt>
<pdfrwt beam="1">  1       -3 0.74048752E-02 0.24769156E+02</pdfrwt>
<totfact> 0.10089150E+06</totfact>
</mgrwt>
</event>
<event>
 4    1  0.1802450E-001  0.2797217E+02  0.7818608E-02  0.1621650E+00
          3   -1    0    0  501    0  0.00000000000E+00  0.00000000000E+00  0.27242028306E+01  0.27257898053E+01  0.93000000000E-01 0. -1.
         -3   -1    0    0    0  501 -0.00000000000E+00 -0.00000000000E+00 -0.71782152275E+02  0.71782212520E+02  0.93000000000E-01 0.  1.
        -13    1    1    2    0    0  0.55979716229E+01 -0.11898603969E+02 -0.47215679395E+02  0.49012708718E+02  0.10570000000E+00 0.  1.
         13    1    1    2    0    0 -0.55979716229E+01  0.11898603969E+02 -0.21842270050E+02  0.25495293607E+02  0.10570000000E+00 0. -1.
<mgrwt>
<rscale>  0 0.27972165E+02</rscale>
<asrwt>0</asrwt>
<pdfrwt beam="1">  1        3 0.41923489E-03 0.27972165E+02</pdfrwt>
<pdfrwt beam="2">  1       -3 0.11043533E-01 0.27972165E+02</pdfrwt>
<totfact> 0.71800628E+05</totfact>
</mgrwt>
</event>
<event>
 4    1  0.1802450E-001  0.3929599E+02  0.7818608E-02  0.1513457E+00
          3   -1    0    0  501    0  0.00000000000E+00  0.00000000000E+00  0.39536646801E+01  0.39547583242E+01  0.93000000000E-01 0. -1.
         -3   -1    0    0    0  501 -0.00000000000E+00 -0.00000000000E+00 -0.97627365663E+02  0.97627409959E+02  0.93000000000E-01 0.  1.
        -13    1    1    2    0    0 -0.82067174325E+01  0.16936736088E+02 -0.32252654863E+02  0.37342310568E+02  0.10570000000E+00 0. -1.
         13    1    1    2    0    0  0.82067174325E+01 -0.16936736088E+02 -0.61421046120E+02  0.64239857715E+02  0.10570000000E+00 0.  1.
<mgrwt>
<rscale>  0 0.39295988E+02</rscale>
<asrwt>0</asrwt>
<pdfrwt beam="1">  1        3 0.60834371E-03 0.39295988E+02</pdfrwt>
<pdfrwt beam="2">  1       -3 0.15019680E-01 0.39295988E+02</pdfrwt>
<totfact> 0.30125561E+05</totfact>
</mgrwt>
</event>
<event>
 4    1  0.1802450E-001  0.4255700E+02  0.7818608E-02  0.1490196E+00
         -3   -1    0    0    0  501 -0.00000000000E+00  0.00000000000E+00  0.49378334045E+02  0.49378421624E+02  0.93000000000E-01 0. -1.
          3   -1    0    0  501    0  0.00000000000E+00 -0.00000000000E+00 -0.91691665465E+01  0.91696381694E+01  0.93000000000E-01 0.  1.
        -13    1    1    2    0    0 -0.15779157593E+02  0.11363885666E+02  0.31990644901E+02  0.37437043759E+02  0.10570000000E+00 0. -1.
         13    1    1    2    0    0  0.15779157593E+02 -0.11363885666E+02  0.82185225979E+01  0.21111016034E+02  0.10570000000E+00 0.  1.
<mgrwt>
<rscale>  0 0.42556999E+02</rscale>
<asrwt>0</asrwt>
<pdfrwt beam="2">  1        3 0.14106840E-02 0.42556999E+02</pdfrwt>
<pdfrwt beam="1">  1       -3 0.75967099E-02 0.42556999E+02</pdfrwt>
<totfact> 0.27622110E+05</totfact>
</mgrwt>
</event>
<event>
 4    1  0.1802450E-001  0.2153470E+02  0.7818608E-02  0.1716426E+00
         -3   -1    0    0    0  501 -0.00000000000E+00  0.00000000000E+00  0.16276749125E+01  0.16303296049E+01  0.93000000000E-01 0.  1.
          3   -1    0    0  501    0  0.00000000000E+00 -0.00000000000E+00 -0.71167177514E+02  0.71167238279E+02  0.93000000000E-01 0. -1.
        -13    1    1    2    0    0 -0.91026130707E+01 -0.42634697481E+01 -0.21725334514E+02  0.23938171844E+02  0.10570000000E+00 0. -1.
         13    1    1    2    0    0  0.91026130707E+01  0.42634697481E+01 -0.47814168088E+02  0.48859396040E+02  0.10570000000E+00 0.  1.
<mgrwt>
<rscale>  0 0.21534704E+02</rscale>
<asrwt>0</asrwt>
<pdfrwt beam="2">  1        3 0.10949003E-01 0.21534704E+02</pdfrwt>
<pdfrwt beam="1">  1       -3 0.25062046E-03 0.21534704E+02</pdfrwt>
<totfact> 0.12947539E+06</totfact>
</mgrwt>
</event>
<event>
 4    1  0.1802450E-001  0.4941901E+02  0.7818608E-02  0.1448501E+00
          3   -1    0    0  501    0  0.00000000000E+00  0.00000000000E+00  0.69984032780E+02  0.69984094572E+02  0.93000000000E-01 0.  1.
         -3   -1    0    0    0  501 -0.00000000000E+00 -0.00000000000E+00 -0.87239585744E+01  0.87244542642E+01  0.93000000000E-01 0. -1.
        -13    1    1    2    0    0 -0.59401316112E+01  0.23916485466E+02  0.33507952343E+02  0.41594200116E+02  0.10570000000E+00 0. -1.
         13    1    1    2    0    0  0.59401316112E+01 -0.23916485466E+02  0.27752121862E+02  0.37114348720E+02  0.10570000000E+00 0.  1.
<mgrwt>
<rscale>  0 0.49419014E+02</rscale>
<asrwt>0</asrwt>
<pdfrwt beam="1">  1        3 0.10766817E-01 0.49419014E+02</pdfrwt>
<pdfrwt beam="2">  1       -3 0.13421903E-02 0.49419014E+02</pdfrwt>
<totfact> 0.18085245E+05</totfact>
</mgrwt>
</event>
<event>
 4    1  0.1802450E-001  0.3613508E+02  0.7818608E-02  0.1538746E+00
         -3   -1    0    0    0  501 -0.00000000000E+00  0.00000000000E+00  0.75154390579E+01  0.75160144513E+01  0.93000000000E-01 0. -1.
          3   -1    0    0  501    0  0.00000000000E+00 -0.00000000000E+00 -0.43433105853E+02  0.43433205420E+02  0.93000000000E-01 0.  1.
        -13    1    1    2    0    0 -0.73542831464E+01 -0.13408497867E+02 -0.31523228024E+02  0.35037099954E+02  0.10570000000E+00 0.  1.
         13    1    1    2    0    0  0.73542831464E+01  0.13408497867E+02 -0.43944387714E+01  0.15912119917E+02  0.10570000000E+00 0. -1.
<mgrwt>
<rscale>  0 0.36135083E+02</rscale>
<asrwt>0</asrwt>
<pdfrwt beam="2">  1        3 0.66820681E-02 0.36135083E+02</pdfrwt>
<pdfrwt beam="1">  1       -3 0.11562733E-02 0.36135083E+02</pdfrwt>
<totfact> 0.41975897E+05</totfact>
</mgrwt>
</event>
<event>
 4    1  0.1802450E-001  0.2749647E+02  0.7818608E-02  0.1627534E+00
         -3   -1    0    0    0  501 -0.00000000000E+00  0.00000000000E+00  0.41014683670E+02  0.41014789107E+02  0.93000000000E-01 0. -1.
          3   -1    0    0  501    0  0.00000000000E+00 -0.00000000000E+00 -0.46078670580E+01  0.46088054660E+01  0.93000000000E-01 0.  1.
        -13    1    1    2    0    0  0.86522594852E+01 -0.77544807181E+01  0.30397422629E+02  0.32542403728E+02  0.10570000000E+00 0. -1.
         13    1    1    2    0    0 -0.86522594852E+01  0.77544807181E+01  0.60093939824E+01  0.13081190845E+02  0.10570000000E+00 0.  1.
<mgrwt>
<rscale>  0 0.27496474E+02</rscale>
<asrwt>0</asrwt>
<pdfrwt beam="2">  1        3 0.70898292E-03 0.27496474E+02</pdfrwt>
<pdfrwt beam="1">  1       -3 0.63100316E-02 0.27496474E+02</pdfrwt>
<totfact> 0.80941331E+05</totfact>
</mgrwt>
</event>
<event>
 4    1  0.1802450E-001  0.2683251E+02  0.7818608E-02  0.1635995E+00
         -3   -1    0    0    0  501 -0.00000000000E+00  0.00000000000E+00  0.10070983655E+02  0.10071413048E+02  0.93000000000E-01 0. -1.
          3   -1    0    0  501    0  0.00000000000E+00 -0.00000000000E+00 -0.17871792268E+02  0.17872034240E+02  0.93000000000E-01 0.  1.
        -13    1    1    2    0    0 -0.20417531795E-01  0.12325410042E+02  0.16169253902E+01  0.12431483008E+02  0.10570000000E+00 0. -1.
         13    1    1    2    0    0  0.20417531795E-01 -0.12325410042E+02 -0.94177340031E+01  0.15511964280E+02  0.10570000000E+00 0.  1.
<mgrwt>
<rscale>  0 0.26832511E+02</rscale>
<asrwt>0</asrwt>
<pdfrwt beam="2">  1        3 0.27495581E-02 0.26832511E+02</pdfrwt>
<pdfrwt beam="1">  1       -3 0.15494337E-02 0.26832511E+02</pdfrwt>
<totfact> 0.90465931E+05</totfact>
</mgrwt>
</event>
<event>
 4    1  0.1802450E-001  0.3047039E+02  0.7818608E-02  0.1592947E+00
          3   -1    0    0  501    0  0.00000000000E+00  0.00000000000E+00  0.33866208277E+01  0.33878975236E+01  0.93000000000E-01 0. -1.
         -3   -1    0    0    0  501 -0.00000000000E+00 -0.00000000000E+00 -0.68523465704E+02  0.68523528813E+02  0.93000000000E-01 0.  1.
        -13    1    1    2    0    0  0.10566052266E+02  0.90184771472E+01 -0.17806244772E+02  0.22584240432E+02  0.10570000000E+00 0. -1.
         13    1    1    2    0    0 -0.10566052266E+02 -0.90184771472E+01 -0.47330600104E+02  0.49327185905E+02  0.10570000000E+00 0.  1.
<mgrwt>
<rscale>  0 0.30470390E+02</rscale>
<asrwt>0</asrwt>
<pdfrwt beam="1">  1        3 0.52112170E-03 0.30470390E+02</pdfrwt>
<pdfrwt beam="2">  1       -3 0.10542174E-01 0.30470390E+02</pdfrwt>
<totfact> 0.59334664E+05</totfact>
</mgrwt>
</event>
<event>
 4    1  0.1802450E-001  0.2668141E+02  0.7818608E-02  0.1637963E+00
         -3   -1    0    0    0  501 -0.00000000000E+00  0.00000000000E+00  0.68972731413E+01  0.68979000998E+01  0.93000000000E-01 0. -1.
          3   -1    0    0  501    0  0.00000000000E+00 -0.00000000000E+00 -0.25801706454E+02  0.25801874058E+02  0.93000000000E-01 0.  1.
        -13    1    1    2    0    0  0.80224264855E+01 -0.10654757339E+02 -0.91054565172E+01  0.16149417685E+02  0.10570000000E+00 0.  1.
         13    1    1    2    0    0 -0.80224264855E+01  0.10654757339E+02 -0.97989767952E+01  0.16550356474E+02  0.10570000000E+00 0. -1.
<mgrwt>
<rscale>  0 0.26681410E+02</rscale>
<asrwt>0</asrwt>
<pdfrwt beam="2">  1        3 0.39695544E-02 0.26681410E+02</pdfrwt>
<pdfrwt beam="1">  1       -3 0.10611801E-02 0.26681410E+02</pdfrwt>
<totfact> 0.90228282E+05</totfact>
</mgrwt>
</event>
<event>
 4    1  0.1802450E-001  0.2277702E+02  0.7818608E-02  0.1695150E+00
          3   -1    0    0  501    0  0.00000000000E+00  0.00000000000E+00  0.40976947312E+01  0.40987499448E+01  0.93000000000E-01 0. -1.
         -3   -1    0    0    0  501 -0.00000000000E+00 -0.00000000000E+00 -0.31646298513E+02  0.31646435164E+02  0.93000000000E-01 0.  1.
        -13    1    1    2    0    0 -0.11755197279E+00 -0.10459541427E+02 -0.67085223938E+01  0.12427037882E+02  0.10570000000E+00 0.  1.
         13    1    1    2    0    0  0.11755197279E+00  0.10459541427E+02 -0.20840081389E+02  0.23318147227E+02  0.10570000000E+00 0. -1.
<mgrwt>
<rscale>  0 0.22777021E+02</rscale>
<asrwt>0</asrwt>
<pdfrwt beam="1">  1        3 0.63050628E-03 0.22777021E+02</pdfrwt>
<pdfrwt beam="2">  1       -3 0.48687528E-02 0.22777021E+02</pdfrwt>
<totfact> 0.12753707E+06</totfact>
</mgrwt>
</event>
<event>
 4    1  0.1802450E-001  0.3228211E+02  0.7818608E-02  0.1574152E+00
          3   -1    0    0  501    0  0.00000000000E+00  0.00000000000E+00  0.26512081628E+02  0.26512244741E+02  0.93000000000E-01 0. -1.
         -3   -1    0    0    0  501 -0.00000000000E+00 -0.00000000000E+00 -0.98265622081E+01  0.98270022810E+01  0.93000000000E-01 0.  1.
        -13    1    1    2    0    0  0.11441349148E+02 -0.85584097566E+01 -0.10894075840E+00  0.14288942874E+02  0.10570000000E+00 0.  1.
         13    1    1    2    0    0 -0.11441349148E+02  0.85584097566E+01  0.16794460178E+02  0.22050304148E+02  0.10570000000E+00 0. -1.
<mgrwt>
<rscale>  0 0.32282105E+02</rscale>
<asrwt>0</asrwt>
<pdfrwt beam="1">  1        3 0.40788282E-02 0.32282105E+02</pdfrwt>
<pdfrwt beam="2">  1       -3 0.15118252E-02 0.32282105E+02</pdfrwt>
<totfact> 0.57299772E+05</totfact>
</mgrwt>
</event>
<event>
 4    1  0.1802450E-001  0.4502602E+02  0.7818608E-02  0.1474179E+00
          3   -1    0    0  501    0  0.00000000000E+00  0.00000000000E+00  0.10296528537E+02  0.10296948524E+02  0.93000000000E-01 0. -1.
         -3   -1    0    0    0  501 -0.00000000000E+00 -0.00000000000E+00 -0.49222459980E+02  0.49222547837E+02  0.93000000000E-01 0.  1.
        -13    1    1    2    0    0  0.12229260115E+02 -0.22088783976E+01  0.53516626648E+01  0.13530905828E+02  0.10570000000E+00 0. -1.
         13    1    1    2    0    0 -0.12229260115E+02  0.22088783976E+01 -0.44277594108E+02  0.45988590533E+02  0.10570000000E+00 0.  1.
<mgrwt>
<rscale>  0 0.45026018E+02</rscale>
<asrwt>0</asrwt>
<pdfrwt beam="1">  1        3 0.15841204E-02 0.45026018E+02</pdfrwt>
<pdfrwt beam="2">  1       -3 0.75727251E-02 0.45026018E+02</pdfrwt>
<totfact> 0.23961365E+05</totfact>
</mgrwt>
</event>
<event>
 4    1  0.1802450E-001  0.2954092E+02  0.7818608E-02  0.1603219E+00
         -3   -1    0    0    0  501 -0.00000000000E+00  0.00000000000E+00  0.29307314958E+01  0.29322066947E+01  0.93000000000E-01 0.  1.
          3   -1    0    0  501    0  0.00000000000E+00 -0.00000000000E+00 -0.74420732217E+02  0.74420790326E+02  0.93000000000E-01 0. -1.
        -13    1    1    2    0    0 -0.10341535864E+02 -0.80647137381E+01 -0.53537020856E+02  0.55119966857E+02  0.10570000000E+00 0.  1.
         13    1    1    2    0    0  0.10341535864E+02  0.80647137381E+01 -0.17952979865E+02  0.22233030164E+02  0.10570000000E+00 0. -1.
<mgrwt>
<rscale>  0 0.29540920E+02</rscale>
<asrwt>0</asrwt>
<pdfrwt beam="2">  1        3 0.11449460E-01 0.29540920E+02</pdfrwt>
<pdfrwt beam="1">  1       -3 0.45099977E-03 0.29540920E+02</pdfrwt>
<totfact> 0.62854187E+05</totfact>
</mgrwt>
</event>
<event>
 4    1  0.1802450E-001  0.3942572E+02  0.7818608E-02  0.1512481E+00
          3   -1    0    0  501    0  0.00000000000E+00  0.00000000000E+00  0.18332203383E+02  0.18332439278E+02  0.93000000000E-01 0.  1.
         -3   -1    0    0    0  501 -0.00000000000E+00 -0.00000000000E+00 -0.21197027117E+02  0.21197231130E+02  0.93000000000E-01 0. -1.
        -13    1    1    2    0    0 -0.12576376799E+02  0.92542485078E+01  0.10631741859E+02  0.18890512864E+02  0.10570000000E+00 0.  1.
         13    1    1    2    0    0  0.12576376799E+02 -0.92542485078E+01 -0.13496565593E+02  0.20639157544E+02  0.10570000000E+00 0. -1.
<mgrwt>
<rscale>  0 0.39425723E+02</rscale>
<asrwt>0</asrwt>
<pdfrwt beam="1">  1        3 0.28203728E-02 0.39425723E+02</pdfrwt>
<pdfrwt beam="2">  1       -3 0.32611149E-02 0.39425723E+02</pdfrwt>
<totfact> 0.35118540E+05</totfact>
</mgrwt>
</event>
<event>
 4    1  0.1802450E-001  0.4178717E+02  0.7818608E-02  0.1495457E+00
          3   -1    0    0  501    0  0.00000000000E+00  0.00000000000E+00  0.67785036132E+01  0.67791415558E+01  0.93000000000E-01 0. -1.
         -3   -1    0    0    0  501 -0.00000000000E+00 -0.00000000000E+00 -0.64397233413E+02  0.64397300567E+02  0.93000000000E-01 0.  1.
        -13    1    1    2    0    0 -0.99924926819E+01  0.10757346301E+02 -0.34901350863E+01  0.15091806547E+02  0.10570000000E+00 0. -1.
         13    1    1    2    0    0  0.99924926819E+01 -0.10757346301E+02 -0.54128594714E+02  0.56084635575E+02  0.10570000000E+00 0.  1.
<mgrwt>
<rscale>  0 0.41787174E+02</rscale>
<asrwt>0</asrwt>
<pdfrwt beam="1">  1        3 0.10429010E-02 0.41787174E+02</pdfrwt>
<pdfrwt beam="2">  1       -3 0.99073205E-02 0.41787174E+02</pdfrwt>
<totfact> 0.27948572E+05</totfact>
</mgrwt>
</event>
<event>
 4    1  0.1802450E-001  0.3686034E+02  0.7818608E-02  0.1532675E+00
          3   -1    0    0  501    0  0.00000000000E+00  0.00000000000E+00  0.11169468966E+02  0.11169856131E+02  0.93000000000E-01 0. -1.
         -3   -1    0    0    0  501 -0.00000000000E+00 -0.00000000000E+00 -0.30409702616E+02  0.30409844823E+02  0.93000000000E-01 0.  1.
        -13    1    1    2    0    0 -0.17362899400E+02 -0.24668758628E+01 -0.32286041510E+01  0.17832296806E+02  0.10570000000E+00 0. -1.
         13    1    1    2    0    0  0.17362899400E+02  0.24668758628E+01 -0.16011629499E+02  0.23747404149E+02  0.10570000000E+00 0.  1.
<mgrwt>
<rscale>  0 0.36860344E+02</rscale>
<asrwt>0</asrwt>
<pdfrwt beam="1">  1        3 0.17184206E-02 0.36860344E+02</pdfrwt>
<pdfrwt beam="2">  1       -3 0.46784565E-02 0.36860344E+02</pdfrwt>
<totfact> 0.41104735E+05</totfact>
</mgrwt>
</event>
<event>
 4    1  0.1802450E-001  0.2413767E+02  0.7818608E-02  0.1673706E+00
          3   -1    0    0  501    0  0.00000000000E+00  0.00000000000E+00  0.35877618700E+02  0.35877739235E+02  0.93000000000E-01 0.  1.
         -3   -1    0    0    0  501 -0.00000000000E+00 -0.00000000000E+00 -0.40591635567E+01  0.40602287842E+01  0.93000000000E-01 0. -1.
        -13    1    1    2    0    0  0.30586438019E+00 -0.11667391687E+02  0.20988591009E+02  0.24015697093E+02  0.10570000000E+00 0.  1.
         13    1    1    2    0    0 -0.30586438019E+00  0.11667391687E+02  0.10829864134E+02  0.15922270926E+02  0.10570000000E+00 0. -1.
<mgrwt>
<rscale>  0 0.24137672E+02</rscale>
<asrwt>0</asrwt>
<pdfrwt beam="1">  1        3 0.55197248E-02 0.24137672E+02</pdfrwt>
<pdfrwt beam="2">  1       -3 0.62457792E-03 0.24137672E+02</pdfrwt>
<totfact> 0.11062005E+06</totfact>
</mgrwt>
</event>
<event>
 4    1  0.1802450E-001  0.2163912E+02  0.7818608E-02  0.1714569E+00
         -3   -1    0    0    0  501 -0.00000000000E+00  0.00000000000E+00  0.49288179986E+01  0.49296953114E+01  0.93000000000E-01 0.  1.
          3   -1    0    0  501    0  0.00000000000E+00 -0.00000000000E+00 -0.23747613354E+02  0.23747795455E+02  0.93000000000E-01 0. -1.
        -13    1    1    2    0    0  0.57493094844E+01 -0.91089045046E+01 -0.80676849206E+01  0.13458284188E+02  0.10570000000E+00 0. -1.
         13    1    1    2    0    0 -0.57493094844E+01  0.91089045046E+01 -0.10751110434E+02  0.15219206579E+02  0.10570000000E+00 0.  1.
<mgrwt>
<rscale>  0 0.21639118E+02</rscale>
<asrwt>0</asrwt>
<pdfrwt beam="2">  1        3 0.36535604E-02 0.21639118E+02</pdfrwt>
<pdfrwt beam="1">  1       -3 0.75836120E-03 0.21639118E+02</pdfrwt>
<totfact> 0.14612529E+06</totfact>
</mgrwt>
</event>
<event>
 4    1  0.1802450E-001  0.3509211E+02  0.7818608E-02  0.1547784E+00
         -3   -1    0    0    0  501 -0.00000000000E+00  0.00000000000E+00  0.99228436527E+01  0.99232794557E+01  0.93000000000E-01 0. -1.
          3   -1    0    0  501    0  0.00000000000E+00 -0.00000000000E+00 -0.31024607042E+02  0.31024746431E+02  0.93000000000E-01 0.  1.
        -13    1    1    2    0    0 -0.15111801692E+02 -0.71942789544E+01 -0.44063550861E+01  0.17307551464E+02  0.10570000000E+00 0.  1.
         13    1    1    2    0    0  0.15111801692E+02  0.71942789544E+01 -0.16695408303E+02  0.23640474423E+02  0.10570000000E+00 0. -1.
<mgrwt>
<rscale>  0 0.35092113E+02</rscale>
<asrwt>0</asrwt>
<pdfrwt beam="2">  1        3 0.47730607E-02 0.35092113E+02</pdfrwt>
<pdfrwt beam="1">  1       -3 0.15266356E-02 0.35092113E+02</pdfrwt>
<totfact> 0.46346823E+05</totfact>
</mgrwt>
</event>
<event>
 4    1  0.1802450E-001  0.5110908E+02  0.7818608E-02  0.1439450E+00
         -3   -1    0    0    0  501 -0.00000000000E+00  0.00000000000E+00  0.41836376414E+01  0.41846711836E+01  0.93000000000E-01 0.  1.
          3   -1    0    0  501    0  0.00000000000E+00 -0.00000000000E+00 -0.15607217179E+03  0.15607219950E+03  0.93000000000E-01 0. -1.
        -13    1    1    2    0    0 -0.24568099275E+02  0.25913340766E+01 -0.96437844589E+02  0.99551873693E+02  0.10570000000E+00 0. -1.
         13    1    1    2    0    0  0.24568099275E+02 -0.25913340766E+01 -0.55450689559E+02  0.60704996989E+02  0.10570000000E+00 0.  1.
<mgrwt>
<rscale>  0 0.51109077E+02</rscale>
<asrwt>0</asrwt>
<pdfrwt beam="2">  1        3 0.24011181E-01 0.51109077E+02</pdfrwt>
<pdfrwt beam="1">  1       -3 0.64371831E-03 0.51109077E+02</pdfrwt>
<totfact> 0.13875639E+05</totfact>
</mgrwt>
</event>
<event>
 4    1  0.1802450E-001  0.2085675E+02  0.7818608E-02  0.1728808E+00
         -3   -1    0    0    0  501 -0.00000000000E+00  0.00000000000E+00  0.26446952904E+02  0.26447116419E+02  0.93000000000E-01 0.  1.
          3   -1    0    0  501    0  0.00000000000E+00 -0.00000000000E+00 -0.41113406118E+01  0.41123923239E+01  0.93000000000E-01 0. -1.
        -13    1    1    2    0    0 -0.10146130914E+02  0.13937221355E+01  0.82915907695E+01  0.13177559861E+02  0.10570000000E+00 0. -1.
         13    1    1    2    0    0  0.10146130914E+02 -0.13937221355E+01  0.14044021522E+02  0.17381948882E+02  0.10570000000E+00 0.  1.
<mgrwt>
<rscale>  0 0.20856749E+02</rscale>
<asrwt>0</asrwt>
<pdfrwt beam="2">  1        3 0.63260743E-03 0.20856749E+02</pdfrwt>
<pdfrwt beam="1">  1       -3 0.40688554E-02 0.20856749E+02</pdfrwt>
<totfact> 0.15738592E+06</totfact>
</mgrwt>
</event>
<event>
 4    1  0.1802450E-001  0.6090453E+02  0.7818608E-02  0.1394075E+00
         -3   -1    0    0    0  501 -0.00000000000E+00  0.00000000000E+00  0.14530981013E+02  0.14531278615E+02  0.93000000000E-01 0. -1.
          3   -1    0    0  501    0  0.00000000000E+00 -0.00000000000E+00 -0.63817179742E+02  0.63817247505E+02  0.93000000000E-01 0.  1.
        -13    1    1    2    0    0  0.45549211024E+01  0.29348234378E+02 -0.33297835673E+02  0.44618641848E+02  0.10570000000E+00 0. -1.
         13    1    1    2    0    0 -0.45549211024E+01 -0.29348234378E+02 -0.15988363056E+02  0.33729884272E+02  0.10570000000E+00 0.  1.
<mgrwt>
<rscale>  0 0.60904533E+02</rscale>
<asrwt>0</asrwt>
<pdfrwt beam="2">  1        3 0.98180556E-02 0.60904533E+02</pdfrwt>
<pdfrwt beam="1">  1       -3 0.22355637E-02 0.60904533E+02</pdfrwt>
<totfact> 0.10626028E+05</totfact>
</mgrwt>
</event>
<event>
 4    1  0.1802450E-001  0.4191781E+02  0.7818608E-02  0.1494555E+00
          3   -1    0    0  501    0  0.00000000000E+00  0.00000000000E+00  0.40195694350E+02  0.40195801936E+02  0.93000000000E-01 0. -1.
         -3   -1    0    0    0  501 -0.00000000000E+00 -0.00000000000E+00 -0.10928108663E+02  0.10928504379E+02  0.93000000000E-01 0.  1.
        -13    1    1    2    0    0  0.81201252752E+01 -0.68348608800E+01  0.36675510602E+02  0.38180571082E+02  0.10570000000E+00 0. -1.
         13    1    1    2    0    0 -0.81201252752E+01  0.68348608800E+01 -0.74079249155E+01  0.12943735233E+02  0.10570000000E+00 0.  1.
<mgrwt>
<rscale>  0 0.41917814E+02</rscale>
<asrwt>0</asrwt>
<pdfrwt beam="1">  1        3 0.61839918E-02 0.41917814E+02</pdfrwt>
<pdfrwt beam="2">  1       -3 0.16812862E-02 0.41917814E+02</pdfrwt>
<totfact> 0.29248709E+05</totfact>
</mgrwt>
</event>
<event>
 4    1  0.1802450E-001  0.2634693E+02  0.7818608E-02  0.1642377E+00
         -3   -1    0    0    0  501 -0.00000000000E+00  0.00000000000E+00  0.23744194274E+01  0.23762400167E+01  0.93000000000E-01 0. -1.
          3   -1    0    0  501    0  0.00000000000E+00 -0.00000000000E+00 -0.73057530106E+02  0.73057589299E+02  0.93000000000E-01 0.  1.
        -13    1    1    2    0    0  0.86451515181E+01  0.76576038696E+01 -0.53483614523E+02  0.54716411950E+02  0.10570000000E+00 0.  1.
         13    1    1    2    0    0 -0.86451515181E+01 -0.76576038696E+01 -0.17199496156E+02  0.20717417366E+02  0.10570000000E+00 0. -1.
<mgrwt>
<rscale>  0 0.26346925E+02</rscale>
<asrwt>0</asrwt>
<pdfrwt beam="2">  1        3 0.11239763E-01 0.26346925E+02</pdfrwt>
<pdfrwt beam="1">  1       -3 0.36543995E-03 0.26346925E+02</pdfrwt>
<totfact> 0.82081234E+05</totfact>
</mgrwt>
</event>
<event>
 4    1  0.1802450E-001  0.3310211E+02  0.7818608E-02  0.1566130E+00
         -3   -1    0    0    0  501 -0.00000000000E+00  0.00000000000E+00  0.17016375115E+02  0.17016629251E+02  0.93000000000E-01 0. -1.
          3   -1    0    0  501    0  0.00000000000E+00 -0.00000000000E+00 -0.16097955383E+02  0.16098224017E+02  0.93000000000E-01 0.  1.
        -13    1    1    2    0    0  0.14769410917E+02 -0.46721941062E+01  0.62890964036E+01  0.16719114889E+02  0.10570000000E+00 0. -1.
         13    1    1    2    0    0 -0.14769410917E+02  0.46721941062E+01 -0.53706766709E+01  0.16395738379E+02  0.10570000000E+00 0.  1.
<mgrwt>
<rscale>  0 0.33102115E+02</rscale>
<asrwt>0</asrwt>
<pdfrwt beam="2">  1        3 0.24766487E-02 0.33102115E+02</pdfrwt>
<pdfrwt beam="1">  1       -3 0.26179441E-02 0.33102115E+02</pdfrwt>
<totfact> 0.54537534E+05</totfact>
</mgrwt>
</event>
<event>
 4    1  0.1802450E-001  0.2494206E+02  0.7818608E-02  0.1661835E+00
          3   -1    0    0  501    0  0.00000000000E+00  0.00000000000E+00  0.61755308412E+01  0.61762310652E+01  0.93000000000E-01 0.  1.
         -3   -1    0    0    0  501 -0.00000000000E+00 -0.00000000000E+00 -0.25182119154E+02  0.25182290882E+02  0.93000000000E-01 0. -1.
        -13    1    1    2    0    0 -0.99099053870E+01  0.74149895504E+01 -0.11421238979E+02  0.16841738839E+02  0.10570000000E+00 0. -1.
         13    1    1    2    0    0  0.99099053870E+01 -0.74149895504E+01 -0.75853493331E+01  0.14516783108E+02  0.10570000000E+00 0.  1.
<mgrwt>
<rscale>  0 0.24942063E+02</rscale>
<asrwt>0</asrwt>
<pdfrwt beam="1">  1        3 0.95014876E-03 0.24942063E+02</pdfrwt>
<pdfrwt beam="2">  1       -3 0.38742392E-02 0.24942063E+02</pdfrwt>
<totfact> 0.10562242E+06</totfact>
</mgrwt>
</event>
<event>
 4    1  0.1802450E-001  0.3109129E+02  0.7818608E-02  0.1586330E+00
          3   -1    0    0  501    0  0.00000000000E+00  0.00000000000E+00  0.16980607785E+02  0.16980862456E+02  0.93000000000E-01 0.  1.
         -3   -1    0    0    0  501 -0.00000000000E+00 -0.00000000000E+00 -0.14231433691E+02  0.14231737557E+02  0.93000000000E-01 0. -1.
        -13    1    1    2    0    0  0.59935389970E+01  0.13414017116E+02 -0.37243611686E+01  0.15157189829E+02  0.10570000000E+00 0.  1.
         13    1    1    2    0    0 -0.59935389970E+01 -0.13414017116E+02  0.64735352634E+01  0.16055410185E+02  0.10570000000E+00 0. -1.
<mgrwt>
<rscale>  0 0.31091292E+02</rscale>
<asrwt>0</asrwt>
<pdfrwt beam="1">  1        3 0.26124441E-02 0.31091292E+02</pdfrwt>
<pdfrwt beam="2">  1       -3 0.21894943E-02 0.31091292E+02</pdfrwt>
<totfact> 0.63616269E+05</totfact>
</mgrwt>
</event>
<event>
 4    1  0.1802450E-001  0.2564000E+02  0.7818608E-02  0.1651976E+00
         -3   -1    0    0    0  501 -0.00000000000E+00  0.00000000000E+00  0.27346044630E+01  0.27361854047E+01  0.93000000000E-01 0. -1.
          3   -1    0    0  501    0  0.00000000000E+00 -0.00000000000E+00 -0.60081987433E+02  0.60082059409E+02  0.93000000000E-01 0.  1.
        -13    1    1    2    0    0  0.81661103632E+01 -0.95305154356E+01 -0.35074330118E+02  0.37252327292E+02  0.10570000000E+00 0. -1.
         13    1    1    2    0    0 -0.81661103632E+01  0.95305154356E+01 -0.22273052852E+02  0.25565917522E+02  0.10570000000E+00 0.  1.
<mgrwt>
<rscale>  0 0.25639999E+02</rscale>
<asrwt>0</asrwt>
<pdfrwt beam="2">  1        3 0.92435088E-02 0.25639999E+02</pdfrwt>
<pdfrwt beam="1">  1       -3 0.42083557E-03 0.25639999E+02</pdfrwt>
<totfact> 0.90316298E+05</totfact>
</mgrwt>
</event>
<event>
 4    1  0.1802450E-001  0.2828279E+02  0.7818608E-02  0.1617884E+00
         -3   -1    0    0    0  501 -0.00000000000E+00  0.00000000000E+00  0.17866542452E+01  0.17890730539E+01  0.93000000000E-01 0.  1.
          3   -1    0    0  501    0  0.00000000000E+00 -0.00000000000E+00 -0.11185121677E+03  0.11185125544E+03  0.93000000000E-01 0. -1.
        -13    1    1    2    0    0 -0.35869283009E+01 -0.13601602102E+02 -0.60852530625E+02  0.62457275720E+02  0.10570000000E+00 0. -1.
         13    1    1    2    0    0  0.35869283009E+01  0.13601602102E+02 -0.49212031904E+02  0.51183052771E+02  0.10570000000E+00 0.  1.
<mgrwt>
<rscale>  0 0.28282792E+02</rscale>
<asrwt>0</asrwt>
<pdfrwt beam="2">  1        3 0.17208063E-01 0.28282792E+02</pdfrwt>
<pdfrwt beam="1">  1       -3 0.27505901E-03 0.28282792E+02</pdfrwt>
<totfact> 0.63558062E+05</totfact>
</mgrwt>
</event>
<event>
 4    1  0.1802450E-001  0.2200423E+02  0.7818608E-02  0.1708179E+00
         -3   -1    0    0    0  501 -0.00000000000E+00  0.00000000000E+00  0.51666551532E+01  0.51674920872E+01  0.93000000000E-01 0. -1.
          3   -1    0    0  501    0  0.00000000000E+00 -0.00000000000E+00 -0.23425591773E+02  0.23425776378E+02  0.93000000000E-01 0.  1.
        -13    1    1    2    0    0  0.10085609405E+02  0.41294695934E+01 -0.11084408382E+02  0.15545009420E+02  0.10570000000E+00 0. -1.
         13    1    1    2    0    0 -0.10085609405E+02 -0.41294695934E+01 -0.71745282372E+01  0.13048259045E+02  0.10570000000E+00 0.  1.
<mgrwt>
<rscale>  0 0.22004232E+02</rscale>
<asrwt>0</asrwt>
<pdfrwt beam="2">  1        3 0.36040157E-02 0.22004232E+02</pdfrwt>
<pdfrwt beam="1">  1       -3 0.79494862E-03 0.22004232E+02</pdfrwt>
<totfact> 0.14089177E+06</totfact>
</mgrwt>
</event>
<event>
 4    1  0.1802450E-001  0.4287069E+02  0.7818608E-02  0.1488090E+00
          3   -1    0    0  501    0  0.00000000000E+00  0.00000000000E+00  0.12236184770E+02  0.12236538184E+02  0.93000000000E-01 0. -1.
         -3   -1    0    0    0  501 -0.00000000000E+00 -0.00000000000E+00 -0.37549470949E+02  0.37549586117E+02  0.93000000000E-01 0.  1.
        -13    1    1    2    0    0 -0.12902455354E+02  0.75147133543E+01  0.52033148213E+01  0.15812334697E+02  0.10570000000E+00 0. -1.
         13    1    1    2    0    0  0.12902455354E+02 -0.75147133543E+01 -0.30516601000E+02  0.33973789604E+02  0.10570000000E+00 0.  1.
<mgrwt>
<rscale>  0 0.42870686E+02</rscale>
<asrwt>0</asrwt>
<pdfrwt beam="1">  1        3 0.18825260E-02 0.42870686E+02</pdfrwt>
<pdfrwt beam="2">  1       -3 0.57768777E-02 0.42870686E+02</pdfrwt>
<totfact> 0.27780172E+05</totfact>
</mgrwt>
</event>
<event>
 4    1  0.1802450E-001  0.2055670E+02  0.7818608E-02  0.1734479E+00
          3   -1    0    0  501    0  0.00000000000E+00  0.00000000000E+00  0.58191544250E+01  0.58198975268E+01  0.93000000000E-01 0.  1.
         -3   -1    0    0    0  501 -0.00000000000E+00 -0.00000000000E+00 -0.18152584547E+02  0.18152822776E+02  0.93000000000E-01 0. -1.
        -13    1    1    2    0    0  0.68274970091E+01 -0.76121615975E+01 -0.73750232717E+01  0.12608007786E+02  0.10570000000E+00 0. -1.
         13    1    1    2    0    0 -0.68274970091E+01  0.76121615975E+01 -0.49584068504E+01  0.11364712516E+02  0.10570000000E+00 0.  1.
<mgrwt>
<rscale>  0 0.20556698E+02</rscale>
<asrwt>0</asrwt>
<pdfrwt beam="1">  1        3 0.89533002E-03 0.20556698E+02</pdfrwt>
<pdfrwt beam="2">  1       -3 0.27927808E-02 0.20556698E+02</pdfrwt>
<totfact> 0.16614487E+06</totfact>
</mgrwt>
</event>
<event>
 4    1  0.1802450E-001  0.3277772E+02  0.7818608E-02  0.1569269E+00
          3   -1    0    0  501    0  0.00000000000E+00  0.00000000000E+00  0.78802099295E+01  0.78807586902E+01  0.93000000000E-01 0. -1.
         -3   -1    0    0    0  501 -0.00000000000E+00 -0.00000000000E+00 -0.34082916521E+02  0.34083043403E+02  0.93000000000E-01 0.  1.
        -13    1    1    2    0    0 -0.14939257972E+02 -0.59337006992E+01 -0.90138917494E+01  0.18429640520E+02  0.10570000000E+00 0. -1.
         13    1    1    2    0    0  0.14939257972E+02  0.59337006992E+01 -0.17188814842E+02  0.23534161573E+02  0.10570000000E+00 0.  1.
<mgrwt>
<rscale>  0 0.32777719E+02</rscale>
<asrwt>0</asrwt>
<pdfrwt beam="1">  1        3 0.12123920E-02 0.32777719E+02</pdfrwt>
<pdfrwt beam="2">  1       -3 0.52435775E-02 0.32777719E+02</pdfrwt>
<totfact> 0.54347003E+05</totfact>
</mgrwt>
</event>
<event>
 4    1  0.1802450E-001  0.2625049E+02  0.7818608E-02  0.1643664E+00
         -3   -1    0    0    0  501 -0.00000000000E+00  0.00000000000E+00  0.19358287515E+01  0.19380613909E+01  0.93000000000E-01 0.  1.
          3   -1    0    0  501    0  0.00000000000E+00 -0.00000000000E+00 -0.88937793805E+02  0.88937842429E+02  0.93000000000E-01 0. -1.
        -13    1    1    2    0    0 -0.11823627412E+02  0.55946371304E+01 -0.39768107036E+02  0.41864204752E+02  0.10570000000E+00 0. -1.
         13    1    1    2    0    0  0.11823627412E+02 -0.55946371304E+01 -0.47233858018E+02  0.49011699068E+02  0.10570000000E+00 0.  1.
<mgrwt>
<rscale>  0 0.26250485E+02</rscale>
<asrwt>0</asrwt>
<pdfrwt beam="2">  1        3 0.13682910E-01 0.26250485E+02</pdfrwt>
<pdfrwt beam="1">  1       -3 0.29799536E-03 0.26250485E+02</pdfrwt>
<totfact> 0.79560408E+05</totfact>
</mgrwt>
</event>
<event>
 4    1  0.1802450E-001  0.2058641E+02  0.7818608E-02  0.1733912E+00
          3   -1    0    0  501    0  0.00000000000E+00  0.00000000000E+00  0.70616160984E+01  0.70622284671E+01  0.93000000000E-01 0. -1.
         -3   -1    0    0    0  501 -0.00000000000E+00 -0.00000000000E+00 -0.15002256357E+02  0.15002544611E+02  0.93000000000E-01 0.  1.
        -13    1    1    2    0    0  0.93171246268E+01  0.43653628139E+01 -0.42613611402E+01  0.11137125979E+02  0.10570000000E+00 0.  1.
         13    1    1    2    0    0 -0.93171246268E+01 -0.43653628139E+01 -0.36792791187E+01  0.10927647100E+02  0.10570000000E+00 0. -1.
<mgrwt>
<rscale>  0 0.20586414E+02</rscale>
<asrwt>0</asrwt>
<pdfrwt beam="1">  1        3 0.10864718E-02 0.20586414E+02</pdfrwt>
<pdfrwt beam="2">  1       -3 0.23081087E-02 0.20586414E+02</pdfrwt>
<totfact> 0.16675131E+06</totfact>
</mgrwt>
</event>
<event>
 4    1  0.1802450E-001  0.2302300E+02  0.7818608E-02  0.1691138E+00
          3   -1    0    0  501    0  0.00000000000E+00  0.00000000000E+00  0.20433149698E+01  0.20454302887E+01  0.93000000000E-01 0. -1.
         -3   -1    0    0    0  501 -0.00000000000E+00 -0.00000000000E+00 -0.64817087353E+02  0.64817154072E+02  0.93000000000E-01 0.  1.
        -13    1    1    2    0    0  0.36288622192E+01  0.10372394578E+02 -0.41341135087E+02  0.42776814199E+02  0.10570000000E+00 0.  1.
         13    1    1    2    0    0 -0.36288622192E+01 -0.10372394578E+02 -0.21432637297E+02  0.24085770161E+02  0.10570000000E+00 0. -1.
<mgrwt>
<rscale>  0 0.23023003E+02</rscale>
<asrwt>0</asrwt>
<pdfrwt beam="1">  1        3 0.31452405E-03 0.23023003E+02</pdfrwt>
<pdfrwt beam="2">  1       -3 0.99720258E-02 0.23023003E+02</pdfrwt>
<totfact> 0.11362631E+06</totfact>
</mgrwt>
</event>
<event>
 4    1  0.1802450E-001  0.2444080E+02  0.7818608E-02  0.1669166E+00
         -3   -1    0    0    0  501 -0.00000000000E+00  0.00000000000E+00  0.76454542433E+02  0.76454598996E+02  0.93000000000E-01 0.  1.
          3   -1    0    0  501    0  0.00000000000E+00 -0.00000000000E+00 -0.19521291228E+01  0.19543431408E+01  0.93000000000E-01 0. -1.
        -13    1    1    2    0    0 -0.11966874079E+02 -0.19979839957E+01  0.41932163591E+02  0.43652211069E+02  0.10570000000E+00 0. -1.
         13    1    1    2    0    0  0.11966874079E+02  0.19979839957E+01  0.32570249719E+02  0.34756731068E+02  0.10570000000E+00 0.  1.
<mgrwt>
<rscale>  0 0.24440798E+02</rscale>
<asrwt>0</asrwt>
<pdfrwt beam="2">  1        3 0.30050217E-03 0.24440798E+02</pdfrwt>
<pdfrwt beam="1">  1       -3 0.11762414E-01 0.24440798E+02</pdfrwt>
<totfact> 0.96480903E+05</totfact>
</mgrwt>
</event>
<event>
 4    1  0.1802450E-001  0.2878204E+02  0.7818608E-02  0.1611955E+00
         -3   -1    0    0    0  501 -0.00000000000E+00  0.00000000000E+00  0.53781300883E+01  0.53789341181E+01  0.93000000000E-01 0. -1.
          3   -1    0    0  501    0  0.00000000000E+00 -0.00000000000E+00 -0.38504335571E+02  0.38504447883E+02  0.93000000000E-01 0.  1.
        -13    1    1    2    0    0  0.82871073957E+01 -0.96690302401E+01 -0.63438866918E+01  0.14227521415E+02  0.10570000000E+00 0. -1.
         13    1    1    2    0    0 -0.82871073957E+01  0.96690302401E+01 -0.26782318791E+02  0.29655860586E+02  0.10570000000E+00 0.  1.
<mgrwt>
<rscale>  0 0.28782038E+02</rscale>
<asrwt>0</asrwt>
<pdfrwt beam="2">  1        3 0.59238142E-02 0.28782038E+02</pdfrwt>
<pdfrwt beam="1">  1       -3 0.82747514E-03 0.28782038E+02</pdfrwt>
<totfact> 0.73240178E+05</totfact>
</mgrwt>
</event>
<event>
 4    1  0.1802450E-001  0.6569424E+02  0.7818608E-02  0.1375379E+00
          3   -1    0    0  501    0  0.00000000000E+00  0.00000000000E+00  0.26822265026E+02  0.26822426253E+02  0.93000000000E-01 0. -1.
         -3   -1    0    0    0  501 -0.00000000000E+00 -0.00000000000E+00 -0.40224952029E+02  0.40225059536E+02  0.93000000000E-01 0.  1.
        -13    1    1    2    0    0 -0.29923781310E+01  0.22466470835E+02  0.17562862123E+02  0.28673366337E+02  0.10570000000E+00 0. -1.
         13    1    1    2    0    0  0.29923781310E+01 -0.22466470835E+02 -0.30965549125E+02  0.38374119453E+02  0.10570000000E+00 0.  1.
<mgrwt>
<rscale>  0 0.65694241E+02</rscale>
<asrwt>0</asrwt>
<pdfrwt beam="1">  1        3 0.41265230E-02 0.65694241E+02</pdfrwt>
<pdfrwt beam="2">  1       -3 0.61884748E-02 0.65694241E+02</pdfrwt>
<totfact> 0.89666860E+04</totfact>
</mgrwt>
</event>
<event>
 4    1  0.1802450E-001  0.2720722E+02  0.7818608E-02  0.1631183E+00
         -3   -1    0    0    0  501 -0.00000000000E+00  0.00000000000E+00  0.18525130352E+02  0.18525363790E+02  0.93000000000E-01 0. -1.
          3   -1    0    0  501    0  0.00000000000E+00 -0.00000000000E+00 -0.99890661237E+01  0.99894990377E+01  0.93000000000E-01 0.  1.
        -13    1    1    2    0    0  0.71545885036E+01 -0.76482857759E+01  0.13366435654E+02  0.16981083197E+02  0.10570000000E+00 0. -1.
         13    1    1    2    0    0 -0.71545885036E+01  0.76482857759E+01 -0.48303714259E+01  0.11533779631E+02  0.10570000000E+00 0.  1.
<mgrwt>
<rscale>  0 0.27207223E+02</rscale>
<asrwt>0</asrwt>
<pdfrwt beam="2">  1        3 0.15368307E-02 0.27207223E+02</pdfrwt>
<pdfrwt beam="1">  1       -3 0.28500713E-02 0.27207223E+02</pdfrwt>
<totfact> 0.87475249E+05</totfact>
</mgrwt>
</event>
<event>
 4    1  0.1802450E-001  0.3025428E+02  0.7818608E-02  0.1595295E+00
          3   -1    0    0  501    0  0.00000000000E+00  0.00000000000E+00  0.73815399885E+01  0.73821258186E+01  0.93000000000E-01 0. -1.
         -3   -1    0    0    0  501 -0.00000000000E+00 -0.00000000000E+00 -0.30998464617E+02  0.30998604124E+02  0.93000000000E-01 0.  1.
        -13    1    1    2    0    0  0.14674025111E+02 -0.10127919376E+01 -0.16287625079E+02  0.21946541041E+02  0.10570000000E+00 0.  1.
         13    1    1    2    0    0 -0.14674025111E+02  0.10127919376E+01 -0.73292995494E+01  0.16434188901E+02  0.10570000000E+00 0. -1.
<mgrwt>
<rscale>  0 0.30254277E+02</rscale>
<asrwt>0</asrwt>
<pdfrwt beam="1">  1        3 0.11356774E-02 0.30254277E+02</pdfrwt>
<pdfrwt beam="2">  1       -3 0.47690503E-02 0.30254277E+02</pdfrwt>
<totfact> 0.66324999E+05</totfact>
</mgrwt>
</event>
<event>
 4    1  0.1802450E-001  0.2215782E+02  0.7818608E-02  0.1705537E+00
          3   -1    0    0  501    0  0.00000000000E+00  0.00000000000E+00  0.12985678294E+02  0.12986011311E+02  0.93000000000E-01 0. -1.
         -3   -1    0    0    0  501 -0.00000000000E+00 -0.00000000000E+00 -0.94514385663E+01  0.94518961046E+01  0.93000000000E-01 0.  1.
        -13    1    1    2    0    0  0.95623282141E+00 -0.10667366340E+02 -0.11013449732E+01  0.10767136067E+02  0.10570000000E+00 0. -1.
         13    1    1    2    0    0 -0.95623282141E+00  0.10667366340E+02  0.46355847012E+01  0.11670771348E+02  0.10570000000E+00 0.  1.
<mgrwt>
<rscale>  0 0.22157817E+02</rscale>
<asrwt>0</asrwt>
<pdfrwt beam="1">  1        3 0.19978575E-02 0.22157817E+02</pdfrwt>
<pdfrwt beam="2">  1       -3 0.14541283E-02 0.22157817E+02</pdfrwt>
<totfact> 0.14174476E+06</totfact>
</mgrwt>
</event>
<event>
 4    1  0.1802450E-001  0.4459330E+02  0.7818608E-02  0.1476897E+00
          3   -1    0    0  501    0  0.00000000000E+00  0.00000000000E+00  0.68557977892E+01  0.68564285402E+01  0.93000000000E-01 0. -1.
         -3   -1    0    0    0  501 -0.00000000000E+00 -0.00000000000E+00 -0.72509900488E+02  0.72509960129E+02  0.93000000000E-01 0.  1.
        -13    1    1    2    0    0 -0.14717052144E+02 -0.68966375588E+01 -0.56613499396E+01  0.17210964210E+02  0.10570000000E+00 0. -1.
         13    1    1    2    0    0  0.14717052144E+02  0.68966375588E+01 -0.59992752760E+02  0.62155424458E+02  0.10570000000E+00 0.  1.
<mgrwt>
<rscale>  0 0.44593300E+02</rscale>
<asrwt>0</asrwt>
<pdfrwt beam="1">  1        3 0.10547913E-02 0.44593300E+02</pdfrwt>
<pdfrwt beam="2">  1       -3 0.11155422E-01 0.44593300E+02</pdfrwt>
<totfact> 0.23328671E+05</totfact>
</mgrwt>
</event>
<event>
 4    1  0.1802450E-001  0.6939467E+02  0.7818608E-02  0.1362164E+00
          3   -1    0    0  501    0  0.00000000000E+00  0.00000000000E+00  0.11199268556E+02  0.11199654691E+02  0.93000000000E-01 0. -1.
         -3   -1    0    0    0  501 -0.00000000000E+00 -0.00000000000E+00 -0.10749628363E+03  0.10749632386E+03  0.93000000000E-01 0.  1.
        -13    1    1    2    0    0 -0.19192800496E+02  0.13360156302E+02 -0.91991949700E+02  0.94917792586E+02  0.10570000000E+00 0.  1.
         13    1    1    2    0    0  0.19192800496E+02 -0.13360156302E+02 -0.43050653726E+01  0.23778185962E+02  0.10570000000E+00 0. -1.
<mgrwt>
<rscale>  0 0.69394670E+02</rscale>
<asrwt>0</asrwt>
<pdfrwt beam="1">  1        3 0.17229973E-02 0.69394670E+02</pdfrwt>
<pdfrwt beam="2">  1       -3 0.16537922E-01 0.69394670E+02</pdfrwt>
<totfact> 0.69065986E+04</totfact>
</mgrwt>
</event>
<event>
 4    1  0.1802450E-001  0.3042275E+02  0.7818608E-02  0.1593462E+00
          3   -1    0    0  501    0  0.00000000000E+00  0.00000000000E+00  0.74654245744E+02  0.74654303671E+02  0.93000000000E-01 0. -1.
         -3   -1    0    0    0  501 -0.00000000000E+00 -0.00000000000E+00 -0.30986767341E+01  0.31000720157E+01  0.93000000000E-01 0.  1.
        -13    1    1    2    0    0 -0.10757002916E+02  0.41045407488E+01  0.10371778652E+02  0.15496623225E+02  0.10570000000E+00 0.  1.
         13    1    1    2    0    0  0.10757002916E+02 -0.41045407488E+01  0.61183790358E+02  0.62257752461E+02  0.10570000000E+00 0. -1.
<mgrwt>
<rscale>  0 0.30422746E+02</rscale>
<asrwt>0</asrwt>
<pdfrwt beam="1">  1        3 0.11485380E-01 0.30422746E+02</pdfrwt>
<pdfrwt beam="2">  1       -3 0.47683130E-03 0.30422746E+02</pdfrwt>
<totfact> 0.58641563E+05</totfact>
</mgrwt>
</event>
<event>
 4    1  0.1802450E-001  0.3549319E+02  0.7818608E-02  0.1544264E+00
         -3   -1    0    0    0  501 -0.00000000000E+00  0.00000000000E+00  0.25484713822E+01  0.25501677172E+01  0.93000000000E-01 0.  1.
          3   -1    0    0  501    0  0.00000000000E+00 -0.00000000000E+00 -0.12353774703E+03  0.12353778203E+03  0.93000000000E-01 0. -1.
        -13    1    1    2    0    0 -0.80036252211E+01 -0.15209131423E+02 -0.76203839704E+02  0.78117936823E+02  0.10570000000E+00 0. -1.
         13    1    1    2    0    0  0.80036252211E+01  0.15209131423E+02 -0.44785435939E+02  0.47970012925E+02  0.10570000000E+00 0.  1.
<mgrwt>
<rscale>  0 0.35493186E+02</rscale>
<asrwt>0</asrwt>
<pdfrwt beam="2">  1        3 0.19005936E-01 0.35493186E+02</pdfrwt>
<pdfrwt beam="1">  1       -3 0.39220580E-03 0.35493186E+02</pdfrwt>
<totfact> 0.36360953E+05</totfact>
</mgrwt>
</event>
<event>
 4    1  0.1802450E-001  0.5629267E+02  0.7818608E-02  0.1414083E+00
         -3   -1    0    0    0  501 -0.00000000000E+00  0.00000000000E+00  0.48048181708E+01  0.48057181206E+01  0.93000000000E-01 0.  1.
          3   -1    0    0  501    0  0.00000000000E+00 -0.00000000000E+00 -0.16486318290E+03  0.16486320913E+03  0.93000000000E-01 0. -1.
        -13    1    1    2    0    0  0.13179672380E+02 -0.23968819370E+02 -0.10002143578E+03  0.10369429519E+03  0.10570000000E+00 0. -1.
         13    1    1    2    0    0 -0.13179672380E+02  0.23968819370E+02 -0.60036928945E+02  0.65974632061E+02  0.10570000000E+00 0.  1.
<mgrwt>
<rscale>  0 0.56292671E+02</rscale>
<asrwt>0</asrwt>
<pdfrwt beam="2">  1        3 0.25363633E-01 0.56292671E+02</pdfrwt>
<pdfrwt beam="1">  1       -3 0.73927417E-03 0.56292671E+02</pdfrwt>
<totfact> 0.10670116E+05</totfact>
</mgrwt>
</event>
<event>
 4    1  0.1802450E-001  0.3380038E+02  0.7818608E-02  0.1559519E+00
          3   -1    0    0  501    0  0.00000000000E+00  0.00000000000E+00  0.77997598605E+02  0.77997654049E+02  0.93000000000E-01 0.  1.
         -3   -1    0    0    0  501 -0.00000000000E+00 -0.00000000000E+00 -0.36612141775E+01  0.36623951526E+01  0.93000000000E-01 0. -1.
        -13    1    1    2    0    0  0.12641381216E+02 -0.38875036742E+01  0.11750367319E+02  0.17691792122E+02  0.10570000000E+00 0. -1.
         13    1    1    2    0    0 -0.12641381216E+02  0.38875036742E+01  0.62586017109E+02  0.63968257080E+02  0.10570000000E+00 0.  1.
<mgrwt>
<rscale>  0 0.33800378E+02</rscale>
<asrwt>0</asrwt>
<pdfrwt beam="1">  1        3 0.11999725E-01 0.33800378E+02</pdfrwt>
<pdfrwt beam="2">  1       -3 0.56335887E-03 0.33800378E+02</pdfrwt>
<totfact> 0.45350885E+05</totfact>
</mgrwt>
</event>
<event>
 4    1  0.1802450E-001  0.7484086E+02  0.7818608E-02  0.1344365E+00
         -3   -1    0    0    0  501 -0.00000000000E+00  0.00000000000E+00  0.69286273736E+02  0.69286336151E+02  0.93000000000E-01 0. -1.
          3   -1    0    0  501    0  0.00000000000E+00 -0.00000000000E+00 -0.20210007279E+02  0.20210221256E+02  0.93000000000E-01 0.  1.
        -13    1    1    2    0    0 -0.33351238749E+02  0.98540048339E+01  0.80170973597E+01  0.35688815614E+02  0.10570000000E+00 0.  1.
         13    1    1    2    0    0  0.33351238749E+02 -0.98540048339E+01  0.41059169097E+02  0.53807741793E+02  0.10570000000E+00 0. -1.
<mgrwt>
<rscale>  0 0.74840857E+02</rscale>
<asrwt>0</asrwt>
<pdfrwt beam="2">  1        3 0.31092532E-02 0.74840857E+02</pdfrwt>
<pdfrwt beam="1">  1       -3 0.10659448E-01 0.74840857E+02</pdfrwt>
<totfact> 0.60335074E+04</totfact>
</mgrwt>
</event>
<event>
 4    1  0.1802450E-001  0.3139852E+02  0.7818608E-02  0.1583125E+00
         -3   -1    0    0    0  501 -0.00000000000E+00  0.00000000000E+00  0.45660300912E+01  0.45669770958E+01  0.93000000000E-01 0. -1.
          3   -1    0    0  501    0  0.00000000000E+00 -0.00000000000E+00 -0.53971758246E+02  0.53971838371E+02  0.93000000000E-01 0.  1.
        -13    1    1    2    0    0 -0.81869066252E+01  0.13136494717E+02 -0.19818814634E+02  0.25147356114E+02  0.10570000000E+00 0. -1.
         13    1    1    2    0    0  0.81869066252E+01 -0.13136494717E+02 -0.29586913520E+02  0.33391459353E+02  0.10570000000E+00 0.  1.
<mgrwt>
<rscale>  0 0.31398518E+02</rscale>
<asrwt>0</asrwt>
<pdfrwt beam="2">  1        3 0.83034260E-02 0.31398518E+02</pdfrwt>
<pdfrwt beam="1">  1       -3 0.70254522E-03 0.31398518E+02</pdfrwt>
<totfact> 0.57342855E+05</totfact>
</mgrwt>
</event>
<event>
 4    1  0.1802450E-001  0.6918750E+02  0.7818608E-02  0.1362878E+00
         -3   -1    0    0    0  501 -0.00000000000E+00  0.00000000000E+00  0.71717393607E+01  0.71723423272E+01  0.93000000000E-01 0.  1.
          3   -1    0    0  501    0  0.00000000000E+00 -0.00000000000E+00 -0.16685948533E+03  0.16685951124E+03  0.93000000000E-01 0. -1.
        -13    1    1    2    0    0  0.16698072348E+02  0.24618693011E+02 -0.35427143695E+02  0.46260126984E+02  0.10570000000E+00 0.  1.
         13    1    1    2    0    0 -0.16698072348E+02 -0.24618693011E+02 -0.12426060227E+03  0.12777172659E+03  0.10570000000E+00 0. -1.
<mgrwt>
<rscale>  0 0.69187498E+02</rscale>
<asrwt>0</asrwt>
<pdfrwt beam="2">  1        3 0.25670735E-01 0.69187498E+02</pdfrwt>
<pdfrwt beam="1">  1       -3 0.11033930E-02 0.69187498E+02</pdfrwt>
<totfact> 0.62214441E+04</totfact>
</mgrwt>
</event>
<event>
 4    1  0.1802450E-001  0.2939367E+02  0.7818608E-02  0.1604889E+00
          3   -1    0    0  501    0  0.00000000000E+00  0.00000000000E+00  0.52756963231E+01  0.52765159617E+01  0.93000000000E-01 0. -1.
         -3   -1    0    0    0  501 -0.00000000000E+00 -0.00000000000E+00 -0.40937845771E+02  0.40937951406E+02  0.93000000000E-01 0.  1.
        -13    1    1    2    0    0  0.14425334304E+02 -0.16656382006E+01 -0.21389117847E+02  0.25852855841E+02  0.10570000000E+00 0.  1.
         13    1    1    2    0    0 -0.14425334304E+02  0.16656382006E+01 -0.14273031601E+02  0.20361611527E+02  0.10570000000E+00 0. -1.
<mgrwt>
<rscale>  0 0.29393674E+02</rscale>
<asrwt>0</asrwt>
<pdfrwt beam="1">  1        3 0.81171679E-03 0.29393674E+02</pdfrwt>
<pdfrwt beam="2">  1       -3 0.62982011E-02 0.29393674E+02</pdfrwt>
<totfact> 0.69292836E+05</totfact>
</mgrwt>
</event>
<event>
 4    1  0.1802450E-001  0.2082278E+02  0.7818608E-02  0.1729444E+00
         -3   -1    0    0    0  501 -0.00000000000E+00  0.00000000000E+00  0.65685771017E+01  0.65692354305E+01  0.93000000000E-01 0. -1.
          3   -1    0    0  501    0  0.00000000000E+00 -0.00000000000E+00 -0.16500745221E+02  0.16501007298E+02  0.93000000000E-01 0.  1.
        -13    1    1    2    0    0 -0.45402880826E+01 -0.91220490573E+01 -0.73319467701E+01  0.12553669217E+02  0.10570000000E+00 0. -1.
         13    1    1    2    0    0  0.45402880826E+01  0.91220490573E+01 -0.26002213496E+01  0.10516573512E+02  0.10570000000E+00 0.  1.
<mgrwt>
<rscale>  0 0.20822779E+02</rscale>
<asrwt>0</asrwt>
<pdfrwt beam="2">  1        3 0.25386470E-02 0.20822779E+02</pdfrwt>
<pdfrwt beam="1">  1       -3 0.10106211E-02 0.20822779E+02</pdfrwt>
<totfact> 0.16206717E+06</totfact>
</mgrwt>
</event>
<event>
 4    1  0.1802450E-001  0.4784299E+02  0.7818608E-02  0.1457336E+00
         -3   -1    0    0    0  501 -0.00000000000E+00  0.00000000000E+00  0.11101603314E+03  0.11101607209E+03  0.93000000000E-01 0.  1.
          3   -1    0    0  501    0  0.00000000000E+00 -0.00000000000E+00 -0.51540932726E+01  0.51549322462E+01  0.93000000000E-01 0. -1.
        -13    1    1    2    0    0  0.40145389390E+01  0.22397550083E+02  0.70850160227E+02  0.74414535874E+02  0.10570000000E+00 0. -1.
         13    1    1    2    0    0 -0.40145389390E+01 -0.22397550083E+02  0.35011779636E+02  0.41756468462E+02  0.10570000000E+00 0.  1.
<mgrwt>
<rscale>  0 0.47842993E+02</rscale>
<asrwt>0</asrwt>
<pdfrwt beam="2">  1        3 0.79300501E-03 0.47842993E+02</pdfrwt>
<pdfrwt beam="1">  1       -3 0.17079456E-01 0.47842993E+02</pdfrwt>
<totfact> 0.17969677E+05</totfact>
</mgrwt>
</event>
<event>
 4    1  0.1802450E-001  0.3098290E+02  0.7818608E-02  0.1587471E+00
          3   -1    0    0  501    0  0.00000000000E+00  0.00000000000E+00  0.27569215518E+01  0.27584897032E+01  0.93000000000E-01 0.  1.
         -3   -1    0    0    0  501 -0.00000000000E+00 -0.00000000000E+00 -0.87021830635E+02  0.87021880329E+02  0.93000000000E-01 0. -1.
        -13    1    1    2    0    0 -0.13811703286E+02 -0.42774006766E+01 -0.26020785491E+02  0.29768301165E+02  0.10570000000E+00 0.  1.
         13    1    1    2    0    0  0.13811703286E+02  0.42774006766E+01 -0.58244123592E+02  0.60012068867E+02  0.10570000000E+00 0. -1.
<mgrwt>
<rscale>  0 0.30982898E+02</rscale>
<asrwt>0</asrwt>
<pdfrwt beam="1">  1        3 0.42426629E-03 0.30982898E+02</pdfrwt>
<pdfrwt beam="2">  1       -3 0.13388096E-01 0.30982898E+02</pdfrwt>
<totfact> 0.54525400E+05</totfact>
</mgrwt>
</event>
<event>
 4    1  0.1802450E-001  0.2918282E+02  0.7818608E-02  0.1607301E+00
          3   -1    0    0  501    0  0.00000000000E+00  0.00000000000E+00  0.32462137446E+02  0.32462270662E+02  0.93000000000E-01 0. -1.
         -3   -1    0    0    0  501 -0.00000000000E+00 -0.00000000000E+00 -0.65582167130E+01  0.65588760817E+01  0.93000000000E-01 0.  1.
        -13    1    1    2    0    0 -0.21560332854E+01  0.11987847105E+02  0.23694102363E+02  0.26641670687E+02  0.10570000000E+00 0. -1.
         13    1    1    2    0    0  0.21560332854E+01 -0.11987847105E+02  0.22098183704E+01  0.12379476057E+02  0.10570000000E+00 0.  1.
<mgrwt>
<rscale>  0 0.29182817E+02</rscale>
<asrwt>0</asrwt>
<pdfrwt beam="1">  1        3 0.49942359E-02 0.29182817E+02</pdfrwt>
<pdfrwt beam="2">  1       -3 0.10090174E-02 0.29182817E+02</pdfrwt>
<totfact> 0.71987106E+05</totfact>
</mgrwt>
</event>
<event>
 4    1  0.1802450E-001  0.3925074E+02  0.7818608E-02  0.1513799E+00
         -3   -1    0    0    0  501 -0.00000000000E+00  0.00000000000E+00  0.57967459687E+02  0.57967534289E+02  0.93000000000E-01 0.  1.
          3   -1    0    0  501    0  0.00000000000E+00 -0.00000000000E+00 -0.66439310255E+01  0.66445818884E+01  0.93000000000E-01 0. -1.
        -13    1    1    2    0    0  0.16400223309E+02 -0.94304813077E+00  0.79868631846E+01  0.18266302866E+02  0.10570000000E+00 0. -1.
         13    1    1    2    0    0 -0.16400223309E+02  0.94304813077E+00  0.43336665477E+02  0.46345813311E+02  0.10570000000E+00 0.  1.
<mgrwt>
<rscale>  0 0.39250745E+02</rscale>
<asrwt>0</asrwt>
<pdfrwt beam="2">  1        3 0.10221990E-02 0.39250745E+02</pdfrwt>
<pdfrwt beam="1">  1       -3 0.89181265E-02 0.39250745E+02</pdfrwt>
<totfact> 0.33119120E+05</totfact>
</mgrwt>
</event>
<event>
 4    1  0.1802450E-001  0.2778556E+02  0.7818608E-02  0.1623941E+00
         -3   -1    0    0    0  501 -0.00000000000E+00  0.00000000000E+00  0.67768885388E+02  0.67768949201E+02  0.93000000000E-01 0.  1.
          3   -1    0    0  501    0  0.00000000000E+00 -0.00000000000E+00 -0.28472289016E+01  0.28487473419E+01  0.93000000000E-01 0. -1.
        -13    1    1    2    0    0 -0.12207280168E+02 -0.64973210598E+01  0.29083990749E+02  0.32204387286E+02  0.10570000000E+00 0. -1.
         13    1    1    2    0    0  0.12207280168E+02  0.64973210598E+01  0.35837665738E+02  0.38413309257E+02  0.10570000000E+00 0.  1.
<mgrwt>
<rscale>  0 0.27785564E+02</rscale>
<asrwt>0</asrwt>
<pdfrwt beam="2">  1        3 0.43815692E-03 0.27785564E+02</pdfrwt>
<pdfrwt beam="1">  1       -3 0.10426104E-01 0.27785564E+02</pdfrwt>
<totfact> 0.73664290E+05</totfact>
</mgrwt>
</event>
<event>
 4    1  0.1802450E-001  0.3987424E+02  0.7818608E-02  0.1509139E+00
          3   -1    0    0  501    0  0.00000000000E+00  0.00000000000E+00  0.48477828748E+01  0.48486748501E+01  0.93000000000E-01 0.  1.
         -3   -1    0    0    0  501 -0.00000000000E+00 -0.00000000000E+00 -0.81985467788E+02  0.81985520535E+02  0.93000000000E-01 0. -1.
        -13    1    1    2    0    0  0.89942846944E+01  0.15095022903E+02 -0.18056706645E+02  0.25195489695E+02  0.10570000000E+00 0.  1.
         13    1    1    2    0    0 -0.89942846944E+01 -0.15095022903E+02 -0.59080978268E+02  0.61638705690E+02  0.10570000000E+00 0. -1.
<mgrwt>
<rscale>  0 0.39874240E+02</rscale>
<asrwt>0</asrwt>
<pdfrwt beam="1">  1        3 0.74588548E-03 0.39874240E+02</pdfrwt>
<pdfrwt beam="2">  1       -3 0.12613221E-01 0.39874240E+02</pdfrwt>
<totfact> 0.30126018E+05</totfact>
</mgrwt>
</event>
<event>
 4    1  0.1802450E-001  0.2446660E+02  0.7818608E-02  0.1668784E+00
          3   -1    0    0  501    0  0.00000000000E+00  0.00000000000E+00  0.61020538822E+01  0.61027625369E+01  0.93000000000E-01 0.  1.
         -3   -1    0    0    0  501 -0.00000000000E+00 -0.00000000000E+00 -0.24522895205E+02  0.24523071550E+02  0.93000000000E-01 0. -1.
        -13    1    1    2    0    0  0.85548802344E+01  0.62180999886E+01 -0.15153540875E+01  0.10684484723E+02  0.10570000000E+00 0.  1.
         13    1    1    2    0    0 -0.85548802344E+01 -0.62180999886E+01 -0.16905487235E+02  0.19941349364E+02  0.10570000000E+00 0. -1.
<mgrwt>
<rscale>  0 0.24466596E+02</rscale>
<asrwt>0</asrwt>
<pdfrwt beam="1">  1        3 0.93884561E-03 0.24466596E+02</pdfrwt>
<pdfrwt beam="2">  1       -3 0.37728211E-02 0.24466596E+02</pdfrwt>
<totfact> 0.11057251E+06</totfact>
</mgrwt>
</event>
<event>
 4    1  0.1802450E-001  0.2787463E+02  0.7818608E-02  0.1622844E+00
          3   -1    0    0  501    0  0.00000000000E+00  0.00000000000E+00  0.18758266579E+01  0.18781306266E+01  0.93000000000E-01 0. -1.
         -3   -1    0    0    0  501 -0.00000000000E+00 -0.00000000000E+00 -0.10348780155E+03  0.10348784334E+03  0.93000000000E-01 0.  1.
        -13    1    1    2    0    0 -0.33354385118E+01  0.12139131622E+02 -0.73408310883E+02  0.74480030517E+02  0.10570000000E+00 0. -1.
         13    1    1    2    0    0  0.33354385118E+01 -0.12139131622E+02 -0.28203664008E+02  0.30885943447E+02  0.10570000000E+00 0.  1.
<mgrwt>
<rscale>  0 0.27874631E+02</rscale>
<asrwt>0</asrwt>
<pdfrwt beam="1">  1        3 0.28876924E-03 0.27874631E+02</pdfrwt>
<pdfrwt beam="2">  1       -3 0.15921376E-01 0.27874631E+02</pdfrwt>
<totfact> 0.67009023E+05</totfact>
</mgrwt>
</event>
<event>
 4    1  0.1802450E-001  0.3647545E+02  0.7818608E-02  0.1535875E+00
          3   -1    0    0  501    0  0.00000000000E+00  0.00000000000E+00  0.72040063126E+01  0.72046065785E+01  0.93000000000E-01 0. -1.
         -3   -1    0    0    0  501 -0.00000000000E+00 -0.00000000000E+00 -0.46168217085E+02  0.46168310754E+02  0.93000000000E-01 0.  1.
        -13    1    1    2    0    0 -0.98108056848E+01 -0.51140257486E+01  0.17324955887E+01  0.11199012501E+02  0.10570000000E+00 0. -1.
         13    1    1    2    0    0  0.98108056848E+01  0.51140257486E+01 -0.40696706362E+02  0.42173904831E+02  0.10570000000E+00 0.  1.
<mgrwt>
<rscale>  0 0.36475452E+02</rscale>
<asrwt>0</asrwt>
<pdfrwt beam="1">  1        3 0.11083621E-02 0.36475452E+02</pdfrwt>
<pdfrwt beam="2">  1       -3 0.71028558E-02 0.36475452E+02</pdfrwt>
<totfact> 0.40766060E+05</totfact>
</mgrwt>
</event>
<event>
 4    1  0.1802450E-001  0.4728381E+02  0.7818608E-02  0.1460568E+00
          3   -1    0    0  501    0  0.00000000000E+00  0.00000000000E+00  0.12441723066E+02  0.12442070642E+02  0.93000000000E-01 0. -1.
         -3   -1    0    0    0  501 -0.00000000000E+00 -0.00000000000E+00 -0.44923589381E+02  0.44923685644E+02  0.93000000000E-01 0.  1.
        -13    1    1    2    0    0  0.13447510032E+02 -0.14408131285E+02 -0.39927068718E+00  0.19712949114E+02  0.10570000000E+00 0. -1.
         13    1    1    2    0    0 -0.13447510032E+02  0.14408131285E+02 -0.32082595627E+02  0.37652807171E+02  0.10570000000E+00 0.  1.
<mgrwt>
<rscale>  0 0.47283806E+02</rscale>
<asrwt>0</asrwt>
<pdfrwt beam="1">  1        3 0.19141454E-02 0.47283806E+02</pdfrwt>
<pdfrwt beam="2">  1       -3 0.69113555E-02 0.47283806E+02</pdfrwt>
<totfact> 0.21330039E+05</totfact>
</mgrwt>
</event>
<event>
 4    1  0.1802450E-001  0.9156377E+02  0.7818608E-02  0.1299108E+00
          3   -1    0    0  501    0  0.00000000000E+00  0.00000000000E+00  0.20037116508E+03  0.20037118666E+03  0.93000000000E-01 0. -1.
         -3   -1    0    0    0  501 -0.00000000000E+00 -0.00000000000E+00 -0.10460263773E+02  0.10460677186E+02  0.93000000000E-01 0.  1.
        -13    1    1    2    0    0  0.41056417389E+02  0.10652432813E+02  0.13462825863E+03  0.14115198521E+03  0.10570000000E+00 0. -1.
         13    1    1    2    0    0 -0.41056417389E+02 -0.10652432813E+02  0.55282642676E+02  0.69679878641E+02  0.10570000000E+00 0.  1.
<mgrwt>
<rscale>  0 0.91563772E+02</rscale>
<asrwt>0</asrwt>
<pdfrwt beam="1">  1        3 0.30826363E-01 0.91563772E+02</pdfrwt>
<pdfrwt beam="2">  1       -3 0.16093050E-02 0.91563772E+02</pdfrwt>
<totfact> 0.27630262E+04</totfact>
</mgrwt>
</event>
<event>
 4    1  0.1802450E-001  0.3987806E+02  0.7818608E-02  0.1509111E+00
         -3   -1    0    0    0  501 -0.00000000000E+00  0.00000000000E+00  0.53091807604E+02  0.53091889057E+02  0.93000000000E-01 0. -1.
          3   -1    0    0  501    0  0.00000000000E+00 -0.00000000000E+00 -0.74878791420E+01  0.74884566531E+01  0.93000000000E-01 0.  1.
        -13    1    1    2    0    0  0.10341928681E+02  0.25314896656E+01  0.48411517228E+02  0.49568640304E+02  0.10570000000E+00 0. -1.
         13    1    1    2    0    0 -0.10341928681E+02 -0.25314896656E+01 -0.28075887663E+01  0.11011705406E+02  0.10570000000E+00 0.  1.
<mgrwt>
<rscale>  0 0.39878064E+02</rscale>
<asrwt>0</asrwt>
<pdfrwt beam="2">  1        3 0.11520321E-02 0.39878064E+02</pdfrwt>
<pdfrwt beam="1">  1       -3 0.81680212E-02 0.39878064E+02</pdfrwt>
<totfact> 0.32208634E+05</totfact>
</mgrwt>
</event>
<event>
 4    1  0.1802450E-001  0.2121362E+02  0.7818608E-02  0.1722218E+00
          3   -1    0    0  501    0  0.00000000000E+00  0.00000000000E+00  0.37840251056E+01  0.37851677638E+01  0.93000000000E-01 0.  1.
         -3   -1    0    0    0  501 -0.00000000000E+00 -0.00000000000E+00 -0.29725710624E+02  0.29725856103E+02  0.93000000000E-01 0. -1.
        -13    1    1    2    0    0  0.56615551823E+01  0.84362470385E+01 -0.81612589203E+01  0.13032297987E+02  0.10570000000E+00 0. -1.
         13    1    1    2    0    0 -0.56615551823E+01 -0.84362470385E+01 -0.17780426598E+02  0.20478725880E+02  0.10570000000E+00 0.  1.
<mgrwt>
<rscale>  0 0.21213620E+02</rscale>
<asrwt>0</asrwt>
<pdfrwt beam="1">  1        3 0.58225682E-03 0.21213620E+02</pdfrwt>
<pdfrwt beam="2">  1       -3 0.45732852E-02 0.21213620E+02</pdfrwt>
<totfact> 0.15019380E+06</totfact>
</mgrwt>
</event>
<event>
 4    1  0.1802450E-001  0.4429780E+02  0.7818608E-02  0.1478774E+00
          3   -1    0    0  501    0  0.00000000000E+00  0.00000000000E+00  0.65442960977E+01  0.65449568688E+01  0.93000000000E-01 0. -1.
         -3   -1    0    0    0  501 -0.00000000000E+00 -0.00000000000E+00 -0.74957557447E+02  0.74957615139E+02  0.93000000000E-01 0.  1.
        -13    1    1    2    0    0  0.14787315226E+02  0.50863306419E+01 -0.63065589157E+02  0.64975496606E+02  0.10570000000E+00 0.  1.
         13    1    1    2    0    0 -0.14787315226E+02 -0.50863306419E+01 -0.53476721923E+01  0.16527075402E+02  0.10570000000E+00 0. -1.
<mgrwt>
<rscale>  0 0.44297798E+02</rscale>
<asrwt>0</asrwt>
<pdfrwt beam="1">  1        3 0.10068701E-02 0.44297798E+02</pdfrwt>
<pdfrwt beam="2">  1       -3 0.11531987E-01 0.44297798E+02</pdfrwt>
<totfact> 0.23590994E+05</totfact>
</mgrwt>
</event>
<event>
 4    1  0.1802450E-001  0.2057219E+02  0.7818608E-02  0.1734183E+00
          3   -1    0    0  501    0  0.00000000000E+00  0.00000000000E+00  0.21657974362E+01  0.21677932407E+01  0.93000000000E-01 0.  1.
         -3   -1    0    0    0  501 -0.00000000000E+00 -0.00000000000E+00 -0.48827571268E+02  0.48827659835E+02  0.93000000000E-01 0. -1.
        -13    1    1    2    0    0 -0.84628428778E+01 -0.55971067589E+01 -0.19149561116E+02  0.21671736826E+02  0.10570000000E+00 0.  1.
         13    1    1    2    0    0  0.84628428778E+01  0.55971067589E+01 -0.27512212716E+02  0.29323716249E+02  0.10570000000E+00 0. -1.
<mgrwt>
<rscale>  0 0.20572192E+02</rscale>
<asrwt>0</asrwt>
<pdfrwt beam="1">  1        3 0.33335998E-03 0.20572192E+02</pdfrwt>
<pdfrwt beam="2">  1       -3 0.75120935E-02 0.20572192E+02</pdfrwt>
<totfact> 0.15207315E+06</totfact>
</mgrwt>
</event>
<event>
 4    1  0.1802450E-001  0.2998537E+02  0.7818608E-02  0.1598250E+00
         -3   -1    0    0    0  501 -0.00000000000E+00  0.00000000000E+00  0.76339472389E+02  0.76339529038E+02  0.93000000000E-01 0.  1.
          3   -1    0    0  501    0  0.00000000000E+00 -0.00000000000E+00 -0.29436949752E+01  0.29451636808E+01  0.93000000000E-01 0. -1.
        -13    1    1    2    0    0  0.73314252718E+01 -0.13049897756E+02  0.38941163680E+02  0.41719000817E+02  0.10570000000E+00 0.  1.
         13    1    1    2    0    0 -0.73314252718E+01  0.13049897756E+02  0.34454613734E+02  0.37565691901E+02  0.10570000000E+00 0. -1.
<mgrwt>
<rscale>  0 0.29985369E+02</rscale>
<asrwt>0</asrwt>
<pdfrwt beam="2">  1        3 0.45299346E-03 0.29985369E+02</pdfrwt>
<pdfrwt beam="1">  1       -3 0.11744652E-01 0.29985369E+02</pdfrwt>
<totfact> 0.60421199E+05</totfact>
</mgrwt>
</event>
<event>
 4    1  0.1802450E-001  0.2873023E+02  0.7818608E-02  0.1612564E+00
         -3   -1    0    0    0  501 -0.00000000000E+00  0.00000000000E+00  0.32573188864E+01  0.32586462416E+01  0.93000000000E-01 0. -1.
          3   -1    0    0  501    0  0.00000000000E+00 -0.00000000000E+00 -0.63337399050E+02  0.63337467328E+02  0.93000000000E-01 0.  1.
        -13    1    1    2    0    0  0.86295094688E+01  0.11479296614E+02 -0.29297126194E+02  0.32627832600E+02  0.10570000000E+00 0.  1.
         13    1    1    2    0    0 -0.86295094688E+01 -0.11479296614E+02 -0.30782953970E+02  0.33968280970E+02  0.10570000000E+00 0. -1.
<mgrwt>
<rscale>  0 0.28730233E+02</rscale>
<asrwt>0</asrwt>
<pdfrwt beam="2">  1        3 0.97443217E-02 0.28730233E+02</pdfrwt>
<pdfrwt beam="1">  1       -3 0.50123339E-03 0.28730233E+02</pdfrwt>
<totfact> 0.68954514E+05</totfact>
</mgrwt>
</event>
<event>
 4    1  0.1802450E-001  0.2252108E+02  0.7818608E-02  0.1699393E+00
         -3   -1    0    0    0  501 -0.00000000000E+00  0.00000000000E+00  0.62163437272E+02  0.62163506839E+02  0.93000000000E-01 0.  1.
          3   -1    0    0  501    0  0.00000000000E+00 -0.00000000000E+00 -0.20386493053E+01  0.20407694602E+01  0.93000000000E-01 0. -1.
        -13    1    1    2    0    0  0.91381751495E+01 -0.59859240478E+01  0.22280538716E+02  0.24814735738E+02  0.10570000000E+00 0. -1.
         13    1    1    2    0    0 -0.91381751495E+01  0.59859240478E+01  0.37844249251E+02  0.39389540561E+02  0.10570000000E+00 0.  1.
<mgrwt>
<rscale>  0 0.22521078E+02</rscale>
<asrwt>0</asrwt>
<pdfrwt beam="2">  1        3 0.31380681E-03 0.22521078E+02</pdfrwt>
<pdfrwt beam="1">  1       -3 0.95637738E-02 0.22521078E+02</pdfrwt>
<totfact> 0.12016463E+06</totfact>
</mgrwt>
</event>
<event>
 4    1  0.1802450E-001  0.3121615E+02  0.7818608E-02  0.1585022E+00
          3   -1    0    0  501    0  0.00000000000E+00  0.00000000000E+00  0.10901935185E+02  0.10902331851E+02  0.93000000000E-01 0.  1.
         -3   -1    0    0    0  501 -0.00000000000E+00 -0.00000000000E+00 -0.22344862206E+02  0.22345055739E+02  0.93000000000E-01 0. -1.
        -13    1    1    2    0    0 -0.11448847616E+02  0.95025488491E+01 -0.10742715813E+02  0.18351884423E+02  0.10570000000E+00 0. -1.
         13    1    1    2    0    0  0.11448847616E+02 -0.95025488491E+01 -0.70021120742E+00  0.14895503166E+02  0.10570000000E+00 0.  1.
<mgrwt>
<rscale>  0 0.31216153E+02</rscale>
<asrwt>0</asrwt>
<pdfrwt beam="1">  1        3 0.16772662E-02 0.31216153E+02</pdfrwt>
<pdfrwt beam="2">  1       -3 0.34377165E-02 0.31216153E+02</pdfrwt>
<totfact> 0.62617616E+05</totfact>
</mgrwt>
</event>
<event>
 4    1  0.1802450E-001  0.2347613E+02  0.7818608E-02  0.1683906E+00
         -3   -1    0    0    0  501 -0.00000000000E+00  0.00000000000E+00  0.68845966546E+02  0.68846029360E+02  0.93000000000E-01 0.  1.
          3   -1    0    0  501    0  0.00000000000E+00 -0.00000000000E+00 -0.20001668019E+01  0.20023277043E+01  0.93000000000E-01 0. -1.
        -13    1    1    2    0    0  0.10509718925E+02 -0.51615869229E+01  0.30943736026E+02  0.33085074326E+02  0.10570000000E+00 0. -1.
         13    1    1    2    0    0 -0.10509718925E+02  0.51615869229E+01  0.35902063718E+02  0.37763282738E+02  0.10570000000E+00 0.  1.
<mgrwt>
<rscale>  0 0.23476132E+02</rscale>
<asrwt>0</asrwt>
<pdfrwt beam="2">  1        3 0.30788901E-03 0.23476132E+02</pdfrwt>
<pdfrwt beam="1">  1       -3 0.10591859E-01 0.23476132E+02</pdfrwt>
<totfact> 0.10765740E+06</totfact>
</mgrwt>
</event>
<event>
 4    1  0.1802450E-001  0.2088949E+02  0.7818608E-02  0.1728197E+00
          3   -1    0    0  501    0  0.00000000000E+00  0.00000000000E+00  0.63469876401E+02  0.63469944536E+02  0.93000000000E-01 0.  1.
         -3   -1    0    0    0  501 -0.00000000000E+00 -0.00000000000E+00 -0.17174832134E+01  0.17199992989E+01  0.93000000000E-01 0. -1.
        -13    1    1    2    0    0 -0.10136039127E+02  0.23796360403E+01  0.33448742558E+02  0.35031864182E+02  0.10570000000E+00 0.  1.
         13    1    1    2    0    0  0.10136039127E+02 -0.23796360403E+01  0.28303650630E+02  0.30158079653E+02  0.10570000000E+00 0. -1.
<mgrwt>
<rscale>  0 0.20889488E+02</rscale>
<asrwt>0</asrwt>
<pdfrwt beam="1">  1        3 0.97647958E-02 0.20889488E+02</pdfrwt>
<pdfrwt beam="2">  1       -3 0.26442696E-03 0.20889488E+02</pdfrwt>
<totfact> 0.14123620E+06</totfact>
</mgrwt>
</event>
<event>
 4    1  0.1802450E-001  0.2684228E+02  0.7818608E-02  0.1635869E+00
          3   -1    0    0  501    0  0.00000000000E+00  0.00000000000E+00  0.46903478900E+01  0.46912697992E+01  0.93000000000E-01 0.  1.
         -3   -1    0    0    0  501 -0.00000000000E+00 -0.00000000000E+00 -0.38398996275E+02  0.38399108895E+02  0.93000000000E-01 0. -1.
        -13    1    1    2    0    0  0.12013979782E+02 -0.46350650001E+01 -0.10784561119E+02  0.16796948199E+02  0.10570000000E+00 0.  1.
         13    1    1    2    0    0 -0.12013979782E+02  0.46350650001E+01 -0.22924087266E+02  0.26293430495E+02  0.10570000000E+00 0. -1.
<mgrwt>
<rscale>  0 0.26842276E+02</rscale>
<asrwt>0</asrwt>
<pdfrwt beam="1">  1        3 0.72167159E-03 0.26842276E+02</pdfrwt>
<pdfrwt beam="2">  1       -3 0.59076172E-02 0.26842276E+02</pdfrwt>
<totfact> 0.86174210E+05</totfact>
</mgrwt>
</event>
<event>
 4    1  0.1802450E-001  0.2361157E+02  0.7818608E-02  0.1681784E+00
          3   -1    0    0  501    0  0.00000000000E+00  0.00000000000E+00  0.14139087581E+02  0.14139393432E+02  0.93000000000E-01 0. -1.
         -3   -1    0    0    0  501 -0.00000000000E+00 -0.00000000000E+00 -0.98569075561E+01  0.98573462742E+01  0.93000000000E-01 0.  1.
        -13    1    1    2    0    0  0.34788236477E+01  0.11114380443E+02  0.17727180550E+00  0.11647929618E+02  0.10570000000E+00 0. -1.
         13    1    1    2    0    0 -0.34788236477E+01 -0.11114380443E+02  0.41049082191E+01  0.12348810088E+02  0.10570000000E+00 0.  1.
<mgrwt>
<rscale>  0 0.23611575E+02</rscale>
<asrwt>0</asrwt>
<pdfrwt beam="1">  1        3 0.21753015E-02 0.23611575E+02</pdfrwt>
<pdfrwt beam="2">  1       -3 0.15165046E-02 0.23611575E+02</pdfrwt>
<totfact> 0.12243685E+06</totfact>
</mgrwt>
</event>
<event>
 4    1  0.1802450E-001  0.7091622E+02  0.7818608E-02  0.1357005E+00
          3   -1    0    0  501    0  0.00000000000E+00  0.00000000000E+00  0.18672057065E+02  0.18672288666E+02  0.93000000000E-01 0.  1.
         -3   -1    0    0    0  501 -0.00000000000E+00 -0.00000000000E+00 -0.67334034144E+02  0.67334098369E+02  0.93000000000E-01 0. -1.
        -13    1    1    2    0    0 -0.16516690471E+02 -0.15414503458E+02  0.88129621196E+01  0.24250514526E+02  0.10570000000E+00 0.  1.
         13    1    1    2    0    0  0.16516690471E+02  0.15414503458E+02 -0.57474939199E+02  0.61755872509E+02  0.10570000000E+00 0. -1.
<mgrwt>
<rscale>  0 0.70916222E+02</rscale>
<asrwt>0</asrwt>
<pdfrwt beam="1">  1        3 0.28726470E-02 0.70916222E+02</pdfrwt>
<pdfrwt beam="2">  1       -3 0.10359105E-01 0.70916222E+02</pdfrwt>
<totfact> 0.70125572E+04</totfact>
</mgrwt>
</event>
<event>
 4    1  0.1802450E-001  0.3131109E+02  0.7818608E-02  0.1584033E+00
          3   -1    0    0  501    0  0.00000000000E+00  0.00000000000E+00  0.14050633935E+03  0.14050637012E+03  0.93000000000E-01 0. -1.
         -3   -1    0    0    0  501 -0.00000000000E+00 -0.00000000000E+00 -0.17431070785E+01  0.17455862302E+01  0.93000000000E-01 0.  1.
        -13    1    1    2    0    0 -0.23487949437E+01 -0.15214715928E+02  0.82296181199E+02  0.83723814001E+02  0.10570000000E+00 0. -1.
         13    1    1    2    0    0  0.23487949437E+01  0.15214715928E+02  0.56467051069E+02  0.58528142354E+02  0.10570000000E+00 0.  1.
<mgrwt>
<rscale>  0 0.31311092E+02</rscale>
<asrwt>0</asrwt>
<pdfrwt beam="1">  1        3 0.21616558E-01 0.31311092E+02</pdfrwt>
<pdfrwt beam="2">  1       -3 0.26836333E-03 0.31311092E+02</pdfrwt>
<totfact> 0.47127219E+05</totfact>
</mgrwt>
</event>
<event>
 4    1  0.1802450E-001  0.3628682E+02  0.7818608E-02  0.1537461E+00
          3   -1    0    0  501    0  0.00000000000E+00  0.00000000000E+00  0.15620352174E+03  0.15620354943E+03  0.93000000000E-01 0. -1.
         -3   -1    0    0    0  501 -0.00000000000E+00 -0.00000000000E+00 -0.21063457496E+01  0.21083978317E+01  0.93000000000E-01 0.  1.
        -13    1    1    2    0    0 -0.12737549490E+02  0.12844856121E+02  0.83119901154E+02  0.85065648978E+02  0.10570000000E+00 0. -1.
         13    1    1    2    0    0  0.12737549490E+02 -0.12844856121E+02  0.70977274837E+02  0.73246298279E+02  0.10570000000E+00 0.  1.
<mgrwt>
<rscale>  0 0.36286816E+02</rscale>
<asrwt>0</asrwt>
<pdfrwt beam="1">  1        3 0.24031481E-01 0.36286816E+02</pdfrwt>
<pdfrwt beam="2">  1       -3 0.32421303E-03 0.36286816E+02</pdfrwt>
<totfact> 0.32184533E+05</totfact>
</mgrwt>
</event>
<event>
 4    1  0.1802450E-001  0.2464988E+02  0.7818608E-02  0.1666082E+00
          3   -1    0    0  501    0  0.00000000000E+00  0.00000000000E+00  0.27190489940E+01  0.27206389749E+01  0.93000000000E-01 0. -1.
         -3   -1    0    0    0  501 -0.00000000000E+00 -0.00000000000E+00 -0.55848700452E+02  0.55848777885E+02  0.93000000000E-01 0.  1.
        -13    1    1    2    0    0 -0.80269878600E+01  0.71351667342E+01 -0.40929605198E+02  0.42315326923E+02  0.10570000000E+00 0.  1.
         13    1    1    2    0    0  0.80269878600E+01 -0.71351667342E+01 -0.12200046260E+02  0.16254089937E+02  0.10570000000E+00 0. -1.
<mgrwt>
<rscale>  0 0.24649883E+02</rscale>
<asrwt>0</asrwt>
<pdfrwt beam="1">  1        3 0.41844353E-03 0.24649883E+02</pdfrwt>
<pdfrwt beam="2">  1       -3 0.85922352E-02 0.24649883E+02</pdfrwt>
<totfact> 0.99890635E+05</totfact>
</mgrwt>
</event>
<event>
 4    1  0.1802450E-001  0.3190208E+02  0.7818608E-02  0.1577968E+00
         -3   -1    0    0    0  501 -0.00000000000E+00  0.00000000000E+00  0.34063276678E+01  0.34075969803E+01  0.93000000000E-01 0. -1.
          3   -1    0    0  501    0  0.00000000000E+00 -0.00000000000E+00 -0.74679797057E+02  0.74679854964E+02  0.93000000000E-01 0.  1.
        -13    1    1    2    0    0  0.94786210800E+01 -0.55225842163E+01 -0.63979771183E+02  0.64913523145E+02  0.10570000000E+00 0.  1.
         13    1    1    2    0    0 -0.94786210800E+01  0.55225842163E+01 -0.72936982069E+01  0.13173928800E+02  0.10570000000E+00 0. -1.
<mgrwt>
<rscale>  0 0.31902080E+02</rscale>
<asrwt>0</asrwt>
<pdfrwt beam="2">  1        3 0.11489300E-01 0.31902080E+02</pdfrwt>
<pdfrwt beam="1">  1       -3 0.52415256E-03 0.31902080E+02</pdfrwt>
<totfact> 0.52438066E+05</totfact>
</mgrwt>
</event>
<event>
 4    1  0.1802450E-001  0.2309664E+02  0.7818608E-02  0.1689948E+00
          3   -1    0    0  501    0  0.00000000000E+00  0.00000000000E+00  0.77525454765E+02  0.77525510546E+02  0.93000000000E-01 0.  1.
         -3   -1    0    0    0  501 -0.00000000000E+00 -0.00000000000E+00 -0.17189436026E+01  0.17214575536E+01  0.93000000000E-01 0. -1.
        -13    1    1    2    0    0  0.33214417407E+01  0.11013332174E+02  0.34426019857E+02  0.36297210313E+02  0.10570000000E+00 0.  1.
         13    1    1    2    0    0 -0.33214417407E+01 -0.11013332174E+02  0.41380491305E+02  0.42949757787E+02  0.10570000000E+00 0. -1.
<mgrwt>
<rscale>  0 0.23096641E+02</rscale>
<asrwt>0</asrwt>
<pdfrwt beam="1">  1        3 0.11927190E-01 0.23096641E+02</pdfrwt>
<pdfrwt beam="2">  1       -3 0.26465056E-03 0.23096641E+02</pdfrwt>
<totfact> 0.10913938E+06</totfact>
</mgrwt>
</event>
<event>
 4    1  0.1802450E-001  0.5142246E+02  0.7818608E-02  0.1437817E+00
          3   -1    0    0  501    0  0.00000000000E+00  0.00000000000E+00  0.48784819604E+02  0.48784908248E+02  0.93000000000E-01 0. -1.
         -3   -1    0    0    0  501 -0.00000000000E+00 -0.00000000000E+00 -0.13550419280E+02  0.13550738417E+02  0.93000000000E-01 0.  1.
        -13    1    1    2    0    0 -0.24014630912E+02  0.91153921002E+01  0.18979769258E+02  0.31937997504E+02  0.10570000000E+00 0. -1.
         13    1    1    2    0    0  0.24014630912E+02 -0.91153921002E+01  0.16254631066E+02  0.30397649162E+02  0.10570000000E+00 0.  1.
<mgrwt>
<rscale>  0 0.51422465E+02</rscale>
<asrwt>0</asrwt>
<pdfrwt beam="1">  1        3 0.75053884E-02 0.51422465E+02</pdfrwt>
<pdfrwt beam="2">  1       -3 0.20847112E-02 0.51422465E+02</pdfrwt>
<totfact> 0.17049784E+05</totfact>
</mgrwt>
</event>
<event>
 4    1  0.1802450E-001  0.5693301E+02  0.7818608E-02  0.1411173E+00
          3   -1    0    0  501    0  0.00000000000E+00  0.00000000000E+00  0.11836662489E+03  0.11836666143E+03  0.93000000000E-01 0. -1.
         -3   -1    0    0    0  501 -0.00000000000E+00 -0.00000000000E+00 -0.68456797732E+01  0.68463114563E+01  0.93000000000E-01 0.  1.
        -13    1    1    2    0    0  0.96482086610E+01  0.25397203047E+02  0.74451295774E+02  0.79253469753E+02  0.10570000000E+00 0. -1.
         13    1    1    2    0    0 -0.96482086610E+01 -0.25397203047E+02  0.37069649347E+02  0.45959503133E+02  0.10570000000E+00 0.  1.
<mgrwt>
<rscale>  0 0.56933008E+02</rscale>
<asrwt>0</asrwt>
<pdfrwt beam="1">  1        3 0.18210301E-01 0.56933008E+02</pdfrwt>
<pdfrwt beam="2">  1       -3 0.10532329E-02 0.56933008E+02</pdfrwt>
<totfact> 0.11362455E+05</totfact>
</mgrwt>
</event>
<event>
 4    1  0.1802450E-001  0.7232981E+02  0.7818608E-02  0.1352345E+00
         -3   -1    0    0    0  501 -0.00000000000E+00  0.00000000000E+00  0.85302456544E+02  0.85302507240E+02  0.93000000000E-01 0.  1.
          3   -1    0    0  501    0  0.00000000000E+00 -0.00000000000E+00 -0.15332310006E+02  0.15332592054E+02  0.93000000000E-01 0. -1.
        -13    1    1    2    0    0  0.16982093583E+02  0.16673275987E+02 -0.29016994267E+01  0.23975417966E+02  0.10570000000E+00 0. -1.
         13    1    1    2    0    0 -0.16982093583E+02 -0.16673275987E+02  0.72871845965E+02  0.76659681329E+02  0.10570000000E+00 0.  1.
<mgrwt>
<rscale>  0 0.72329813E+02</rscale>
<asrwt>0</asrwt>
<pdfrwt beam="2">  1        3 0.23588426E-02 0.72329813E+02</pdfrwt>
<pdfrwt beam="1">  1       -3 0.13123480E-01 0.72329813E+02</pdfrwt>
<totfact> 0.64415630E+04</totfact>
</mgrwt>
</event>
<event>
 4    1  0.1802450E-001  0.3867204E+02  0.7818608E-02  0.1518218E+00
          3   -1    0    0  501    0  0.00000000000E+00  0.00000000000E+00  0.91252363698E+01  0.91257102631E+01  0.93000000000E-01 0.  1.
         -3   -1    0    0    0  501 -0.00000000000E+00 -0.00000000000E+00 -0.40970673925E+02  0.40970779476E+02  0.93000000000E-01 0. -1.
        -13    1    1    2    0    0 -0.43153751980E+01  0.12826718167E+02  0.19673532744E+01  0.13675847814E+02  0.10570000000E+00 0.  1.
         13    1    1    2    0    0  0.43153751980E+01 -0.12826718167E+02 -0.33812790830E+02  0.36420641925E+02  0.10570000000E+00 0. -1.
<mgrwt>
<rscale>  0 0.38672036E+02</rscale>
<asrwt>0</asrwt>
<pdfrwt beam="1">  1        3 0.14039271E-02 0.38672036E+02</pdfrwt>
<pdfrwt beam="2">  1       -3 0.63032251E-02 0.38672036E+02</pdfrwt>
<totfact> 0.35715154E+05</totfact>
</mgrwt>
</event>
<event>
 4    1  0.1802450E-001  0.2760631E+02  0.7818608E-02  0.1626162E+00
         -3   -1    0    0    0  501 -0.00000000000E+00  0.00000000000E+00  0.41022683243E+02  0.41022788660E+02  0.93000000000E-01 0.  1.
          3   -1    0    0  501    0  0.00000000000E+00 -0.00000000000E+00 -0.46438560108E+01  0.46447871479E+01  0.93000000000E-01 0. -1.
        -13    1    1    2    0    0 -0.59446156687E-01  0.11179575836E+02  0.31580565711E+02  0.33501190320E+02  0.10570000000E+00 0.  1.
         13    1    1    2    0    0  0.59446156687E-01 -0.11179575836E+02  0.47982615208E+01  0.12166385488E+02  0.10570000000E+00 0. -1.
<mgrwt>
<rscale>  0 0.27606311E+02</rscale>
<asrwt>0</asrwt>
<pdfrwt beam="2">  1        3 0.71451910E-03 0.27606311E+02</pdfrwt>
<pdfrwt beam="1">  1       -3 0.63112620E-02 0.27606311E+02</pdfrwt>
<totfact> 0.80194847E+05</totfact>
</mgrwt>
</event>
<event>
 4    1  0.1802450E-001  0.2501459E+02  0.7818608E-02  0.1660792E+00
         -3   -1    0    0    0  501 -0.00000000000E+00  0.00000000000E+00  0.16570462812E+01  0.16596539935E+01  0.93000000000E-01 0. -1.
          3   -1    0    0  501    0  0.00000000000E+00 -0.00000000000E+00 -0.94327536925E+02  0.94327582771E+02  0.93000000000E-01 0.  1.
        -13    1    1    2    0    0  0.83838797264E+01 -0.75063303214E+01 -0.67277926901E+02  0.68212645856E+02  0.10570000000E+00 0.  1.
         13    1    1    2    0    0 -0.83838797264E+01  0.75063303214E+01 -0.25392563743E+02  0.27774590908E+02  0.10570000000E+00 0. -1.
<mgrwt>
<rscale>  0 0.25014591E+02</rscale>
<asrwt>0</asrwt>
<pdfrwt beam="2">  1        3 0.14512129E-01 0.25014591E+02</pdfrwt>
<pdfrwt beam="1">  1       -3 0.25513439E-03 0.25014591E+02</pdfrwt>
<totfact> 0.87586871E+05</totfact>
</mgrwt>
</event>
<event>
 4    1  0.1802450E-001  0.4301227E+02  0.7818608E-02  0.1487146E+00
          3   -1    0    0  501    0  0.00000000000E+00  0.00000000000E+00  0.78407535496E+02  0.78407590650E+02  0.93000000000E-01 0. -1.
         -3   -1    0    0    0  501 -0.00000000000E+00 -0.00000000000E+00 -0.58984200358E+01  0.58991531527E+01  0.93000000000E-01 0.  1.
        -13    1    1    2    0    0  0.55221841179E+00  0.16834337253E+02  0.62463959029E+02  0.64695109599E+02  0.10570000000E+00 0. -1.
         13    1    1    2    0    0 -0.55221841179E+00 -0.16834337253E+02  0.10045156431E+02  0.19611634203E+02  0.10570000000E+00 0.  1.
<mgrwt>
<rscale>  0 0.43012268E+02</rscale>
<asrwt>0</asrwt>
<pdfrwt beam="1">  1        3 0.12062758E-01 0.43012268E+02</pdfrwt>
<pdfrwt beam="2">  1       -3 0.90750988E-03 0.43012268E+02</pdfrwt>
<totfact> 0.25192400E+05</totfact>
</mgrwt>
</event>
<event>
 4    1  0.1802450E-001  0.2707942E+02  0.7818608E-02  0.1632814E+00
         -3   -1    0    0    0  501 -0.00000000000E+00  0.00000000000E+00  0.10594322371E+02  0.10594730553E+02  0.93000000000E-01 0. -1.
          3   -1    0    0  501    0  0.00000000000E+00 -0.00000000000E+00 -0.17303089432E+02  0.17303339357E+02  0.93000000000E-01 0.  1.
        -13    1    1    2    0    0 -0.10393947698E+02  0.43569897240E+01  0.43754440701E+01  0.12090210565E+02  0.10570000000E+00 0. -1.
         13    1    1    2    0    0  0.10393947698E+02 -0.43569897240E+01 -0.11084211132E+02  0.15807859346E+02  0.10570000000E+00 0.  1.
<mgrwt>
<rscale>  0 0.27079416E+02</rscale>
<asrwt>0</asrwt>
<pdfrwt beam="2">  1        3 0.26620644E-02 0.27079416E+02</pdfrwt>
<pdfrwt beam="1">  1       -3 0.16299464E-02 0.27079416E+02</pdfrwt>
<totfact> 0.88601629E+05</totfact>
</mgrwt>
</event>
<event>
 4    1  0.1802450E-001  0.3345428E+02  0.7818608E-02  0.1562772E+00
         -3   -1    0    0    0  501 -0.00000000000E+00  0.00000000000E+00  0.34730999297E+02  0.34731123811E+02  0.93000000000E-01 0.  1.
          3   -1    0    0  501    0  0.00000000000E+00 -0.00000000000E+00 -0.80557139042E+01  0.80562507103E+01  0.93000000000E-01 0. -1.
        -13    1    1    2    0    0  0.10576567855E+02 -0.36406712049E+01 -0.25684611155E+01  0.11477213922E+02  0.10570000000E+00 0. -1.
         13    1    1    2    0    0 -0.10576567855E+02  0.36406712049E+01  0.29243746508E+02  0.31310160599E+02  0.10570000000E+00 0.  1.
<mgrwt>
<rscale>  0 0.33454276E+02</rscale>
<asrwt>0</asrwt>
<pdfrwt beam="2">  1        3 0.12393915E-02 0.33454276E+02</pdfrwt>
<pdfrwt beam="1">  1       -3 0.53432816E-02 0.33454276E+02</pdfrwt>
<totfact> 0.51654001E+05</totfact>
</mgrwt>
</event>
<event>
 4    1  0.1802450E-001  0.3088623E+02  0.7818608E-02  0.1588494E+00
          3   -1    0    0  501    0  0.00000000000E+00  0.00000000000E+00  0.26528912212E+02  0.26529075222E+02  0.93000000000E-01 0. -1.
         -3   -1    0    0    0  501 -0.00000000000E+00 -0.00000000000E+00 -0.89893742658E+01  0.89898553209E+01  0.93000000000E-01 0.  1.
        -13    1    1    2    0    0 -0.11012261445E+02 -0.34410699120E+01  0.20574302058E+02  0.23588640103E+02  0.10570000000E+00 0. -1.
         13    1    1    2    0    0  0.11012261445E+02  0.34410699120E+01 -0.30347641122E+01  0.11930290439E+02  0.10570000000E+00 0.  1.
<mgrwt>
<rscale>  0 0.30886227E+02</rscale>
<asrwt>0</asrwt>
<pdfrwt beam="1">  1        3 0.40814207E-02 0.30886227E+02</pdfrwt>
<pdfrwt beam="2">  1       -3 0.13830302E-02 0.30886227E+02</pdfrwt>
<totfact> 0.63745294E+05</totfact>
</mgrwt>
</event>
<event>
 4    1  0.1802450E-001  0.2617027E+02  0.7818608E-02  0.1644740E+00
          3   -1    0    0  501    0  0.00000000000E+00  0.00000000000E+00  0.74086700972E+01  0.74092537822E+01  0.93000000000E-01 0.  1.
         -3   -1    0    0    0  501 -0.00000000000E+00 -0.00000000000E+00 -0.23109266572E+02  0.23109453704E+02  0.93000000000E-01 0. -1.
        -13    1    1    2    0    0 -0.11498568320E+02  0.62277943655E+01 -0.73196947175E+01  0.14986380461E+02  0.10570000000E+00 0.  1.
         13    1    1    2    0    0  0.11498568320E+02 -0.62277943655E+01 -0.83809017578E+01  0.15532327026E+02  0.10570000000E+00 0. -1.
<mgrwt>
<rscale>  0 0.26170265E+02</rscale>
<asrwt>0</asrwt>
<pdfrwt beam="1">  1        3 0.11398547E-02 0.26170265E+02</pdfrwt>
<pdfrwt beam="2">  1       -3 0.35553310E-02 0.26170265E+02</pdfrwt>
<totfact> 0.94971918E+05</totfact>
</mgrwt>
</event>
<event>
 4    1  0.1802450E-001  0.2978444E+02  0.7818608E-02  0.1600484E+00
          3   -1    0    0  501    0  0.00000000000E+00  0.00000000000E+00  0.18912579793E+01  0.18935431720E+01  0.93000000000E-01 0. -1.
         -3   -1    0    0    0  501 -0.00000000000E+00 -0.00000000000E+00 -0.11719184503E+03  0.11719188193E+03  0.93000000000E-01 0.  1.
        -13    1    1    2    0    0  0.14418037392E+02  0.18055134814E+01 -0.70684453707E+02  0.72162613932E+02  0.10570000000E+00 0.  1.
         13    1    1    2    0    0 -0.14418037392E+02 -0.18055134814E+01 -0.44616133347E+02  0.46922811174E+02  0.10570000000E+00 0. -1.
<mgrwt>
<rscale>  0 0.29784444E+02</rscale>
<asrwt>0</asrwt>
<pdfrwt beam="1">  1        3 0.29114148E-03 0.29784444E+02</pdfrwt>
<pdfrwt beam="2">  1       -3 0.18029688E-01 0.29784444E+02</pdfrwt>
<totfact> 0.55733963E+05</totfact>
</mgrwt>
</event>
<event>
 4    1  0.1802450E-001  0.2020955E+02  0.7818608E-02  0.1741193E+00
         -3   -1    0    0    0  501 -0.00000000000E+00  0.00000000000E+00  0.22272120670E+01  0.22291528865E+01  0.93000000000E-01 0. -1.
          3   -1    0    0  501    0  0.00000000000E+00 -0.00000000000E+00 -0.45823038095E+02  0.45823132469E+02  0.93000000000E-01 0.  1.
        -13    1    1    2    0    0  0.10018257325E+02  0.84727790032E+00 -0.24189823941E+02  0.26196223286E+02  0.10570000000E+00 0. -1.
         13    1    1    2    0    0 -0.10018257325E+02 -0.84727790032E+00 -0.19406002088E+02  0.21856062070E+02  0.10570000000E+00 0.  1.
<mgrwt>
<rscale>  0 0.20209554E+02</rscale>
<asrwt>0</asrwt>
<pdfrwt beam="2">  1        3 0.70498540E-02 0.20209554E+02</pdfrwt>
<pdfrwt beam="1">  1       -3 0.34280460E-03 0.20209554E+02</pdfrwt>
<totfact> 0.15940649E+06</totfact>
</mgrwt>
</event>
<event>
 4    1  0.1802450E-001  0.4785225E+02  0.7818608E-02  0.1457283E+00
          3   -1    0    0  501    0  0.00000000000E+00  0.00000000000E+00  0.12559447473E+03  0.12559450916E+03  0.93000000000E-01 0. -1.
         -3   -1    0    0    0  501 -0.00000000000E+00 -0.00000000000E+00 -0.45574887895E+01  0.45584375686E+01  0.93000000000E-01 0.  1.
        -13    1    1    2    0    0  0.23376972769E+02  0.46187497444E+01  0.54664392597E+02  0.59632396359E+02  0.10570000000E+00 0. -1.
         13    1    1    2    0    0 -0.23376972769E+02 -0.46187497444E+01  0.66372593340E+02  0.70520550368E+02  0.10570000000E+00 0.  1.
<mgrwt>
<rscale>  0 0.47852247E+02</rscale>
<asrwt>0</asrwt>
<pdfrwt beam="1">  1        3 0.19322301E-01 0.47852247E+02</pdfrwt>
<pdfrwt beam="2">  1       -3 0.70122780E-03 0.47852247E+02</pdfrwt>
<totfact> 0.17416089E+05</totfact>
</mgrwt>
</event>
<event>
 4    1  0.1802450E-001  0.3130702E+02  0.7818608E-02  0.1584075E+00
         -3   -1    0    0    0  501 -0.00000000000E+00  0.00000000000E+00  0.65481381941E+02  0.65481447983E+02  0.93000000000E-01 0. -1.
          3   -1    0    0  501    0  0.00000000000E+00 -0.00000000000E+00 -0.37413705323E+01  0.37425262137E+01  0.93000000000E-01 0.  1.
        -13    1    1    2    0    0 -0.14256834293E+02 -0.39029968933E+01  0.19480952096E+02  0.24454230225E+02  0.10570000000E+00 0.  1.
         13    1    1    2    0    0  0.14256834293E+02  0.39029968933E+01  0.42259059313E+02  0.44769743972E+02  0.10570000000E+00 0. -1.
<mgrwt>
<rscale>  0 0.31307021E+02</rscale>
<asrwt>0</asrwt>
<pdfrwt beam="2">  1        3 0.57568949E-03 0.31307021E+02</pdfrwt>
<pdfrwt beam="1">  1       -3 0.10074152E-01 0.31307021E+02</pdfrwt>
<totfact> 0.56095098E+05</totfact>
</mgrwt>
</event>
<event>
 4    1  0.1802450E-001  0.4763682E+02  0.7818608E-02  0.1458521E+00
         -3   -1    0    0    0  501 -0.00000000000E+00  0.00000000000E+00  0.40986312435E+01  0.40996862161E+01  0.93000000000E-01 0. -1.
          3   -1    0    0  501    0  0.00000000000E+00 -0.00000000000E+00 -0.13839725736E+03  0.13839728861E+03  0.93000000000E-01 0.  1.
        -13    1    1    2    0    0 -0.17543661766E+02  0.10304917943E+02 -0.10419027783E+03  0.10615835610E+03  0.10570000000E+00 0.  1.
         13    1    1    2    0    0  0.17543661766E+02 -0.10304917943E+02 -0.30108348282E+02  0.36338618724E+02  0.10570000000E+00 0. -1.
<mgrwt>
<rscale>  0 0.47636822E+02</rscale>
<asrwt>0</asrwt>
<pdfrwt beam="2">  1        3 0.21291966E-01 0.47636822E+02</pdfrwt>
<pdfrwt beam="1">  1       -3 0.63064232E-03 0.47636822E+02</pdfrwt>
<totfact> 0.17154094E+05</totfact>
</mgrwt>
</event>
<event>
 4    1  0.1802450E-001  0.2488365E+02  0.7818608E-02  0.1662679E+00
          3   -1    0    0  501    0  0.00000000000E+00  0.00000000000E+00  0.10534086585E+02  0.10534497101E+02  0.93000000000E-01 0. -1.
         -3   -1    0    0    0  501 -0.00000000000E+00 -0.00000000000E+00 -0.14694217506E+02  0.14694511803E+02  0.93000000000E-01 0.  1.
        -13    1    1    2    0    0  0.14783098391E+01  0.10599733662E+02  0.43521246198E+01  0.11553870126E+02  0.10570000000E+00 0. -1.
         13    1    1    2    0    0 -0.14783098391E+01 -0.10599733662E+02 -0.85122555414E+01  0.13675138778E+02  0.10570000000E+00 0.  1.
<mgrwt>
<rscale>  0 0.24883653E+02</rscale>
<asrwt>0</asrwt>
<pdfrwt beam="1">  1        3 0.16206829E-02 0.24883653E+02</pdfrwt>
<pdfrwt beam="2">  1       -3 0.22607031E-02 0.24883653E+02</pdfrwt>
<totfact> 0.10837691E+06</totfact>
</mgrwt>
</event>
<event>
 4    1  0.1802450E-001  0.2241852E+02  0.7818608E-02  0.1701113E+00
          3   -1    0    0  501    0  0.00000000000E+00  0.00000000000E+00  0.29732544734E+02  0.29732690180E+02  0.93000000000E-01 0.  1.
         -3   -1    0    0    0  501 -0.00000000000E+00 -0.00000000000E+00 -0.42252570578E+01  0.42262804219E+01  0.93000000000E-01 0. -1.
        -13    1    1    2    0    0  0.19183304600E+01 -0.11018120832E+02  0.11622787749E+02  0.16130075821E+02  0.10570000000E+00 0. -1.
         13    1    1    2    0    0 -0.19183304600E+01  0.11018120832E+02  0.13884499927E+02  0.17828894781E+02  0.10570000000E+00 0.  1.
<mgrwt>
<rscale>  0 0.22418518E+02</rscale>
<asrwt>0</asrwt>
<pdfrwt beam="1">  1        3 0.45743276E-02 0.22418518E+02</pdfrwt>
<pdfrwt beam="2">  1       -3 0.65012945E-03 0.22418518E+02</pdfrwt>
<totfact> 0.13283647E+06</totfact>
</mgrwt>
</event>
<event>
 4    1  0.1802450E-001  0.2141509E+02  0.7818608E-02  0.1718569E+00
          3   -1    0    0  501    0  0.00000000000E+00  0.00000000000E+00  0.11013840859E+02  0.11014233494E+02  0.93000000000E-01 0.  1.
         -3   -1    0    0    0  501 -0.00000000000E+00 -0.00000000000E+00 -0.10408981391E+02  0.10409396841E+02  0.93000000000E-01 0. -1.
        -13    1    1    2    0    0  0.10374379217E+02  0.26414426880E+01  0.49061200747E+00  0.10717128171E+02  0.10570000000E+00 0. -1.
         13    1    1    2    0    0 -0.10374379217E+02 -0.26414426880E+01  0.11424746028E+00  0.10706502164E+02  0.10570000000E+00 0.  1.
<mgrwt>
<rscale>  0 0.21415090E+02</rscale>
<asrwt>0</asrwt>
<pdfrwt beam="1">  1        3 0.16944992E-02 0.21415090E+02</pdfrwt>
<pdfrwt beam="2">  1       -3 0.16014439E-02 0.21415090E+02</pdfrwt>
<totfact> 0.15333339E+06</totfact>
</mgrwt>
</event>
<event>
 4    1  0.1802450E-001  0.2954187E+02  0.7818608E-02  0.1603209E+00
         -3   -1    0    0    0  501 -0.00000000000E+00  0.00000000000E+00  0.30777855086E+01  0.30791902567E+01  0.93000000000E-01 0.  1.
          3   -1    0    0  501    0  0.00000000000E+00 -0.00000000000E+00 -0.70871209500E+02  0.70871270519E+02  0.93000000000E-01 0. -1.
        -13    1    1    2    0    0 -0.36672488259E+01 -0.10524067649E+02 -0.58161985534E+02  0.59220203036E+02  0.10570000000E+00 0. -1.
         13    1    1    2    0    0  0.36672488259E+01  0.10524067649E+02 -0.96314384573E+01  0.14730257740E+02  0.10570000000E+00 0.  1.
<mgrwt>
<rscale>  0 0.29541874E+02</rscale>
<asrwt>0</asrwt>
<pdfrwt beam="2">  1        3 0.10903375E-01 0.29541874E+02</pdfrwt>
<pdfrwt beam="1">  1       -3 0.47361827E-03 0.29541874E+02</pdfrwt>
<totfact> 0.63409505E+05</totfact>
</mgrwt>
</event>
<event>
 4    1  0.1802450E-001  0.2851370E+02  0.7818608E-02  0.1615124E+00
          3   -1    0    0  501    0  0.00000000000E+00  0.00000000000E+00  0.11484122620E+03  0.11484126386E+03  0.93000000000E-01 0.  1.
         -3   -1    0    0    0  501 -0.00000000000E+00 -0.00000000000E+00 -0.17686423070E+01  0.17710857150E+01  0.93000000000E-01 0. -1.
        -13    1    1    2    0    0 -0.10466024940E+02 -0.91825695896E+01  0.69067908393E+02  0.70457394251E+02  0.10570000000E+00 0. -1.
         13    1    1    2    0    0  0.10466024940E+02  0.91825695896E+01  0.44004675502E+02  0.46154955323E+02  0.10570000000E+00 0.  1.
<mgrwt>
<rscale>  0 0.28513696E+02</rscale>
<asrwt>0</asrwt>
<pdfrwt beam="1">  1        3 0.17668072E-01 0.28513696E+02</pdfrwt>
<pdfrwt beam="2">  1       -3 0.27228966E-03 0.28513696E+02</pdfrwt>
<totfact> 0.61957629E+05</totfact>
</mgrwt>
</event>
<event>
 4    1  0.1802450E-001  0.5842319E+02  0.7818608E-02  0.1404571E+00
          3   -1    0    0  501    0  0.00000000000E+00  0.00000000000E+00  0.88953257023E+02  0.88953305639E+02  0.93000000000E-01 0. -1.
         -3   -1    0    0    0  501 -0.00000000000E+00 -0.00000000000E+00 -0.95925960057E+01  0.95930468115E+01  0.93000000000E-01 0.  1.
        -13    1    1    2    0    0 -0.18728789092E+02  0.46753077576E+01  0.76661729875E+02  0.79054778751E+02  0.10570000000E+00 0. -1.
         13    1    1    2    0    0  0.18728789092E+02 -0.46753077576E+01  0.26989311427E+01  0.19491573699E+02  0.10570000000E+00 0.  1.
<mgrwt>
<rscale>  0 0.58423189E+02</rscale>
<asrwt>0</asrwt>
<pdfrwt beam="1">  1        3 0.13685155E-01 0.58423189E+02</pdfrwt>
<pdfrwt beam="2">  1       -3 0.14758224E-02 0.58423189E+02</pdfrwt>
<totfact> 0.11282571E+05</totfact>
</mgrwt>
</event>
<event>
 4    1  0.1802450E-001  0.2273174E+02  0.7818608E-02  0.1695896E+00
          3   -1    0    0  501    0  0.00000000000E+00  0.00000000000E+00  0.47930152814E+02  0.47930243039E+02  0.93000000000E-01 0. -1.
         -3   -1    0    0    0  501 -0.00000000000E+00 -0.00000000000E+00 -0.26943384933E+01  0.26959430477E+01  0.93000000000E-01 0.  1.
        -13    1    1    2    0    0  0.19274331062E+01  0.10827287364E+02  0.29005741702E+02  0.31020789387E+02  0.10570000000E+00 0.  1.
         13    1    1    2    0    0 -0.19274331062E+01 -0.10827287364E+02  0.16230072619E+02  0.19605396700E+02  0.10570000000E+00 0. -1.
<mgrwt>
<rscale>  0 0.22731736E+02</rscale>
<asrwt>0</asrwt>
<pdfrwt beam="1">  1        3 0.73740005E-02 0.22731736E+02</pdfrwt>
<pdfrwt beam="2">  1       -3 0.41464395E-03 0.22731736E+02</pdfrwt>
<totfact> 0.12235865E+06</totfact>
</mgrwt>
</event>
<event>
 4    1  0.1802450E-001  0.3488660E+02  0.7818608E-02  0.1549610E+00
          3   -1    0    0  501    0  0.00000000000E+00  0.00000000000E+00  0.61823213901E+02  0.61823283850E+02  0.93000000000E-01 0. -1.
         -3   -1    0    0    0  501 -0.00000000000E+00 -0.00000000000E+00 -0.49210808118E+01  0.49219595037E+01  0.93000000000E-01 0.  1.
        -13    1    1    2    0    0  0.68586894523E+01  0.13782572319E+02  0.44141290300E+02  0.46748963653E+02  0.10570000000E+00 0. -1.
         13    1    1    2    0    0 -0.68586894523E+01 -0.13782572319E+02  0.12760842789E+02  0.19996279701E+02  0.10570000000E+00 0.  1.
<mgrwt>
<rscale>  0 0.34886599E+02</rscale>
<asrwt>0</asrwt>
<pdfrwt beam="1">  1        3 0.95113369E-02 0.34886599E+02</pdfrwt>
<pdfrwt beam="2">  1       -3 0.75716231E-03 0.34886599E+02</pdfrwt>
<totfact> 0.43730493E+05</totfact>
</mgrwt>
</event>
<event>
 4    1  0.1802450E-001  0.3048657E+02  0.7818608E-02  0.1592772E+00
          3   -1    0    0  501    0  0.00000000000E+00  0.00000000000E+00  0.16527888225E+02  0.16528149872E+02  0.93000000000E-01 0. -1.
         -3   -1    0    0    0  501 -0.00000000000E+00 -0.00000000000E+00 -0.14058001962E+02  0.14058309577E+02  0.93000000000E-01 0.  1.
        -13    1    1    2    0    0 -0.14689203603E+02  0.24695277713E+01  0.44821116838E+01  0.15555441734E+02  0.10570000000E+00 0. -1.
         13    1    1    2    0    0  0.14689203603E+02 -0.24695277713E+01 -0.20122254205E+01  0.15031017715E+02  0.10570000000E+00 0.  1.
<mgrwt>
<rscale>  0 0.30486573E+02</rscale>
<asrwt>0</asrwt>
<pdfrwt beam="1">  1        3 0.25427958E-02 0.30486573E+02</pdfrwt>
<pdfrwt beam="2">  1       -3 0.21628133E-02 0.30486573E+02</pdfrwt>
<totfact> 0.66751468E+05</totfact>
</mgrwt>
</event>
<event>
 4    1  0.1802450E-001  0.4221403E+02  0.7818608E-02  0.1492523E+00
         -3   -1    0    0    0  501 -0.00000000000E+00  0.00000000000E+00  0.92136416813E+02  0.92136463749E+02  0.93000000000E-01 0. -1.
          3   -1    0    0  501    0  0.00000000000E+00 -0.00000000000E+00 -0.48347933715E+01  0.48356877427E+01  0.93000000000E-01 0.  1.
        -13    1    1    2    0    0  0.97682761384E+01 -0.12871961436E+02  0.12457824852E+02  0.20403803137E+02  0.10570000000E+00 0.  1.
         13    1    1    2    0    0 -0.97682761384E+01  0.12871961436E+02  0.74843798589E+02  0.76568348354E+02  0.10570000000E+00 0. -1.
<mgrwt>
<rscale>  0 0.42214035E+02</rscale>
<asrwt>0</asrwt>
<pdfrwt beam="2">  1        3 0.74388679E-03 0.42214035E+02</pdfrwt>
<pdfrwt beam="1">  1       -3 0.14174905E-01 0.42214035E+02</pdfrwt>
<totfact> 0.25586028E+05</totfact>
</mgrwt>
</event>
<event>
 4    1  0.1802450E-001  0.4369564E+02  0.7818608E-02  0.1482653E+00
          3   -1    0    0  501    0  0.00000000000E+00  0.00000000000E+00  0.14325559624E+02  0.14325861494E+02  0.93000000000E-01 0. -1.
         -3   -1    0    0    0  501 -0.00000000000E+00 -0.00000000000E+00 -0.33319254621E+02  0.33319384410E+02  0.93000000000E-01 0.  1.
        -13    1    1    2    0    0  0.19095341090E+02 -0.77395611412E+01 -0.15749465469E+01  0.20664570818E+02  0.10570000000E+00 0. -1.
         13    1    1    2    0    0 -0.19095341090E+02  0.77395611412E+01 -0.17418748450E+02  0.26980675085E+02  0.10570000000E+00 0.  1.
<mgrwt>
<rscale>  0 0.43695641E+02</rscale>
<asrwt>0</asrwt>
<pdfrwt beam="1">  1        3 0.22039655E-02 0.43695641E+02</pdfrwt>
<pdfrwt beam="2">  1       -3 0.51260723E-02 0.43695641E+02</pdfrwt>
<totfact> 0.26656232E+05</totfact>
</mgrwt>
</event>
<event>
 4    1  0.1802450E-001  0.2302766E+02  0.7818608E-02  0.1691062E+00
          3   -1    0    0  501    0  0.00000000000E+00  0.00000000000E+00  0.31729364772E+02  0.31729501065E+02  0.93000000000E-01 0.  1.
         -3   -1    0    0    0  501 -0.00000000000E+00 -0.00000000000E+00 -0.41774310014E+01  0.41784660788E+01  0.93000000000E-01 0. -1.
        -13    1    1    2    0    0  0.94218567785E+01  0.65237683982E+01  0.12049282468E+02  0.16629110612E+02  0.10570000000E+00 0. -1.
         13    1    1    2    0    0 -0.94218567785E+01 -0.65237683982E+01  0.15502651302E+02  0.19278856531E+02  0.10570000000E+00 0.  1.
<mgrwt>
<rscale>  0 0.23027658E+02</rscale>
<asrwt>0</asrwt>
<pdfrwt beam="1">  1        3 0.48815308E-02 0.23027658E+02</pdfrwt>
<pdfrwt beam="2">  1       -3 0.64277181E-03 0.23027658E+02</pdfrwt>
<totfact> 0.12440621E+06</totfact>
</mgrwt>
</event>
<event>
 4    1  0.1802450E-001  0.3886659E+02  0.7818608E-02  0.1516722E+00
          3   -1    0    0  501    0  0.00000000000E+00  0.00000000000E+00  0.81322440165E+02  0.81322493343E+02  0.93000000000E-01 0.  1.
         -3   -1    0    0    0  501 -0.00000000000E+00 -0.00000000000E+00 -0.46433747822E+01  0.46443060157E+01  0.93000000000E-01 0. -1.
        -13    1    1    2    0    0  0.88485619008E+01  0.13517237549E+02  0.14452756329E+02  0.21677317561E+02  0.10570000000E+00 0. -1.
         13    1    1    2    0    0 -0.88485619008E+01 -0.13517237549E+02  0.62226309055E+02  0.64289481797E+02  0.10570000000E+00 0.  1.
<mgrwt>
<rscale>  0 0.38866586E+02</rscale>
<asrwt>0</asrwt>
<pdfrwt beam="1">  1        3 0.12511219E-01 0.38866586E+02</pdfrwt>
<pdfrwt beam="2">  1       -3 0.71444116E-03 0.38866586E+02</pdfrwt>
<totfact> 0.32118224E+05</totfact>
</mgrwt>
</event>
<event>
 4    1  0.1802450E-001  0.2758602E+02  0.7818608E-02  0.1626415E+00
         -3   -1    0    0    0  501 -0.00000000000E+00  0.00000000000E+00  0.72512177217E+01  0.72518140797E+01  0.93000000000E-01 0. -1.
          3   -1    0    0  501    0  0.00000000000E+00 -0.00000000000E+00 -0.26234814016E+02  0.26234978854E+02  0.93000000000E-01 0.  1.
        -13    1    1    2    0    0 -0.11575404778E+02 -0.10391135436E+01 -0.47565175218E+00  0.11632161012E+02  0.10570000000E+00 0.  1.
         13    1    1    2    0    0  0.11575404778E+02  0.10391135436E+01 -0.18507944543E+02  0.21854631921E+02  0.10570000000E+00 0. -1.
<mgrwt>
<rscale>  0 0.27586018E+02</rscale>
<asrwt>0</asrwt>
<pdfrwt beam="2">  1        3 0.40361837E-02 0.27586018E+02</pdfrwt>
<pdfrwt beam="1">  1       -3 0.11156305E-02 0.27586018E+02</pdfrwt>
<totfact> 0.83385900E+05</totfact>
</mgrwt>
</event>
<event>
 4    1  0.1802450E-001  0.2862836E+02  0.7818608E-02  0.1613765E+00
          3   -1    0    0  501    0  0.00000000000E+00  0.00000000000E+00  0.30728621259E+01  0.30742691237E+01  0.93000000000E-01 0. -1.
         -3   -1    0    0    0  501 -0.00000000000E+00 -0.00000000000E+00 -0.66662406340E+02  0.66662471212E+02  0.93000000000E-01 0.  1.
        -13    1    1    2    0    0  0.12105387634E+02  0.12355550321E+01 -0.13433347170E+02  0.18125479157E+02  0.10570000000E+00 0. -1.
         13    1    1    2    0    0 -0.12105387634E+02 -0.12355550321E+01 -0.50156197044E+02  0.51611261178E+02  0.10570000000E+00 0.  1.
<mgrwt>
<rscale>  0 0.28628357E+02</rscale>
<asrwt>0</asrwt>
<pdfrwt beam="1">  1        3 0.47286129E-03 0.28628357E+02</pdfrwt>
<pdfrwt beam="2">  1       -3 0.10255867E-01 0.28628357E+02</pdfrwt>
<totfact> 0.68946489E+05</totfact>
</mgrwt>
</event>
<event>
 4    1  0.1802450E-001  0.3658449E+02  0.7818608E-02  0.1534964E+00
         -3   -1    0    0    0  501 -0.00000000000E+00  0.00000000000E+00  0.55256199415E+02  0.55256277678E+02  0.93000000000E-01 0.  1.
          3   -1    0    0  501    0  0.00000000000E+00 -0.00000000000E+00 -0.60551034597E+01  0.60558176086E+01  0.93000000000E-01 0. -1.
        -13    1    1    2    0    0  0.28900650854E+01 -0.17162035076E+02  0.15163676256E+02  0.23083244448E+02  0.10570000000E+00 0. -1.
         13    1    1    2    0    0 -0.28900650854E+01  0.17162035076E+02  0.34037419699E+02  0.38228850838E+02  0.10570000000E+00 0.  1.
<mgrwt>
<rscale>  0 0.36584494E+02</rscale>
<asrwt>0</asrwt>
<pdfrwt beam="2">  1        3 0.93161530E-03 0.36584494E+02</pdfrwt>
<pdfrwt beam="1">  1       -3 0.85010150E-02 0.36584494E+02</pdfrwt>
<totfact> 0.39605511E+05</totfact>
</mgrwt>
</event>
<event>
 4    1  0.1802450E-001  0.4608357E+02  0.7818608E-02  0.1467688E+00
         -3   -1    0    0    0  501 -0.00000000000E+00  0.00000000000E+00  0.93882521118E+01  0.93887127294E+01  0.93000000000E-01 0.  1.
          3   -1    0    0  501    0  0.00000000000E+00 -0.00000000000E+00 -0.56550058254E+02  0.56550134726E+02  0.93000000000E-01 0. -1.
        -13    1    1    2    0    0  0.11654775718E+02  0.86750496843E+01 -0.49169689510E+02  0.51271432817E+02  0.10570000000E+00 0. -1.
         13    1    1    2    0    0 -0.11654775718E+02 -0.86750496843E+01  0.20078833683E+01  0.14667414638E+02  0.10570000000E+00 0.  1.
<mgrwt>
<rscale>  0 0.46083572E+02</rscale>
<asrwt>0</asrwt>
<pdfrwt beam="2">  1        3 0.87000501E-02 0.46083572E+02</pdfrwt>
<pdfrwt beam="1">  1       -3 0.14443878E-02 0.46083572E+02</pdfrwt>
<totfact> 0.22239477E+05</totfact>
</mgrwt>
</event>
<event>
 4    1  0.1802450E-001  0.2415189E+02  0.7818608E-02  0.1673491E+00
          3   -1    0    0  501    0  0.00000000000E+00  0.00000000000E+00  0.11766388050E+01  0.11803083824E+01  0.93000000000E-01 0.  1.
         -3   -1    0    0    0  501 -0.00000000000E+00 -0.00000000000E+00 -0.12373978256E+03  0.12373981751E+03  0.93000000000E-01 0. -1.
        -13    1    1    2    0    0  0.63236053577E+01 -0.10276302238E+02 -0.58817992803E+02  0.60042966468E+02  0.10570000000E+00 0. -1.
         13    1    1    2    0    0 -0.63236053577E+01  0.10276302238E+02 -0.63745150950E+02  0.64877159421E+02  0.10570000000E+00 0.  1.
<mgrwt>
<rscale>  0 0.24151887E+02</rscale>
<asrwt>0</asrwt>
<pdfrwt beam="1">  1        3 0.18130642E-03 0.24151887E+02</pdfrwt>
<pdfrwt beam="2">  1       -3 0.19037164E-01 0.24151887E+02</pdfrwt>
<totfact> 0.88506051E+05</totfact>
</mgrwt>
</event>
<event>
 4    1  0.1802450E-001  0.4986407E+02  0.7818608E-02  0.1446076E+00
         -3   -1    0    0    0  501 -0.00000000000E+00  0.00000000000E+00  0.40454529952E+02  0.40454636849E+02  0.93000000000E-01 0. -1.
          3   -1    0    0  501    0  0.00000000000E+00 -0.00000000000E+00 -0.15365290303E+02  0.15365571746E+02  0.93000000000E-01 0.  1.
        -13    1    1    2    0    0 -0.22204007424E+02  0.92597831637E+01  0.19871121798E+02  0.31203111767E+02  0.10570000000E+00 0. -1.
         13    1    1    2    0    0  0.22204007424E+02 -0.92597831637E+01  0.52181178507E+01  0.24617096829E+02  0.10570000000E+00 0.  1.
<mgrwt>
<rscale>  0 0.49864073E+02</rscale>
<asrwt>0</asrwt>
<pdfrwt beam="2">  1        3 0.23639207E-02 0.49864073E+02</pdfrwt>
<pdfrwt beam="1">  1       -3 0.62238038E-02 0.49864073E+02</pdfrwt>
<totfact> 0.18742439E+05</totfact>
</mgrwt>
</event>
<event>
 4    1  0.1802450E-001  0.2767729E+02  0.7818608E-02  0.1625280E+00
         -3   -1    0    0    0  501 -0.00000000000E+00  0.00000000000E+00  0.69469818215E+02  0.69469880465E+02  0.93000000000E-01 0. -1.
          3   -1    0    0  501    0  0.00000000000E+00 -0.00000000000E+00 -0.27558623968E+01  0.27574311505E+01  0.93000000000E-01 0.  1.
        -13    1    1    2    0    0  0.58728593666E+01 -0.84735223645E+01  0.92683134727E+01  0.13863760872E+02  0.10570000000E+00 0.  1.
         13    1    1    2    0    0 -0.58728593666E+01  0.84735223645E+01  0.57445642345E+02  0.58363550743E+02  0.10570000000E+00 0. -1.
<mgrwt>
<rscale>  0 0.27677295E+02</rscale>
<asrwt>0</asrwt>
<pdfrwt beam="2">  1        3 0.42410431E-03 0.27677295E+02</pdfrwt>
<pdfrwt beam="1">  1       -3 0.10687789E-01 0.27677295E+02</pdfrwt>
<totfact> 0.74007374E+05</totfact>
</mgrwt>
</event>
<event>
 4    1  0.1802450E-001  0.2684655E+02  0.7818608E-02  0.1635813E+00
         -3   -1    0    0    0  501 -0.00000000000E+00  0.00000000000E+00  0.53165329416E+01  0.53173462854E+01  0.93000000000E-01 0.  1.
          3   -1    0    0  501    0  0.00000000000E+00 -0.00000000000E+00 -0.33887838276E+02  0.33887965888E+02  0.93000000000E-01 0. -1.
        -13    1    1    2    0    0  0.83498849880E+01 -0.97101675238E+01 -0.84141893638E+01  0.15323762194E+02  0.10570000000E+00 0.  1.
         13    1    1    2    0    0 -0.83498849880E+01  0.97101675238E+01 -0.20157115971E+02  0.23881549979E+02  0.10570000000E+00 0. -1.
<mgrwt>
<rscale>  0 0.26846546E+02</rscale>
<asrwt>0</asrwt>
<pdfrwt beam="2">  1        3 0.52135858E-02 0.26846546E+02</pdfrwt>
<pdfrwt beam="1">  1       -3 0.81800055E-03 0.26846546E+02</pdfrwt>
<totfact> 0.87160826E+05</totfact>
</mgrwt>
</event>
<event>
 4    1  0.1802450E-001  0.4210405E+02  0.7818608E-02  0.1493275E+00
         -3   -1    0    0    0  501 -0.00000000000E+00  0.00000000000E+00  0.45430339681E+01  0.45439857653E+01  0.93000000000E-01 0. -1.
          3   -1    0    0  501    0  0.00000000000E+00 -0.00000000000E+00 -0.97542061967E+02  0.97542106302E+02  0.93000000000E-01 0.  1.
        -13    1    1    2    0    0 -0.26375004067E+01 -0.15901232969E+02 -0.13666709159E+02  0.21132811693E+02  0.10570000000E+00 0. -1.
         13    1    1    2    0    0  0.26375004067E+01  0.15901232969E+02 -0.79332318840E+02  0.80953280374E+02  0.10570000000E+00 0.  1.
<mgrwt>
<rscale>  0 0.42104050E+02</rscale>
<asrwt>0</asrwt>
<pdfrwt beam="2">  1        3 0.15006546E-01 0.42104050E+02</pdfrwt>
<pdfrwt beam="1">  1       -3 0.69900500E-03 0.42104050E+02</pdfrwt>
<totfact> 0.25438184E+05</totfact>
</mgrwt>
</event>
<event>
 4    1  0.1802450E-001  0.2455732E+02  0.7818608E-02  0.1667443E+00
          3   -1    0    0  501    0  0.00000000000E+00  0.00000000000E+00  0.83761844491E+01  0.83767007183E+01  0.93000000000E-01 0.  1.
         -3   -1    0    0    0  501 -0.00000000000E+00 -0.00000000000E+00 -0.17998118292E+02  0.17998358565E+02  0.93000000000E-01 0. -1.
        -13    1    1    2    0    0  0.25391371471E+01  0.10400415376E+02  0.16455382820E+01  0.10832120114E+02  0.10570000000E+00 0.  1.
         13    1    1    2    0    0 -0.25391371471E+01 -0.10400415376E+02 -0.11267472125E+02  0.15542939169E+02  0.10570000000E+00 0. -1.
<mgrwt>
<rscale>  0 0.24557324E+02</rscale>
<asrwt>0</asrwt>
<pdfrwt beam="1">  1        3 0.12887020E-02 0.24557324E+02</pdfrwt>
<pdfrwt beam="2">  1       -3 0.27689995E-02 0.24557324E+02</pdfrwt>
<totfact> 0.11122190E+06</totfact>
</mgrwt>
</event>
<event>
 4    1  0.1802450E-001  0.2901471E+02  0.7818608E-02  0.1609242E+00
         -3   -1    0    0    0  501 -0.00000000000E+00  0.00000000000E+00  0.19361200308E+01  0.19383523347E+01  0.93000000000E-01 0. -1.
          3   -1    0    0  501    0  0.00000000000E+00 -0.00000000000E+00 -0.10863878752E+03  0.10863882733E+03  0.93000000000E-01 0.  1.
        -13    1    1    2    0    0 -0.79428356748E+01  0.11450242445E+02 -0.68716855195E+02  0.70115719001E+02  0.10570000000E+00 0.  1.
         13    1    1    2    0    0  0.79428356748E+01 -0.11450242445E+02 -0.37985812295E+02  0.40461460661E+02  0.10570000000E+00 0. -1.
<mgrwt>
<rscale>  0 0.29014710E+02</rscale>
<asrwt>0</asrwt>
<pdfrwt beam="2">  1        3 0.16713830E-01 0.29014710E+02</pdfrwt>
<pdfrwt beam="1">  1       -3 0.29803948E-03 0.29014710E+02</pdfrwt>
<totfact> 0.60369848E+05</totfact>
</mgrwt>
</event>
<event>
 4    1  0.1802450E-001  0.3262071E+02  0.7818608E-02  0.1570805E+00
          3   -1    0    0  501    0  0.00000000000E+00  0.00000000000E+00  0.47948431002E+01  0.47957449219E+01  0.93000000000E-01 0.  1.
         -3   -1    0    0    0  501 -0.00000000000E+00 -0.00000000000E+00 -0.55475883276E+02  0.55475961229E+02  0.93000000000E-01 0. -1.
        -13    1    1    2    0    0  0.65054872145E+01 -0.11175377496E+02 -0.43706407489E+02  0.45579289751E+02  0.10570000000E+00 0. -1.
         13    1    1    2    0    0 -0.65054872145E+01  0.11175377496E+02 -0.69746326866E+01  0.14692416400E+02  0.10570000000E+00 0.  1.
<mgrwt>
<rscale>  0 0.32620710E+02</rscale>
<asrwt>0</asrwt>
<pdfrwt beam="1">  1        3 0.73774358E-03 0.32620710E+02</pdfrwt>
<pdfrwt beam="2">  1       -3 0.85348262E-02 0.32620710E+02</pdfrwt>
<totfact> 0.52176988E+05</totfact>
</mgrwt>
</event>
<event>
 4    1  0.1802450E-001  0.2639818E+02  0.7818608E-02  0.1641695E+00
         -3   -1    0    0    0  501 -0.00000000000E+00  0.00000000000E+00  0.35036203802E+02  0.35036327231E+02  0.93000000000E-01 0. -1.
          3   -1    0    0  501    0  0.00000000000E+00 -0.00000000000E+00 -0.49718906310E+01  0.49727603448E+01  0.93000000000E-01 0.  1.
        -13    1    1    2    0    0  0.41672887922E+01  0.11729848118E+02  0.83826208755E+01  0.15007835886E+02  0.10570000000E+00 0.  1.
         13    1    1    2    0    0 -0.41672887922E+01 -0.11729848118E+02  0.21681692296E+02  0.25001251690E+02  0.10570000000E+00 0. -1.
<mgrwt>
<rscale>  0 0.26398185E+02</rscale>
<asrwt>0</asrwt>
<pdfrwt beam="2">  1        3 0.76498264E-03 0.26398185E+02</pdfrwt>
<pdfrwt beam="1">  1       -3 0.53902617E-02 0.26398185E+02</pdfrwt>
<totfact> 0.90358579E+05</totfact>
</mgrwt>
</event>
<event>
 4    1  0.1802450E-001  0.4852244E+02  0.7818608E-02  0.1453478E+00
         -3   -1    0    0    0  501 -0.00000000000E+00  0.00000000000E+00  0.62267879158E+02  0.62267948608E+02  0.93000000000E-01 0.  1.
          3   -1    0    0  501    0  0.00000000000E+00 -0.00000000000E+00 -0.94525140821E+01  0.94529715684E+01  0.93000000000E-01 0. -1.
        -13    1    1    2    0    0  0.18199961891E+02  0.15522931962E+02  0.20422627518E+02  0.31453058941E+02  0.10570000000E+00 0. -1.
         13    1    1    2    0    0 -0.18199961891E+02 -0.15522931962E+02  0.32392737558E+02  0.40267861236E+02  0.10570000000E+00 0.  1.
<mgrwt>
<rscale>  0 0.48522444E+02</rscale>
<asrwt>0</asrwt>
<pdfrwt beam="2">  1        3 0.14542735E-02 0.48522444E+02</pdfrwt>
<pdfrwt beam="1">  1       -3 0.95797141E-02 0.48522444E+02</pdfrwt>
<totfact> 0.19267972E+05</totfact>
</mgrwt>
</event>
<event>
 4    1  0.1802450E-001  0.2960073E+02  0.7818608E-02  0.1602544E+00
          3   -1    0    0  501    0  0.00000000000E+00  0.00000000000E+00  0.27296559137E+02  0.27296717563E+02  0.93000000000E-01 0. -1.
         -3   -1    0    0    0  501 -0.00000000000E+00 -0.00000000000E+00 -0.80243988169E+01  0.80249377177E+01  0.93000000000E-01 0.  1.
        -13    1    1    2    0    0 -0.11047401291E+02  0.10823242683E+01  0.21316912448E+02  0.24034109717E+02  0.10570000000E+00 0. -1.
         13    1    1    2    0    0  0.11047401291E+02 -0.10823242683E+01 -0.20447521273E+01  0.11287545564E+02  0.10570000000E+00 0.  1.
<mgrwt>
<rscale>  0 0.29600729E+02</rscale>
<asrwt>0</asrwt>
<pdfrwt beam="1">  1        3 0.41995243E-02 0.29600729E+02</pdfrwt>
<pdfrwt beam="2">  1       -3 0.12345765E-02 0.29600729E+02</pdfrwt>
<totfact> 0.70452368E+05</totfact>
</mgrwt>
</event>
<event>
 4    1  0.1802450E-001  0.2951406E+02  0.7818608E-02  0.1603523E+00
          3   -1    0    0  501    0  0.00000000000E+00  0.00000000000E+00  0.15505505987E+02  0.15505784885E+02  0.93000000000E-01 0. -1.
         -3   -1    0    0    0  501 -0.00000000000E+00 -0.00000000000E+00 -0.14044124624E+02  0.14044432543E+02  0.93000000000E-01 0.  1.
        -13    1    1    2    0    0  0.46759522336E+01  0.13833522208E+02 -0.13998001681E+01  0.14669747066E+02  0.10570000000E+00 0. -1.
         13    1    1    2    0    0 -0.46759522336E+01 -0.13833522208E+02  0.28611815304E+01  0.14880470363E+02  0.10570000000E+00 0.  1.
<mgrwt>
<rscale>  0 0.29514060E+02</rscale>
<asrwt>0</asrwt>
<pdfrwt beam="1">  1        3 0.23855076E-02 0.29514060E+02</pdfrwt>
<pdfrwt beam="2">  1       -3 0.21606797E-02 0.29514060E+02</pdfrwt>
<totfact> 0.72249802E+05</totfact>
</mgrwt>
</event>
<event>
 4    1  0.1802450E-001  0.2912531E+02  0.7818608E-02  0.1607963E+00
         -3   -1    0    0    0  501 -0.00000000000E+00  0.00000000000E+00  0.98853176005E+01  0.98857550578E+01  0.93000000000E-01 0. -1.
          3   -1    0    0  501    0  0.00000000000E+00 -0.00000000000E+00 -0.21452110591E+02  0.21452312178E+02  0.93000000000E-01 0.  1.
        -13    1    1    2    0    0 -0.13742247860E+00 -0.12888502430E+02 -0.13075242725E+02  0.18360433672E+02  0.10570000000E+00 0.  1.
         13    1    1    2    0    0  0.13742247860E+00  0.12888502430E+02  0.15084497350E+01  0.12977633564E+02  0.10570000000E+00 0. -1.
<mgrwt>
<rscale>  0 0.29125311E+02</rscale>
<asrwt>0</asrwt>
<pdfrwt beam="2">  1        3 0.33003739E-02 0.29125311E+02</pdfrwt>
<pdfrwt beam="1">  1       -3 0.15208673E-02 0.29125311E+02</pdfrwt>
<totfact> 0.74078302E+05</totfact>
</mgrwt>
</event>
<event>
 4    1  0.1802450E-001  0.2207339E+02  0.7818608E-02  0.1706986E+00
         -3   -1    0    0    0  501 -0.00000000000E+00  0.00000000000E+00  0.10326816882E+03  0.10326821069E+03  0.93000000000E-01 0.  1.
          3   -1    0    0  501    0  0.00000000000E+00 -0.00000000000E+00 -0.11776615577E+01  0.11813279581E+01  0.93000000000E-01 0. -1.
        -13    1    1    2    0    0 -0.11246863706E+00  0.10964907785E+02  0.45143447950E+02  0.46456258107E+02  0.10570000000E+00 0. -1.
         13    1    1    2    0    0  0.11246863706E+00 -0.10964907785E+02  0.56947059307E+02  0.57993280543E+02  0.10570000000E+00 0.  1.
<mgrwt>
<rscale>  0 0.22073388E+02</rscale>
<asrwt>0</asrwt>
<pdfrwt beam="2">  1        3 0.18146396E-03 0.22073388E+02</pdfrwt>
<pdfrwt beam="1">  1       -3 0.15887695E-01 0.22073388E+02</pdfrwt>
<totfact> 0.11324402E+06</totfact>
</mgrwt>
</event>
<event>
 4    1  0.1802450E-001  0.2727019E+02  0.7818608E-02  0.1630384E+00
          3   -1    0    0  501    0  0.00000000000E+00  0.00000000000E+00  0.12352735396E+02  0.12353085476E+02  0.93000000000E-01 0.  1.
         -3   -1    0    0    0  501 -0.00000000000E+00 -0.00000000000E+00 -0.15049871339E+02  0.15050158681E+02  0.93000000000E-01 0. -1.
        -13    1    1    2    0    0  0.11142749831E+02 -0.41175930958E+01 -0.80736941711E+01  0.14363535664E+02  0.10570000000E+00 0. -1.
         13    1    1    2    0    0 -0.11142749831E+02  0.41175930958E+01  0.53765582285E+01  0.13039708493E+02  0.10570000000E+00 0.  1.
<mgrwt>
<rscale>  0 0.27270190E+02</rscale>
<asrwt>0</asrwt>
<pdfrwt beam="1">  1        3 0.19004699E-02 0.27270190E+02</pdfrwt>
<pdfrwt beam="2">  1       -3 0.23154139E-02 0.27270190E+02</pdfrwt>
<totfact> 0.87332044E+05</totfact>
</mgrwt>
</event>
<event>
 4    1  0.1802450E-001  0.3187275E+02  0.7818608E-02  0.1578265E+00
         -3   -1    0    0    0  501 -0.00000000000E+00  0.00000000000E+00  0.22420852693E+01  0.22440132252E+01  0.93000000000E-01 0.  1.
          3   -1    0    0  501    0  0.00000000000E+00 -0.00000000000E+00 -0.11322250675E+03  0.11322254494E+03  0.93000000000E-01 0. -1.
        -13    1    1    2    0    0  0.11557371270E+02  0.76993235932E+01 -0.83808895800E+02  0.84951719242E+02  0.10570000000E+00 0. -1.
         13    1    1    2    0    0 -0.11557371270E+02 -0.76993235932E+01 -0.27171525676E+02  0.30514838923E+02  0.10570000000E+00 0.  1.
<mgrwt>
<rscale>  0 0.31872749E+02</rscale>
<asrwt>0</asrwt>
<pdfrwt beam="2">  1        3 0.17418994E-01 0.31872749E+02</pdfrwt>
<pdfrwt beam="1">  1       -3 0.34508753E-03 0.31872749E+02</pdfrwt>
<totfact> 0.47992800E+05</totfact>
</mgrwt>
</event>
<event>
 4    1  0.1802450E-001  0.2231406E+02  0.7818608E-02  0.1702876E+00
          3   -1    0    0  501    0  0.00000000000E+00  0.00000000000E+00  0.16698473516E+02  0.16698732490E+02  0.93000000000E-01 0.  1.
         -3   -1    0    0    0  501 -0.00000000000E+00 -0.00000000000E+00 -0.74539287164E+01  0.74545088577E+01  0.93000000000E-01 0. -1.
        -13    1    1    2    0    0 -0.90462794006E+01  0.54455144927E+01  0.72263759347E+00  0.10584052941E+02  0.10570000000E+00 0. -1.
         13    1    1    2    0    0  0.90462794006E+01 -0.54455144927E+01  0.85219072065E+01  0.13569188406E+02  0.10570000000E+00 0.  1.
<mgrwt>
<rscale>  0 0.22314064E+02</rscale>
<asrwt>0</asrwt>
<pdfrwt beam="1">  1        3 0.25690605E-02 0.22314064E+02</pdfrwt>
<pdfrwt beam="2">  1       -3 0.11468228E-02 0.22314064E+02</pdfrwt>
<totfact> 0.13871939E+06</totfact>
</mgrwt>
</event>
<event>
 4    1  0.1802450E-001  0.2240913E+02  0.7818608E-02  0.1701271E+00
          3   -1    0    0  501    0  0.00000000000E+00  0.00000000000E+00  0.29389901642E+02  0.29390048784E+02  0.93000000000E-01 0. -1.
         -3   -1    0    0    0  501 -0.00000000000E+00 -0.00000000000E+00 -0.42709486364E+01  0.42719610549E+01  0.93000000000E-01 0.  1.
        -13    1    1    2    0    0 -0.95550650739E+01  0.39635816933E+01  0.19024309269E+02  0.21655132511E+02  0.10570000000E+00 0. -1.
         13    1    1    2    0    0  0.95550650739E+01 -0.39635816933E+01  0.60946437365E+01  0.12006877328E+02  0.10570000000E+00 0.  1.
<mgrwt>
<rscale>  0 0.22409130E+02</rscale>
<asrwt>0</asrwt>
<pdfrwt beam="1">  1        3 0.45216124E-02 0.22409130E+02</pdfrwt>
<pdfrwt beam="2">  1       -3 0.65715824E-03 0.22409130E+02</pdfrwt>
<totfact> 0.13308807E+06</totfact>
</mgrwt>
</event>
<event>
 4    1  0.1802450E-001  0.3531915E+02  0.7818608E-02  0.1545785E+00
          3   -1    0    0  501    0  0.00000000000E+00  0.00000000000E+00  0.11819199849E+03  0.11819203508E+03  0.93000000000E-01 0. -1.
         -3   -1    0    0    0  501 -0.00000000000E+00 -0.00000000000E+00 -0.26377369447E+01  0.26393759091E+01  0.93000000000E-01 0.  1.
        -13    1    1    2    0    0  0.78014192814E+01  0.15416110042E+02  0.45286086287E+02  0.48470190585E+02  0.10570000000E+00 0. -1.
         13    1    1    2    0    0 -0.78014192814E+01 -0.15416110042E+02  0.70268175258E+02  0.72361220403E+02  0.10570000000E+00 0.  1.
<mgrwt>
<rscale>  0 0.35319152E+02</rscale>
<asrwt>0</asrwt>
<pdfrwt beam="1">  1        3 0.18183507E-01 0.35319152E+02</pdfrwt>
<pdfrwt beam="2">  1       -3 0.40593472E-03 0.35319152E+02</pdfrwt>
<totfact> 0.37223953E+05</totfact>
</mgrwt>
</event>
<event>
 4    1  0.1802450E-001  0.3413446E+02  0.7818608E-02  0.1556424E+00
          3   -1    0    0  501    0  0.00000000000E+00  0.00000000000E+00  0.56664359113E+01  0.56671990380E+01  0.93000000000E-01 0. -1.
         -3   -1    0    0    0  501 -0.00000000000E+00 -0.00000000000E+00 -0.51402011035E+02  0.51402095166E+02  0.93000000000E-01 0.  1.
        -13    1    1    2    0    0  0.33125826401E+00  0.10686656024E+02 -0.45108717912E+02  0.46358623288E+02  0.10570000000E+00 0.  1.
         13    1    1    2    0    0 -0.33125826401E+00 -0.10686656024E+02 -0.62685721136E+00  0.10710670916E+02  0.10570000000E+00 0. -1.
<mgrwt>
<rscale>  0 0.34134462E+02</rscale>
<asrwt>0</asrwt>
<pdfrwt beam="1">  1        3 0.87182458E-03 0.34134462E+02</pdfrwt>
<pdfrwt beam="2">  1       -3 0.79080666E-02 0.34134462E+02</pdfrwt>
<totfact> 0.47281946E+05</totfact>
</mgrwt>
</event>
<event>
 4    1  0.1802450E-001  0.3159128E+02  0.7818608E-02  0.1581137E+00
         -3   -1    0    0    0  501 -0.00000000000E+00  0.00000000000E+00  0.53725247365E+01  0.53733296051E+01  0.93000000000E-01 0.  1.
          3   -1    0    0  501    0  0.00000000000E+00 -0.00000000000E+00 -0.46436085191E+02  0.46436178319E+02  0.93000000000E-01 0. -1.
        -13    1    1    2    0    0 -0.84245031107E+01 -0.13323812299E+02 -0.22167569626E+02  0.27201259942E+02  0.10570000000E+00 0. -1.
         13    1    1    2    0    0  0.84245031107E+01  0.13323812299E+02 -0.18895990829E+02  0.24608247982E+02  0.10570000000E+00 0.  1.
<mgrwt>
<rscale>  0 0.31591282E+02</rscale>
<asrwt>0</asrwt>
<pdfrwt beam="2">  1        3 0.71440819E-02 0.31591282E+02</pdfrwt>
<pdfrwt beam="1">  1       -3 0.82661138E-03 0.31591282E+02</pdfrwt>
<totfact> 0.57602704E+05</totfact>
</mgrwt>
</event>
<event>
 4    1  0.1802450E-001  0.2949358E+02  0.7818608E-02  0.1603755E+00
          3   -1    0    0  501    0  0.00000000000E+00  0.00000000000E+00  0.28725173700E+02  0.28725324247E+02  0.93000000000E-01 0. -1.
         -3   -1    0    0    0  501 -0.00000000000E+00 -0.00000000000E+00 -0.75701769156E+01  0.75707481488E+01  0.93000000000E-01 0.  1.
        -13    1    1    2    0    0 -0.37579191478E+01  0.10634854449E+02  0.22267605466E+02  0.24961560671E+02  0.10570000000E+00 0. -1.
         13    1    1    2    0    0  0.37579191478E+01 -0.10634854449E+02 -0.11126086811E+01  0.11334511725E+02  0.10570000000E+00 0.  1.
<mgrwt>
<rscale>  0 0.29493575E+02</rscale>
<asrwt>0</asrwt>
<pdfrwt beam="1">  1        3 0.44193130E-02 0.29493575E+02</pdfrwt>
<pdfrwt beam="2">  1       -3 0.11646981E-02 0.29493575E+02</pdfrwt>
<totfact> 0.70834661E+05</totfact>
</mgrwt>
</event>
<event>
 4    1  0.1802450E-001  0.4539117E+02  0.7818608E-02  0.1471914E+00
         -3   -1    0    0    0  501 -0.00000000000E+00  0.00000000000E+00  0.56336663730E+02  0.56336740492E+02  0.93000000000E-01 0. -1.
          3   -1    0    0  501    0  0.00000000000E+00 -0.00000000000E+00 -0.91427424890E+01  0.91432154749E+01  0.93000000000E-01 0.  1.
        -13    1    1    2    0    0  0.45871279831E+01 -0.17779453952E+02  0.43545807951E+01  0.18871255188E+02  0.10570000000E+00 0.  1.
         13    1    1    2    0    0 -0.45871279831E+01  0.17779453952E+02  0.42839340446E+02  0.46608700779E+02  0.10570000000E+00 0. -1.
<mgrwt>
<rscale>  0 0.45391171E+02</rscale>
<asrwt>0</asrwt>
<pdfrwt beam="2">  1        3 0.14066181E-02 0.45391171E+02</pdfrwt>
<pdfrwt beam="1">  1       -3 0.86672213E-02 0.45391171E+02</pdfrwt>
<totfact> 0.23122923E+05</totfact>
</mgrwt>
</event>
<event>
 4    1  0.1802450E-001  0.4001025E+02  0.7818608E-02  0.1508136E+00
         -3   -1    0    0    0  501 -0.00000000000E+00  0.00000000000E+00  0.16707160008E+02  0.16707418847E+02  0.93000000000E-01 0. -1.
          3   -1    0    0  501    0  0.00000000000E+00 -0.00000000000E+00 -0.23953566667E+02  0.23953747203E+02  0.93000000000E-01 0.  1.
        -13    1    1    2    0    0  0.17726862835E+02 -0.30245608393E+01  0.52831732208E+01  0.18743338176E+02  0.10570000000E+00 0. -1.
         13    1    1    2    0    0 -0.17726862835E+02  0.30245608393E+01 -0.12529579881E+02  0.21917827874E+02  0.10570000000E+00 0.  1.
<mgrwt>
<rscale>  0 0.40010249E+02</rscale>
<asrwt>0</asrwt>
<pdfrwt beam="2">  1        3 0.36851979E-02 0.40010249E+02</pdfrwt>
<pdfrwt beam="1">  1       -3 0.25703661E-02 0.40010249E+02</pdfrwt>
<totfact> 0.33766689E+05</totfact>
</mgrwt>
</event>
<event>
 4    1  0.1802450E-001  0.2169892E+02  0.7818608E-02  0.1713512E+00
          3   -1    0    0  501    0  0.00000000000E+00  0.00000000000E+00  0.17873198919E+02  0.17873440871E+02  0.93000000000E-01 0. -1.
         -3   -1    0    0    0  501 -0.00000000000E+00 -0.00000000000E+00 -0.65852691057E+01  0.65859257659E+01  0.93000000000E-01 0.  1.
        -13    1    1    2    0    0  0.10064906200E+02 -0.40451471286E+01  0.58520869388E+01  0.12325731059E+02  0.10570000000E+00 0. -1.
         13    1    1    2    0    0 -0.10064906200E+02  0.40451471286E+01  0.54358428740E+01  0.12133635578E+02  0.10570000000E+00 0.  1.
<mgrwt>
<rscale>  0 0.21698923E+02</rscale>
<asrwt>0</asrwt>
<pdfrwt beam="1">  1        3 0.27497920E-02 0.21698923E+02</pdfrwt>
<pdfrwt beam="2">  1       -3 0.10131874E-02 0.21698923E+02</pdfrwt>
<totfact> 0.14736876E+06</totfact>
</mgrwt>
</event>
<event>
 4    1  0.1802450E-001  0.3500716E+02  0.7818608E-02  0.1548537E+00
          3   -1    0    0  501    0  0.00000000000E+00  0.00000000000E+00  0.18940438376E+01  0.18963256732E+01  0.93000000000E-01 0.  1.
         -3   -1    0    0    0  501 -0.00000000000E+00 -0.00000000000E+00 -0.16165754225E+03  0.16165756900E+03  0.93000000000E-01 0. -1.
        -13    1    1    2    0    0  0.13281792957E+02  0.11286936231E+02 -0.87361543509E+02  0.89083395818E+02  0.10570000000E+00 0.  1.
         13    1    1    2    0    0 -0.13281792957E+02 -0.11286936231E+02 -0.72401954901E+02  0.74470498854E+02  0.10570000000E+00 0. -1.
<mgrwt>
<rscale>  0 0.35007157E+02</rscale>
<asrwt>0</asrwt>
<pdfrwt beam="1">  1        3 0.29156907E-03 0.35007157E+02</pdfrwt>
<pdfrwt beam="2">  1       -3 0.24870558E-01 0.35007157E+02</pdfrwt>
<totfact> 0.34676065E+05</totfact>
</mgrwt>
</event>
<event>
 4    1  0.1802450E-001  0.2684845E+02  0.7818608E-02  0.1635789E+00
          3   -1    0    0  501    0  0.00000000000E+00  0.00000000000E+00  0.11315334531E+02  0.11315716705E+02  0.93000000000E-01 0.  1.
         -3   -1    0    0    0  501 -0.00000000000E+00 -0.00000000000E+00 -0.15925367908E+02  0.15925639454E+02  0.93000000000E-01 0. -1.
        -13    1    1    2    0    0 -0.76655068961E+01  0.10505575095E+02  0.10710627387E+01  0.13049346801E+02  0.10570000000E+00 0.  1.
         13    1    1    2    0    0  0.76655068961E+01 -0.10505575095E+02 -0.56810961154E+01  0.14192009358E+02  0.10570000000E+00 0. -1.
<mgrwt>
<rscale>  0 0.26848446E+02</rscale>
<asrwt>0</asrwt>
<pdfrwt beam="1">  1        3 0.17408710E-02 0.26848446E+02</pdfrwt>
<pdfrwt beam="2">  1       -3 0.24501069E-02 0.26848446E+02</pdfrwt>
<totfact> 0.90555967E+05</totfact>
</mgrwt>
</event>
<event>
 4    1  0.1802450E-001  0.4475302E+02  0.7818608E-02  0.1475889E+00
         -3   -1    0    0    0  501 -0.00000000000E+00  0.00000000000E+00  0.88358018622E+02  0.88358067565E+02  0.93000000000E-01 0. -1.
          3   -1    0    0  501    0  0.00000000000E+00 -0.00000000000E+00 -0.56663786907E+01  0.56671418252E+01  0.93000000000E-01 0.  1.
        -13    1    1    2    0    0 -0.17089033162E+02  0.35879907158E+01  0.70743652087E+02  0.72866893819E+02  0.10570000000E+00 0. -1.
         13    1    1    2    0    0  0.17089033162E+02 -0.35879907158E+01  0.11947987845E+02  0.21158315571E+02  0.10570000000E+00 0.  1.
<mgrwt>
<rscale>  0 0.44753019E+02</rscale>
<asrwt>0</asrwt>
<pdfrwt beam="2">  1        3 0.87181301E-03 0.44753019E+02</pdfrwt>
<pdfrwt beam="1">  1       -3 0.13593604E-01 0.44753019E+02</pdfrwt>
<totfact> 0.22316165E+05</totfact>
</mgrwt>
</event>
<event>
 4    1  0.1802450E-001  0.2627773E+02  0.7818608E-02  0.1643300E+00
         -3   -1    0    0    0  501 -0.00000000000E+00  0.00000000000E+00  0.32274511046E+01  0.32287907384E+01  0.93000000000E-01 0. -1.
          3   -1    0    0  501    0  0.00000000000E+00 -0.00000000000E+00 -0.53475499798E+02  0.53475580667E+02  0.93000000000E-01 0.  1.
        -13    1    1    2    0    0 -0.45539387209E+01  0.11250476198E+02 -0.35979521543E+02  0.37971683075E+02  0.10570000000E+00 0.  1.
         13    1    1    2    0    0  0.45539387209E+01 -0.11250476198E+02 -0.14268527151E+02  0.18732688331E+02  0.10570000000E+00 0. -1.
<mgrwt>
<rscale>  0 0.26277735E+02</rscale>
<asrwt>0</asrwt>
<pdfrwt beam="2">  1        3 0.82271086E-02 0.26277735E+02</pdfrwt>
<pdfrwt beam="1">  1       -3 0.49664025E-03 0.26277735E+02</pdfrwt>
<totfact> 0.86902942E+05</totfact>
</mgrwt>
</event>
<event>
 4    1  0.1802450E-001  0.6681259E+02  0.7818608E-02  0.1371280E+00
          3   -1    0    0  501    0  0.00000000000E+00  0.00000000000E+00  0.27744817572E+02  0.27744973438E+02  0.93000000000E-01 0. -1.
         -3   -1    0    0    0  501 -0.00000000000E+00 -0.00000000000E+00 -0.40222700446E+02  0.40222807959E+02  0.93000000000E-01 0.  1.
        -13    1    1    2    0    0  0.21236775910E+02  0.19558945347E+01  0.19918336020E+02  0.29181800095E+02  0.10570000000E+00 0. -1.
         13    1    1    2    0    0 -0.21236775910E+02 -0.19558945347E+01 -0.32396218894E+02  0.38785981303E+02  0.10570000000E+00 0.  1.
<mgrwt>
<rscale>  0 0.66812587E+02</rscale>
<asrwt>0</asrwt>
<pdfrwt beam="1">  1        3 0.42684537E-02 0.66812587E+02</pdfrwt>
<pdfrwt beam="2">  1       -3 0.61881280E-02 0.66812587E+02</pdfrwt>
<totfact> 0.85591610E+04</totfact>
</mgrwt>
</event>
<event>
 4    1  0.1802450E-001  0.3378017E+02  0.7818608E-02  0.1559708E+00
         -3   -1    0    0    0  501 -0.00000000000E+00  0.00000000000E+00  0.77234105910E+02  0.77234161902E+02  0.93000000000E-01 0. -1.
          3   -1    0    0  501    0  0.00000000000E+00 -0.00000000000E+00 -0.36929974994E+01  0.36941683138E+01  0.93000000000E-01 0.  1.
        -13    1    1    2    0    0  0.13654782063E+02 -0.94068980539E+01  0.44467175770E+02  0.47458231084E+02  0.10570000000E+00 0. -1.
         13    1    1    2    0    0 -0.13654782063E+02  0.94068980539E+01  0.29073932641E+02  0.33470099132E+02  0.10570000000E+00 0.  1.
<mgrwt>
<rscale>  0 0.33780172E+02</rscale>
<asrwt>0</asrwt>
<pdfrwt beam="2">  1        3 0.56824788E-03 0.33780172E+02</pdfrwt>
<pdfrwt beam="1">  1       -3 0.11882264E-01 0.33780172E+02</pdfrwt>
<totfact> 0.45505968E+05</totfact>
</mgrwt>
</event>
<event>
 4    1  0.1802450E-001  0.5001302E+02  0.7818608E-02  0.1445271E+00
          3   -1    0    0  501    0  0.00000000000E+00  0.00000000000E+00  0.29961596721E+02  0.29961741056E+02  0.93000000000E-01 0. -1.
         -3   -1    0    0    0  501 -0.00000000000E+00 -0.00000000000E+00 -0.20870606191E+02  0.20870813395E+02  0.93000000000E-01 0.  1.
        -13    1    1    2    0    0 -0.84467174805E+01  0.15366047333E+02  0.22666042230E+02  0.28656990242E+02  0.10570000000E+00 0. -1.
         13    1    1    2    0    0  0.84467174805E+01 -0.15366047333E+02 -0.13575051700E+02  0.22175564209E+02  0.10570000000E+00 0.  1.
<mgrwt>
<rscale>  0 0.50013023E+02</rscale>
<asrwt>0</asrwt>
<pdfrwt beam="1">  1        3 0.46095034E-02 0.50013023E+02</pdfrwt>
<pdfrwt beam="2">  1       -3 0.32108896E-02 0.50013023E+02</pdfrwt>
<totfact> 0.18849287E+05</totfact>
</mgrwt>
</event>
<event>
 4    1  0.1802450E-001  0.2341035E+02  0.7818608E-02  0.1684943E+00
          3   -1    0    0  501    0  0.00000000000E+00  0.00000000000E+00  0.18139846237E+01  0.18163670375E+01  0.93000000000E-01 0. -1.
         -3   -1    0    0    0  501 -0.00000000000E+00 -0.00000000000E+00 -0.75478515082E+02  0.75478572376E+02  0.93000000000E-01 0.  1.
        -13    1    1    2    0    0 -0.16297009577E+01 -0.10552110460E+02 -0.20998693774E+02  0.23557573583E+02  0.10570000000E+00 0. -1.
         13    1    1    2    0    0  0.16297009577E+01  0.10552110460E+02 -0.52665836684E+02  0.53737365831E+02  0.10570000000E+00 0.  1.
<mgrwt>
<rscale>  0 0.23410353E+02</rscale>
<asrwt>0</asrwt>
<pdfrwt beam="1">  1        3 0.27926229E-03 0.23410353E+02</pdfrwt>
<pdfrwt beam="2">  1       -3 0.11612264E-01 0.23410353E+02</pdfrwt>
<totfact> 0.10649018E+06</totfact>
</mgrwt>
</event>
<event>
 4    1  0.1802450E-001  0.5124895E+02  0.7818608E-02  0.1438719E+00
          3   -1    0    0  501    0  0.00000000000E+00  0.00000000000E+00  0.79649440852E+02  0.79649495146E+02  0.93000000000E-01 0. -1.
         -3   -1    0    0    0  501 -0.00000000000E+00 -0.00000000000E+00 -0.82434774621E+01  0.82440020420E+01  0.93000000000E-01 0.  1.
        -13    1    1    2    0    0 -0.81094001928E+01  0.17047222619E+02  0.65419681043E+02  0.68089030033E+02  0.10570000000E+00 0. -1.
         13    1    1    2    0    0  0.81094001928E+01 -0.17047222619E+02  0.59862823470E+01  0.19804467156E+02  0.10570000000E+00 0.  1.
<mgrwt>
<rscale>  0 0.51248954E+02</rscale>
<asrwt>0</asrwt>
<pdfrwt beam="1">  1        3 0.12253805E-01 0.51248954E+02</pdfrwt>
<pdfrwt beam="2">  1       -3 0.12682718E-02 0.51248954E+02</pdfrwt>
<totfact> 0.16143972E+05</totfact>
</mgrwt>
</event>
<event>
 4    1  0.1802450E-001  0.2126117E+02  0.7818608E-02  0.1721352E+00
         -3   -1    0    0    0  501 -0.00000000000E+00  0.00000000000E+00  0.52724917713E+01  0.52733119080E+01  0.93000000000E-01 0. -1.
          3   -1    0    0  501    0  0.00000000000E+00 -0.00000000000E+00 -0.21431175095E+02  0.21431376880E+02  0.93000000000E-01 0.  1.
        -13    1    1    2    0    0  0.55403927648E+01 -0.89315706813E+01 -0.60817943272E+01  0.12143652727E+02  0.10570000000E+00 0.  1.
         13    1    1    2    0    0 -0.55403927648E+01  0.89315706813E+01 -0.10076888997E+02  0.14561036061E+02  0.10570000000E+00 0. -1.
<mgrwt>
<rscale>  0 0.21261170E+02</rscale>
<asrwt>0</asrwt>
<pdfrwt beam="2">  1        3 0.32971824E-02 0.21261170E+02</pdfrwt>
<pdfrwt beam="1">  1       -3 0.81123120E-03 0.21261170E+02</pdfrwt>
<totfact> 0.15290142E+06</totfact>
</mgrwt>
</event>
<event>
 4    1  0.1802450E-001  0.6011443E+02  0.7818608E-02  0.1397352E+00
          3   -1    0    0  501    0  0.00000000000E+00  0.00000000000E+00  0.46074322499E+02  0.46074416358E+02  0.93000000000E-01 0. -1.
         -3   -1    0    0    0  501 -0.00000000000E+00 -0.00000000000E+00 -0.19608014597E+02  0.19608235143E+02  0.93000000000E-01 0.  1.
        -13    1    1    2    0    0 -0.21545736735E+02  0.16490844635E+02  0.27363926133E+02  0.38535209278E+02  0.10570000000E+00 0. -1.
         13    1    1    2    0    0  0.21545736735E+02 -0.16490844635E+02 -0.89761823073E+00  0.27147442222E+02  0.10570000000E+00 0.  1.
<mgrwt>
<rscale>  0 0.60114435E+02</rscale>
<asrwt>0</asrwt>
<pdfrwt beam="1">  1        3 0.70883814E-02 0.60114435E+02</pdfrwt>
<pdfrwt beam="2">  1       -3 0.30166418E-02 0.60114435E+02</pdfrwt>
<totfact> 0.11334691E+05</totfact>
</mgrwt>
</event>
<event>
 4    1  0.1802450E-001  0.3560730E+02  0.7818608E-02  0.1543273E+00
          3   -1    0    0  501    0  0.00000000000E+00  0.00000000000E+00  0.28764101126E+02  0.28764251470E+02  0.93000000000E-01 0.  1.
         -3   -1    0    0    0  501 -0.00000000000E+00 -0.00000000000E+00 -0.11019264215E+02  0.11019656657E+02  0.93000000000E-01 0. -1.
        -13    1    1    2    0    0 -0.69277572449E+01 -0.14026818267E+02  0.18367031211E+02  0.24126841052E+02  0.10570000000E+00 0. -1.
         13    1    1    2    0    0  0.69277572449E+01  0.14026818267E+02 -0.62219429913E+00  0.15657067075E+02  0.10570000000E+00 0.  1.
<mgrwt>
<rscale>  0 0.35607304E+02</rscale>
<asrwt>0</asrwt>
<pdfrwt beam="1">  1        3 0.44252880E-02 0.35607304E+02</pdfrwt>
<pdfrwt beam="2">  1       -3 0.16953132E-02 0.35607304E+02</pdfrwt>
<totfact> 0.44913537E+05</totfact>
</mgrwt>
</event>
<event>
 4    1  0.1802450E-001  0.4649712E+02  0.7818608E-02  0.1465206E+00
          3   -1    0    0  501    0  0.00000000000E+00  0.00000000000E+00  0.90912082594E+02  0.90912130162E+02  0.93000000000E-01 0. -1.
         -3   -1    0    0    0  501 -0.00000000000E+00 -0.00000000000E+00 -0.59448426982E+01  0.59455700909E+01  0.93000000000E-01 0.  1.
        -13    1    1    2    0    0  0.45443958270E+01 -0.13985275907E+02  0.79993413787E+02  0.81333860707E+02  0.10570000000E+00 0. -1.
         13    1    1    2    0    0 -0.45443958270E+01  0.13985275907E+02  0.49738261090E+01  0.15523839547E+02  0.10570000000E+00 0.  1.
<mgrwt>
<rscale>  0 0.46497121E+02</rscale>
<asrwt>0</asrwt>
<pdfrwt beam="1">  1        3 0.13986534E-01 0.46497121E+02</pdfrwt>
<pdfrwt beam="2">  1       -3 0.91465076E-03 0.46497121E+02</pdfrwt>
<totfact> 0.20160363E+05</totfact>
</mgrwt>
</event>
<event>
 4    1  0.1802450E-001  0.3899771E+02  0.7818608E-02  0.1515719E+00
         -3   -1    0    0    0  501 -0.00000000000E+00  0.00000000000E+00  0.22428188619E+02  0.22428381433E+02  0.93000000000E-01 0. -1.
          3   -1    0    0  501    0  0.00000000000E+00 -0.00000000000E+00 -0.16951726075E+02  0.16951981180E+02  0.93000000000E-01 0.  1.
        -13    1    1    2    0    0  0.78034547309E+01 -0.15894762834E+02 -0.55062385635E+01  0.18543657322E+02  0.10570000000E+00 0.  1.
         13    1    1    2    0    0 -0.78034547309E+01  0.15894762834E+02  0.10982701107E+02  0.20836705291E+02  0.10570000000E+00 0. -1.
<mgrwt>
<rscale>  0 0.38997709E+02</rscale>
<asrwt>0</asrwt>
<pdfrwt beam="2">  1        3 0.26079923E-02 0.38997709E+02</pdfrwt>
<pdfrwt beam="1">  1       -3 0.34505250E-02 0.38997709E+02</pdfrwt>
<totfact> 0.36081307E+05</totfact>
</mgrwt>
</event>
<event>
 4    1  0.1802450E-001  0.2333831E+02  0.7818608E-02  0.1686084E+00
          3   -1    0    0  501    0  0.00000000000E+00  0.00000000000E+00  0.46769040428E+02  0.46769132893E+02  0.93000000000E-01 0.  1.
         -3   -1    0    0    0  501 -0.00000000000E+00 -0.00000000000E+00 -0.29106867941E+01  0.29121721469E+01  0.93000000000E-01 0. -1.
        -13    1    1    2    0    0 -0.88985753788E+01 -0.60282590297E+01  0.31598809079E+02  0.33376945013E+02  0.10570000000E+00 0.  1.
         13    1    1    2    0    0  0.88985753788E+01  0.60282590297E+01  0.12259544555E+02  0.16304360027E+02  0.10570000000E+00 0. -1.
<mgrwt>
<rscale>  0 0.23338314E+02</rscale>
<asrwt>0</asrwt>
<pdfrwt beam="1">  1        3 0.71953589E-02 0.23338314E+02</pdfrwt>
<pdfrwt beam="2">  1       -3 0.44791930E-03 0.23338314E+02</pdfrwt>
<totfact> 0.11575641E+06</totfact>
</mgrwt>
</event>
<event>
 4    1  0.1802450E-001  0.3012084E+02  0.7818608E-02  0.1596757E+00
          3   -1    0    0  501    0  0.00000000000E+00  0.00000000000E+00  0.25096486871E+02  0.25096659185E+02  0.93000000000E-01 0. -1.
         -3   -1    0    0    0  501 -0.00000000000E+00 -0.00000000000E+00 -0.90373289566E+01  0.90378074592E+01  0.93000000000E-01 0.  1.
        -13    1    1    2    0    0  0.94801460230E+01  0.52926796243E+01  0.19856694307E+02  0.22631506965E+02  0.10570000000E+00 0. -1.
         13    1    1    2    0    0 -0.94801460230E+01 -0.52926796243E+01 -0.37975363933E+01  0.11502959679E+02  0.10570000000E+00 0.  1.
<mgrwt>
<rscale>  0 0.30120844E+02</rscale>
<asrwt>0</asrwt>
<pdfrwt beam="1">  1        3 0.38610481E-02 0.30120844E+02</pdfrwt>
<pdfrwt beam="2">  1       -3 0.13904084E-02 0.30120844E+02</pdfrwt>
<totfact> 0.67896487E+05</totfact>
</mgrwt>
</event>
<event>
 4    1  0.1802450E-001  0.2553572E+02  0.7818608E-02  0.1653424E+00
         -3   -1    0    0    0  501 -0.00000000000E+00  0.00000000000E+00  0.11793227283E+03  0.11793230950E+03  0.93000000000E-01 0. -1.
          3   -1    0    0  501    0  0.00000000000E+00 -0.00000000000E+00 -0.13807028826E+01  0.13838314385E+01  0.93000000000E-01 0.  1.
        -13    1    1    2    0    0  0.11302929380E+02  0.59243374951E+01  0.56447534174E+02  0.57872180485E+02  0.10570000000E+00 0. -1.
         13    1    1    2    0    0 -0.11302929380E+02 -0.59243374951E+01  0.60104035774E+02  0.61443960453E+02  0.10570000000E+00 0.  1.
<mgrwt>
<rscale>  0 0.25535721E+02</rscale>
<asrwt>0</asrwt>
<pdfrwt beam="2">  1        3 0.21265939E-03 0.25535721E+02</pdfrwt>
<pdfrwt beam="1">  1       -3 0.18143663E-01 0.25535721E+02</pdfrwt>
<totfact> 0.79126314E+05</totfact>
</mgrwt>
</event>
<event>
 4    1  0.1802450E-001  0.2929404E+02  0.7818608E-02  0.1606026E+00
         -3   -1    0    0    0  501 -0.00000000000E+00  0.00000000000E+00  0.29667859723E+02  0.29668005487E+02  0.93000000000E-01 0. -1.
          3   -1    0    0  501    0  0.00000000000E+00 -0.00000000000E+00 -0.72307721359E+01  0.72313701800E+01  0.93000000000E-01 0.  1.
        -13    1    1    2    0    0 -0.26285566299E+01  0.12553192273E+02  0.23088205350E+01  0.13032028658E+02  0.10570000000E+00 0.  1.
         13    1    1    2    0    0  0.26285566299E+01 -0.12553192273E+02  0.20128267052E+02  0.23867347008E+02  0.10570000000E+00 0. -1.
<mgrwt>
<rscale>  0 0.29294044E+02</rscale>
<asrwt>0</asrwt>
<pdfrwt beam="2">  1        3 0.11124837E-02 0.29294044E+02</pdfrwt>
<pdfrwt beam="1">  1       -3 0.45643434E-02 0.29294044E+02</pdfrwt>
<totfact> 0.71829319E+05</totfact>
</mgrwt>
</event>
<event>
 4    1  0.1802450E-001  0.8050098E+02  0.7818608E-02  0.1327636E+00
          3   -1    0    0  501    0  0.00000000000E+00  0.00000000000E+00  0.25380077031E+03  0.25380078735E+03  0.93000000000E-01 0. -1.
         -3   -1    0    0    0  501 -0.00000000000E+00 -0.00000000000E+00 -0.63830049465E+01  0.63836824127E+01  0.93000000000E-01 0.  1.
        -13    1    1    2    0    0  0.38754261383E+02  0.67044812366E+01  0.15137051544E+03  0.15639656953E+03  0.10570000000E+00 0.  1.
         13    1    1    2    0    0 -0.38754261383E+02 -0.67044812366E+01  0.96047249930E+02  0.10378790024E+03  0.10570000000E+00 0. -1.
<mgrwt>
<rscale>  0 0.80500979E+02</rscale>
<asrwt>0</asrwt>
<pdfrwt beam="1">  1        3 0.39046322E-01 0.80500979E+02</pdfrwt>
<pdfrwt beam="2">  1       -3 0.98205427E-03 0.80500979E+02</pdfrwt>
<totfact> 0.35764689E+04</totfact>
</mgrwt>
</event>
<event>
 4    1  0.1802450E-001  0.5462750E+02  0.7818608E-02  0.1421869E+00
         -3   -1    0    0    0  501 -0.00000000000E+00  0.00000000000E+00  0.55673811674E+02  0.55673889350E+02  0.93000000000E-01 0.  1.
          3   -1    0    0  501    0  0.00000000000E+00 -0.00000000000E+00 -0.13399964314E+02  0.13400287035E+02  0.93000000000E-01 0. -1.
        -13    1    1    2    0    0 -0.85747496403E+01  0.16682935344E+02 -0.39676809641E+01  0.19172906086E+02  0.10570000000E+00 0. -1.
         13    1    1    2    0    0  0.85747496403E+01 -0.16682935344E+02  0.46241528325E+02  0.49901270298E+02  0.10570000000E+00 0.  1.
<mgrwt>
<rscale>  0 0.54627499E+02</rscale>
<asrwt>0</asrwt>
<pdfrwt beam="2">  1        3 0.20615638E-02 0.54627499E+02</pdfrwt>
<pdfrwt beam="1">  1       -3 0.85652325E-02 0.54627499E+02</pdfrwt>
<totfact> 0.14373409E+05</totfact>
</mgrwt>
</event>
<event>
 4    1  0.1802450E-001  0.2550936E+02  0.7818608E-02  0.1653792E+00
         -3   -1    0    0    0  501 -0.00000000000E+00  0.00000000000E+00  0.10037605467E+03  0.10037609776E+03  0.93000000000E-01 0.  1.
          3   -1    0    0  501    0  0.00000000000E+00 -0.00000000000E+00 -0.16193457231E+01  0.16220140477E+01  0.93000000000E-01 0. -1.
        -13    1    1    2    0    0  0.12415315852E+02  0.67495136250E+00  0.38016107049E+02  0.39997889879E+02  0.10570000000E+00 0. -1.
         13    1    1    2    0    0 -0.12415315852E+02 -0.67495136250E+00  0.60740601902E+02  0.62000221927E+02  0.10570000000E+00 0.  1.
<mgrwt>
<rscale>  0 0.25509356E+02</rscale>
<asrwt>0</asrwt>
<pdfrwt beam="2">  1        3 0.24933875E-03 0.25509356E+02</pdfrwt>
<pdfrwt beam="1">  1       -3 0.15442674E-01 0.25509356E+02</pdfrwt>
<totfact> 0.82608472E+05</totfact>
</mgrwt>
</event>
<event>
 4    1  0.1802450E-001  0.2571890E+02  0.7818608E-02  0.1650886E+00
         -3   -1    0    0    0  501 -0.00000000000E+00  0.00000000000E+00  0.45979577581E+02  0.45979671634E+02  0.93000000000E-01 0. -1.
          3   -1    0    0  501    0  0.00000000000E+00 -0.00000000000E+00 -0.35957982990E+01  0.35970007516E+01  0.93000000000E-01 0.  1.
        -13    1    1    2    0    0  0.58680798107E+01  0.11088936663E+02  0.15754939442E+02  0.20140212667E+02  0.10570000000E+00 0.  1.
         13    1    1    2    0    0 -0.58680798107E+01 -0.11088936663E+02  0.26628839840E+02  0.29436459718E+02  0.10570000000E+00 0. -1.
<mgrwt>
<rscale>  0 0.25718898E+02</rscale>
<asrwt>0</asrwt>
<pdfrwt beam="2">  1        3 0.55329948E-03 0.25718898E+02</pdfrwt>
<pdfrwt beam="1">  1       -3 0.70738807E-02 0.25718898E+02</pdfrwt>
<totfact> 0.93151735E+05</totfact>
</mgrwt>
</event>
<event>
 4    1  0.1802450E-001  0.4100835E+02  0.7818608E-02  0.1500920E+00
          3   -1    0    0  501    0  0.00000000000E+00  0.00000000000E+00  0.16081118984E+03  0.16081121673E+03  0.93000000000E-01 0. -1.
         -3   -1    0    0    0  501 -0.00000000000E+00 -0.00000000000E+00 -0.26135233061E+01  0.26151774455E+01  0.93000000000E-01 0.  1.
        -13    1    1    2    0    0 -0.18324381490E+02  0.50538799769E+01  0.10973184703E+03  0.11136612629E+03  0.10570000000E+00 0. -1.
         13    1    1    2    0    0  0.18324381490E+02 -0.50538799769E+01  0.48465819510E+02  0.52060267893E+02  0.10570000000E+00 0.  1.
<mgrwt>
<rscale>  0 0.41008348E+02</rscale>
<asrwt>0</asrwt>
<pdfrwt beam="1">  1        3 0.24740316E-01 0.41008348E+02</pdfrwt>
<pdfrwt beam="2">  1       -3 0.40220976E-03 0.41008348E+02</pdfrwt>
<totfact> 0.23729532E+05</totfact>
</mgrwt>
</event>
<event>
 4    1  0.1802450E-001  0.2112507E+02  0.7818608E-02  0.1723838E+00
          3   -1    0    0  501    0  0.00000000000E+00  0.00000000000E+00  0.28908238680E+01  0.28923194215E+01  0.93000000000E-01 0. -1.
         -3   -1    0    0    0  501 -0.00000000000E+00 -0.00000000000E+00 -0.38582020247E+02  0.38582132333E+02  0.93000000000E-01 0.  1.
        -13    1    1    2    0    0  0.92404818104E+01 -0.45815536442E+01 -0.22313454662E+02  0.24582078215E+02  0.10570000000E+00 0. -1.
         13    1    1    2    0    0 -0.92404818104E+01  0.45815536442E+01 -0.13377741717E+02  0.16892373540E+02  0.10570000000E+00 0.  1.
<mgrwt>
<rscale>  0 0.21125072E+02</rscale>
<asrwt>0</asrwt>
<pdfrwt beam="1">  1        3 0.44486582E-03 0.21125072E+02</pdfrwt>
<pdfrwt beam="2">  1       -3 0.59358187E-02 0.21125072E+02</pdfrwt>
<totfact> 0.14776728E+06</totfact>
</mgrwt>
</event>
<event>
 4    1  0.1802450E-001  0.3065006E+02  0.7818608E-02  0.1591012E+00
          3   -1    0    0  501    0  0.00000000000E+00  0.00000000000E+00  0.24250091609E+02  0.24250269937E+02  0.93000000000E-01 0. -1.
         -3   -1    0    0    0  501 -0.00000000000E+00 -0.00000000000E+00 -0.96843305416E+01  0.96847770774E+01  0.93000000000E-01 0.  1.
        -13    1    1    2    0    0  0.28309821324E+00  0.12387454505E+02 -0.27011428747E+01  0.12682133851E+02  0.10570000000E+00 0.  1.
         13    1    1    2    0    0 -0.28309821324E+00 -0.12387454505E+02  0.17266903942E+02  0.21252913163E+02  0.10570000000E+00 0. -1.
<mgrwt>
<rscale>  0 0.30650057E+02</rscale>
<asrwt>0</asrwt>
<pdfrwt beam="1">  1        3 0.37308313E-02 0.30650057E+02</pdfrwt>
<pdfrwt beam="2">  1       -3 0.14899451E-02 0.30650057E+02</pdfrwt>
<totfact> 0.65223784E+05</totfact>
</mgrwt>
</event>
<event>
 4    1  0.1802450E-001  0.2431069E+02  0.7818608E-02  0.1671105E+00
          3   -1    0    0  501    0  0.00000000000E+00  0.00000000000E+00  0.92733133773E+02  0.92733180407E+02  0.93000000000E-01 0.  1.
         -3   -1    0    0    0  501 -0.00000000000E+00 -0.00000000000E+00 -0.15919032999E+01  0.15946175454E+01  0.93000000000E-01 0. -1.
        -13    1    1    2    0    0 -0.10917638218E+02  0.25267100138E+01  0.27304414764E+02  0.29514764540E+02  0.10570000000E+00 0. -1.
         13    1    1    2    0    0  0.10917638218E+02 -0.25267100138E+01  0.63836815709E+02  0.64813033413E+02  0.10570000000E+00 0.  1.
<mgrwt>
<rscale>  0 0.24310688E+02</rscale>
<asrwt>0</asrwt>
<pdfrwt beam="1">  1        3 0.14266845E-01 0.24310688E+02</pdfrwt>
<pdfrwt beam="2">  1       -3 0.24512063E-03 0.24310688E+02</pdfrwt>
<totfact> 0.93752277E+05</totfact>
</mgrwt>
</event>
<event>
 4    1  0.1802450E-001  0.2998101E+02  0.7818608E-02  0.1598299E+00
          3   -1    0    0  501    0  0.00000000000E+00  0.00000000000E+00  0.19435706186E+02  0.19435928688E+02  0.93000000000E-01 0. -1.
         -3   -1    0    0    0  501 -0.00000000000E+00 -0.00000000000E+00 -0.11561504631E+02  0.11561878668E+02  0.93000000000E-01 0.  1.
        -13    1    1    2    0    0  0.11945976625E+02 -0.50790997245E+01  0.11688046079E+02  0.17467833443E+02  0.10570000000E+00 0. -1.
         13    1    1    2    0    0 -0.11945976625E+02  0.50790997245E+01 -0.38138445239E+01  0.13529973913E+02  0.10570000000E+00 0.  1.
<mgrwt>
<rscale>  0 0.29981011E+02</rscale>
<asrwt>0</asrwt>
<pdfrwt beam="1">  1        3 0.29901545E-02 0.29981011E+02</pdfrwt>
<pdfrwt beam="2">  1       -3 0.17787389E-02 0.29981011E+02</pdfrwt>
<totfact> 0.69324934E+05</totfact>
</mgrwt>
</event>
<event>
 4    1  0.1802450E-001  0.3957287E+02  0.7818608E-02  0.1511378E+00
          3   -1    0    0  501    0  0.00000000000E+00  0.00000000000E+00  0.28420567274E+02  0.28420719435E+02  0.93000000000E-01 0.  1.
         -3   -1    0    0    0  501 -0.00000000000E+00 -0.00000000000E+00 -0.13774995163E+02  0.13775309098E+02  0.93000000000E-01 0. -1.
        -13    1    1    2    0    0  0.85252719922E+01  0.57128619812E+01  0.25360841192E+02  0.27358737051E+02  0.10570000000E+00 0.  1.
         13    1    1    2    0    0 -0.85252719922E+01 -0.57128619812E+01 -0.10715269081E+02  0.14837291482E+02  0.10570000000E+00 0. -1.
<mgrwt>
<rscale>  0 0.39572870E+02</rscale>
<asrwt>0</asrwt>
<pdfrwt beam="1">  1        3 0.43724308E-02 0.39572870E+02</pdfrwt>
<pdfrwt beam="2">  1       -3 0.21192659E-02 0.39572870E+02</pdfrwt>
<totfact> 0.34531879E+05</totfact>
</mgrwt>
</event>
<event>
 4    1  0.1802450E-001  0.2405741E+02  0.7818608E-02  0.1674922E+00
          3   -1    0    0  501    0  0.00000000000E+00  0.00000000000E+00  0.70567160944E+01  0.70573288882E+01  0.93000000000E-01 0. -1.
         -3   -1    0    0    0  501 -0.00000000000E+00 -0.00000000000E+00 -0.20502234936E+02  0.20502445863E+02  0.93000000000E-01 0.  1.
        -13    1    1    2    0    0 -0.88974964643E+01  0.73736214472E+01 -0.10546828096E+02  0.15645526260E+02  0.10570000000E+00 0.  1.
         13    1    1    2    0    0  0.88974964643E+01 -0.73736214472E+01 -0.28986907453E+01  0.11914248491E+02  0.10570000000E+00 0. -1.
<mgrwt>
<rscale>  0 0.24057415E+02</rscale>
<asrwt>0</asrwt>
<pdfrwt beam="1">  1        3 0.10857120E-02 0.24057415E+02</pdfrwt>
<pdfrwt beam="2">  1       -3 0.31542533E-02 0.24057415E+02</pdfrwt>
<totfact> 0.11600749E+06</totfact>
</mgrwt>
</event>
<event>
 4    1  0.1802450E-001  0.2279366E+02  0.7818608E-02  0.1694877E+00
         -3   -1    0    0    0  501 -0.00000000000E+00  0.00000000000E+00  0.54898788543E+01  0.54906665201E+01  0.93000000000E-01 0.  1.
          3   -1    0    0  501    0  0.00000000000E+00 -0.00000000000E+00 -0.23656912491E+02  0.23657095291E+02  0.93000000000E-01 0. -1.
        -13    1    1    2    0    0  0.11304234782E+02  0.13125590874E+01 -0.98592748636E+01  0.15057390500E+02  0.10570000000E+00 0. -1.
         13    1    1    2    0    0 -0.11304234782E+02 -0.13125590874E+01 -0.83077587734E+01  0.14090371311E+02  0.10570000000E+00 0.  1.
<mgrwt>
<rscale>  0 0.22793659E+02</rscale>
<asrwt>0</asrwt>
<pdfrwt beam="2">  1        3 0.36395996E-02 0.22793659E+02</pdfrwt>
<pdfrwt beam="1">  1       -3 0.84467141E-03 0.22793659E+02</pdfrwt>
<totfact> 0.13010266E+06</totfact>
</mgrwt>
</event>
<event>
 4    1  0.1802450E-001  0.3165090E+02  0.7818608E-02  0.1580526E+00
          3   -1    0    0  501    0  0.00000000000E+00  0.00000000000E+00  0.39747386649E+01  0.39758265121E+01  0.93000000000E-01 0.  1.
         -3   -1    0    0    0  501 -0.00000000000E+00 -0.00000000000E+00 -0.62999384055E+02  0.62999452698E+02  0.93000000000E-01 0. -1.
        -13    1    1    2    0    0 -0.15621797487E+02  0.25282249057E+01 -0.29584550951E+02  0.33551293647E+02  0.10570000000E+00 0. -1.
         13    1    1    2    0    0  0.15621797487E+02 -0.25282249057E+01 -0.29440094438E+02  0.33423985563E+02  0.10570000000E+00 0.  1.
<mgrwt>
<rscale>  0 0.31650897E+02</rscale>
<asrwt>0</asrwt>
<pdfrwt beam="1">  1        3 0.61158726E-03 0.31650897E+02</pdfrwt>
<pdfrwt beam="2">  1       -3 0.96923012E-02 0.31650897E+02</pdfrwt>
<totfact> 0.55006802E+05</totfact>
</mgrwt>
</event>
<event>
 4    1  0.1802450E-001  0.2825903E+02  0.7818608E-02  0.1618170E+00
          3   -1    0    0  501    0  0.00000000000E+00  0.00000000000E+00  0.34450067571E+02  0.34450193100E+02  0.93000000000E-01 0. -1.
         -3   -1    0    0    0  501 -0.00000000000E+00 -0.00000000000E+00 -0.57946394678E+01  0.57953857130E+01  0.93000000000E-01 0.  1.
        -13    1    1    2    0    0  0.75628062457E+01  0.11934154446E+02  0.14171636683E+02  0.20011660087E+02  0.10570000000E+00 0. -1.
         13    1    1    2    0    0 -0.75628062457E+01 -0.11934154446E+02  0.14483791420E+02  0.20233918727E+02  0.10570000000E+00 0.  1.
<mgrwt>
<rscale>  0 0.28259035E+02</rscale>
<asrwt>0</asrwt>
<pdfrwt beam="1">  1        3 0.53000775E-02 0.28259035E+02</pdfrwt>
<pdfrwt beam="2">  1       -3 0.89155005E-03 0.28259035E+02</pdfrwt>
<totfact> 0.77245712E+05</totfact>
</mgrwt>
</event>
<event>
 4    1  0.1802450E-001  0.2553430E+02  0.7818608E-02  0.1653444E+00
          3   -1    0    0  501    0  0.00000000000E+00  0.00000000000E+00  0.11001870922E+02  0.11002263985E+02  0.93000000000E-01 0. -1.
         -3   -1    0    0    0  501 -0.00000000000E+00 -0.00000000000E+00 -0.14814865364E+02  0.14815157264E+02  0.93000000000E-01 0.  1.
        -13    1    1    2    0    0  0.11646623344E+02 -0.29728375729E+01  0.24432155215E+01  0.12266298265E+02  0.10570000000E+00 0. -1.
         13    1    1    2    0    0 -0.11646623344E+02  0.29728375729E+01 -0.62562099634E+01  0.13551122984E+02  0.10570000000E+00 0.  1.
<mgrwt>
<rscale>  0 0.25534297E+02</rscale>
<asrwt>0</asrwt>
<pdfrwt beam="1">  1        3 0.16926482E-02 0.25534297E+02</pdfrwt>
<pdfrwt beam="2">  1       -3 0.22792628E-02 0.25534297E+02</pdfrwt>
<totfact> 0.10201728E+06</totfact>
</mgrwt>
</event>
<event>
 4    1  0.1802450E-001  0.2872334E+02  0.7818608E-02  0.1612645E+00
         -3   -1    0    0    0  501 -0.00000000000E+00  0.00000000000E+00  0.20347848840E+01  0.20369090614E+01  0.93000000000E-01 0. -1.
          3   -1    0    0  501    0  0.00000000000E+00 -0.00000000000E+00 -0.10131072352E+03  0.10131076620E+03  0.93000000000E-01 0.  1.
        -13    1    1    2    0    0 -0.63847128287E+01 -0.12097913946E+02 -0.33904109053E+02  0.36559866834E+02  0.10570000000E+00 0. -1.
         13    1    1    2    0    0  0.63847128287E+01  0.12097913946E+02 -0.65371829580E+02  0.66787808430E+02  0.10570000000E+00 0.  1.
<mgrwt>
<rscale>  0 0.28723335E+02</rscale>
<asrwt>0</asrwt>
<pdfrwt beam="2">  1        3 0.15586428E-01 0.28723335E+02</pdfrwt>
<pdfrwt beam="1">  1       -3 0.31321059E-03 0.28723335E+02</pdfrwt>
<totfact> 0.62851781E+05</totfact>
</mgrwt>
</event>
<event>
 4    1  0.1802450E-001  0.3772680E+02  0.7818608E-02  0.1525639E+00
         -3   -1    0    0    0  501 -0.00000000000E+00  0.00000000000E+00  0.63698390583E+01  0.63705179247E+01  0.93000000000E-01 0. -1.
          3   -1    0    0  501    0  0.00000000000E+00 -0.00000000000E+00 -0.55857658221E+02  0.55857735641E+02  0.93000000000E-01 0.  1.
        -13    1    1    2    0    0  0.16913797211E+02 -0.76901655099E+01 -0.30114483613E+02  0.35385144869E+02  0.10570000000E+00 0. -1.
         13    1    1    2    0    0 -0.16913797211E+02  0.76901655099E+01 -0.19373335550E+02  0.26843108697E+02  0.10570000000E+00 0.  1.
<mgrwt>
<rscale>  0 0.37726798E+02</rscale>
<asrwt>0</asrwt>
<pdfrwt beam="2">  1        3 0.85935437E-02 0.37726798E+02</pdfrwt>
<pdfrwt beam="1">  1       -3 0.98003345E-03 0.37726798E+02</pdfrwt>
<totfact> 0.36680834E+05</totfact>
</mgrwt>
</event>
<event>
 4    1  0.1802450E-001  0.3332524E+02  0.7818608E-02  0.1563996E+00
         -3   -1    0    0    0  501 -0.00000000000E+00  0.00000000000E+00  0.29251067126E+02  0.29251214967E+02  0.93000000000E-01 0. -1.
          3   -1    0    0  501    0  0.00000000000E+00 -0.00000000000E+00 -0.94913180437E+01  0.94917736597E+01  0.93000000000E-01 0.  1.
        -13    1    1    2    0    0 -0.10023440120E+02  0.17517092084E+01 -0.54596390741E+01  0.11548015773E+02  0.10570000000E+00 0.  1.
         13    1    1    2    0    0  0.10023440120E+02 -0.17517092084E+01  0.25219388157E+02  0.27194972853E+02  0.10570000000E+00 0. -1.
<mgrwt>
<rscale>  0 0.33325238E+02</rscale>
<asrwt>0</asrwt>
<pdfrwt beam="2">  1        3 0.14602492E-02 0.33325238E+02</pdfrwt>
<pdfrwt beam="1">  1       -3 0.45002105E-02 0.33325238E+02</pdfrwt>
<totfact> 0.52761414E+05</totfact>
</mgrwt>
</event>
<event>
 4    1  0.1802450E-001  0.3239711E+02  0.7818608E-02  0.1573009E+00
          3   -1    0    0  501    0  0.00000000000E+00  0.00000000000E+00  0.13503178017E+03  0.13503181219E+03  0.93000000000E-01 0.  1.
         -3   -1    0    0    0  501 -0.00000000000E+00 -0.00000000000E+00 -0.19420511839E+01  0.19442766781E+01  0.93000000000E-01 0. -1.
        -13    1    1    2    0    0  0.98840041446E+01 -0.12825074102E+02  0.68463871435E+02  0.70352604273E+02  0.10570000000E+00 0.  1.
         13    1    1    2    0    0 -0.98840041446E+01  0.12825074102E+02  0.64625857549E+02  0.66623484599E+02  0.10570000000E+00 0. -1.
<mgrwt>
<rscale>  0 0.32397113E+02</rscale>
<asrwt>0</asrwt>
<pdfrwt beam="1">  1        3 0.20774300E-01 0.32397113E+02</pdfrwt>
<pdfrwt beam="2">  1       -3 0.29895067E-03 0.32397113E+02</pdfrwt>
<totfact> 0.44020823E+05</totfact>
</mgrwt>
</event>
<event>
 4    1  0.1802450E-001  0.4119486E+02  0.7818608E-02  0.1499598E+00
          3   -1    0    0  501    0  0.00000000000E+00  0.00000000000E+00  0.64314155141E+01  0.64320878814E+01  0.93000000000E-01 0. -1.
         -3   -1    0    0    0  501 -0.00000000000E+00 -0.00000000000E+00 -0.65961756831E+02  0.65961822392E+02  0.93000000000E-01 0.  1.
        -13    1    1    2    0    0 -0.37307804335E+01  0.18393395116E+02 -0.14852781352E+02  0.23934326665E+02  0.10570000000E+00 0. -1.
         13    1    1    2    0    0  0.37307804335E+01 -0.18393395116E+02 -0.44677559965E+02  0.48459583608E+02  0.10570000000E+00 0.  1.
<mgrwt>
<rscale>  0 0.41194863E+02</rscale>
<asrwt>0</asrwt>
<pdfrwt beam="1">  1        3 0.98950535E-03 0.41194863E+02</pdfrwt>
<pdfrwt beam="2">  1       -3 0.10148019E-01 0.41194863E+02</pdfrwt>
<totfact> 0.28851258E+05</totfact>
</mgrwt>
</event>
<event>
 4    1  0.1802450E-001  0.2478067E+02  0.7818608E-02  0.1664172E+00
          3   -1    0    0  501    0  0.00000000000E+00  0.00000000000E+00  0.23936045269E+01  0.23954105351E+01  0.93000000000E-01 0. -1.
         -3   -1    0    0    0  501 -0.00000000000E+00 -0.00000000000E+00 -0.64111736677E+02  0.64111804129E+02  0.93000000000E-01 0.  1.
        -13    1    1    2    0    0  0.12122732026E+02  0.30691619113E+00 -0.24040627463E+02  0.26926154027E+02  0.10570000000E+00 0. -1.
         13    1    1    2    0    0 -0.12122732026E+02 -0.30691619113E+00 -0.37677504686E+02  0.39581060638E+02  0.10570000000E+00 0.  1.
<mgrwt>
<rscale>  0 0.24780673E+02</rscale>
<asrwt>0</asrwt>
<pdfrwt beam="1">  1        3 0.36839101E-03 0.24780673E+02</pdfrwt>
<pdfrwt beam="2">  1       -3 0.98634869E-02 0.24780673E+02</pdfrwt>
<totfact> 0.96556760E+05</totfact>
</mgrwt>
</event>
<event>
 4    1  0.1802450E-001  0.2913295E+02  0.7818608E-02  0.1607875E+00
          3   -1    0    0  501    0  0.00000000000E+00  0.00000000000E+00  0.58955374412E+02  0.58955447764E+02  0.93000000000E-01 0.  1.
         -3   -1    0    0    0  501 -0.00000000000E+00 -0.00000000000E+00 -0.35983542903E+01  0.35995558891E+01  0.93000000000E-01 0. -1.
        -13    1    1    2    0    0 -0.57120300163E+01  0.11300361821E+02  0.12217659336E+02  0.17595676638E+02  0.10570000000E+00 0. -1.
         13    1    1    2    0    0  0.57120300163E+01 -0.11300361821E+02  0.43139360786E+02  0.44959327016E+02  0.10570000000E+00 0.  1.
<mgrwt>
<rscale>  0 0.29132951E+02</rscale>
<asrwt>0</asrwt>
<pdfrwt beam="1">  1        3 0.90701557E-02 0.29132951E+02</pdfrwt>
<pdfrwt beam="2">  1       -3 0.55369104E-03 0.29132951E+02</pdfrwt>
<totfact> 0.67517846E+05</totfact>
</mgrwt>
</event>
<event>
 4    1  0.1802450E-001  0.2580518E+02  0.7818608E-02  0.1649699E+00
         -3   -1    0    0    0  501 -0.00000000000E+00  0.00000000000E+00  0.19346371151E+01  0.19368711282E+01  0.93000000000E-01 0. -1.
          3   -1    0    0  501    0  0.00000000000E+00 -0.00000000000E+00 -0.85998775884E+02  0.85998826170E+02  0.93000000000E-01 0.  1.
        -13    1    1    2    0    0  0.12099920594E+02 -0.40294757898E+01 -0.35371015620E+02  0.37600062128E+02  0.10570000000E+00 0. -1.
         13    1    1    2    0    0 -0.12099920594E+02  0.40294757898E+01 -0.48693123149E+02  0.50335635170E+02  0.10570000000E+00 0.  1.
<mgrwt>
<rscale>  0 0.25805182E+02</rscale>
<asrwt>0</asrwt>
<pdfrwt beam="2">  1        3 0.13230754E-01 0.25805182E+02</pdfrwt>
<pdfrwt beam="1">  1       -3 0.29781226E-03 0.25805182E+02</pdfrwt>
<totfact> 0.83311425E+05</totfact>
</mgrwt>
</event>
<event>
 4    1  0.1802450E-001  0.3443572E+02  0.7818608E-02  0.1553669E+00
          3   -1    0    0  501    0  0.00000000000E+00  0.00000000000E+00  0.26794486774E+02  0.26794648168E+02  0.93000000000E-01 0. -1.
         -3   -1    0    0    0  501 -0.00000000000E+00 -0.00000000000E+00 -0.11063629541E+02  0.11064020410E+02  0.93000000000E-01 0.  1.
        -13    1    1    2    0    0  0.12919239139E+02  0.96480663949E+01  0.12277742172E+01  0.16171287120E+02  0.10570000000E+00 0. -1.
         13    1    1    2    0    0 -0.12919239139E+02 -0.96480663949E+01  0.14503083015E+02  0.21687381458E+02  0.10570000000E+00 0.  1.
<mgrwt>
<rscale>  0 0.34435722E+02</rscale>
<asrwt>0</asrwt>
<pdfrwt beam="1">  1        3 0.41222712E-02 0.34435722E+02</pdfrwt>
<pdfrwt beam="2">  1       -3 0.17021393E-02 0.34435722E+02</pdfrwt>
<totfact> 0.48932304E+05</totfact>
</mgrwt>
</event>
<event>
 4    1  0.1802450E-001  0.2127390E+02  0.7818608E-02  0.1721121E+00
         -3   -1    0    0    0  501 -0.00000000000E+00  0.00000000000E+00  0.10224650961E+02  0.10225073900E+02  0.93000000000E-01 0.  1.
          3   -1    0    0  501    0  0.00000000000E+00 -0.00000000000E+00 -0.11065026128E+02  0.11065416947E+02  0.93000000000E-01 0. -1.
        -13    1    1    2    0    0  0.18986877696E+01 -0.10079609338E+02 -0.32384059549E+01  0.10756485730E+02  0.10570000000E+00 0.  1.
         13    1    1    2    0    0 -0.18986877696E+01  0.10079609338E+02  0.23980307879E+01  0.10534005117E+02  0.10570000000E+00 0. -1.
<mgrwt>
<rscale>  0 0.21273899E+02</rscale>
<asrwt>0</asrwt>
<pdfrwt beam="2">  1        3 0.17023743E-02 0.21273899E+02</pdfrwt>
<pdfrwt beam="1">  1       -3 0.15730858E-02 0.21273899E+02</pdfrwt>
<totfact> 0.15564610E+06</totfact>
</mgrwt>
</event>
<event>
 4    1  0.1802450E-001  0.2152727E+02  0.7818608E-02  0.1716558E+00
         -3   -1    0    0    0  501 -0.00000000000E+00  0.00000000000E+00  0.78246375702E+01  0.78251902281E+01  0.93000000000E-01 0.  1.
          3   -1    0    0  501    0  0.00000000000E+00 -0.00000000000E+00 -0.14805322557E+02  0.14805614645E+02  0.93000000000E-01 0. -1.
        -13    1    1    2    0    0  0.53059649451E+01  0.86781170183E+01 -0.71894844795E+01  0.12456437635E+02  0.10570000000E+00 0. -1.
         13    1    1    2    0    0 -0.53059649451E+01 -0.86781170183E+01  0.20879949251E+00  0.10174367238E+02  0.10570000000E+00 0.  1.
<mgrwt>
<rscale>  0 0.21527270E+02</rscale>
<asrwt>0</asrwt>
<pdfrwt beam="2">  1        3 0.22778069E-02 0.21527270E+02</pdfrwt>
<pdfrwt beam="1">  1       -3 0.12038554E-02 0.21527270E+02</pdfrwt>
<totfact> 0.15093131E+06</totfact>
</mgrwt>
</event>
<event>
 4    1  0.1802450E-001  0.2484541E+02  0.7818608E-02  0.1663232E+00
          3   -1    0    0  501    0  0.00000000000E+00  0.00000000000E+00  0.63604772969E+02  0.63604840960E+02  0.93000000000E-01 0. -1.
         -3   -1    0    0    0  501 -0.00000000000E+00 -0.00000000000E+00 -0.24253286736E+01  0.24271110760E+01  0.93000000000E-01 0.  1.
        -13    1    1    2    0    0 -0.10911528950E+02 -0.42392034732E+01  0.41637654129E+02  0.43252025663E+02  0.10570000000E+00 0. -1.
         13    1    1    2    0    0  0.10911528950E+02  0.42392034732E+01  0.19541790167E+02  0.22779926372E+02  0.10570000000E+00 0.  1.
<mgrwt>
<rscale>  0 0.24845408E+02</rscale>
<asrwt>0</asrwt>
<pdfrwt beam="1">  1        3 0.97854923E-02 0.24845408E+02</pdfrwt>
<pdfrwt beam="2">  1       -3 0.37326982E-03 0.24845408E+02</pdfrwt>
<totfact> 0.96101513E+05</totfact>
</mgrwt>
</event>
<event>
 4    1  0.1802450E-001  0.3332913E+02  0.7818608E-02  0.1563959E+00
          3   -1    0    0  501    0  0.00000000000E+00  0.00000000000E+00  0.32803271516E+02  0.32803403347E+02  0.93000000000E-01 0.  1.
         -3   -1    0    0    0  501 -0.00000000000E+00 -0.00000000000E+00 -0.84654512526E+01  0.84659620783E+01  0.93000000000E-01 0. -1.
        -13    1    1    2    0    0 -0.57306249256E+01  0.15110681439E+02  0.71355369241E+01  0.17666346971E+02  0.10570000000E+00 0.  1.
         13    1    1    2    0    0  0.57306249256E+01 -0.15110681439E+02  0.17202283340E+02  0.23603018455E+02  0.10570000000E+00 0. -1.
<mgrwt>
<rscale>  0 0.33329132E+02</rscale>
<asrwt>0</asrwt>
<pdfrwt beam="1">  1        3 0.50467066E-02 0.33329132E+02</pdfrwt>
<pdfrwt beam="2">  1       -3 0.13024265E-02 0.33329132E+02</pdfrwt>
<totfact> 0.52345744E+05</totfact>
</mgrwt>
</event>
<event>
 4    1  0.1802450E-001  0.2274361E+02  0.7818608E-02  0.1695700E+00
          3   -1    0    0  501    0  0.00000000000E+00  0.00000000000E+00  0.16436672899E+02  0.16436935998E+02  0.93000000000E-01 0. -1.
         -3   -1    0    0    0  501 -0.00000000000E+00 -0.00000000000E+00 -0.78670492500E+01  0.78675989286E+01  0.93000000000E-01 0.  1.
        -13    1    1    2    0    0  0.47846936715E+00 -0.10337516431E+02  0.93214147679E+01  0.13928141465E+02  0.10570000000E+00 0. -1.
         13    1    1    2    0    0 -0.47846936715E+00  0.10337516431E+02 -0.75179111864E+00  0.10376393462E+02  0.10570000000E+00 0.  1.
<mgrwt>
<rscale>  0 0.22743614E+02</rscale>
<asrwt>0</asrwt>
<pdfrwt beam="1">  1        3 0.25287814E-02 0.22743614E+02</pdfrwt>
<pdfrwt beam="2">  1       -3 0.12103778E-02 0.22743614E+02</pdfrwt>
<totfact> 0.13292164E+06</totfact>
</mgrwt>
</event>
<event>
 4    1  0.1802450E-001  0.3317794E+02  0.7818608E-02  0.1565403E+00
          3   -1    0    0  501    0  0.00000000000E+00  0.00000000000E+00  0.20987884932E+02  0.20988090978E+02  0.93000000000E-01 0. -1.
         -3   -1    0    0    0  501 -0.00000000000E+00 -0.00000000000E+00 -0.13111601168E+02  0.13111930987E+02  0.93000000000E-01 0.  1.
        -13    1    1    2    0    0  0.12816806282E+02 -0.48081297115E+00  0.14751033735E+02  0.19547528568E+02  0.10570000000E+00 0. -1.
         13    1    1    2    0    0 -0.12816806282E+02  0.48081297115E+00 -0.68747499721E+01  0.14552493396E+02  0.10570000000E+00 0.  1.
<mgrwt>
<rscale>  0 0.33177939E+02</rscale>
<asrwt>0</asrwt>
<pdfrwt beam="1">  1        3 0.32289465E-02 0.33177939E+02</pdfrwt>
<pdfrwt beam="2">  1       -3 0.20172107E-02 0.33177939E+02</pdfrwt>
<totfact> 0.54076713E+05</totfact>
</mgrwt>
</event>
<event>
 4    1  0.1802450E-001  0.3381299E+02  0.7818608E-02  0.1559401E+00
         -3   -1    0    0    0  501 -0.00000000000E+00  0.00000000000E+00  0.53381994927E+01  0.53390095359E+01  0.93000000000E-01 0.  1.
          3   -1    0    0  501    0  0.00000000000E+00 -0.00000000000E+00 -0.53539287708E+02  0.53539368480E+02  0.93000000000E-01 0. -1.
        -13    1    1    2    0    0 -0.16732983338E+02 -0.43813472657E+00 -0.28233600093E+02  0.32822736634E+02  0.10570000000E+00 0. -1.
         13    1    1    2    0    0  0.16732983338E+02  0.43813472657E+00 -0.19967488122E+02  0.26055641382E+02  0.10570000000E+00 0.  1.
<mgrwt>
<rscale>  0 0.33812993E+02</rscale>
<asrwt>0</asrwt>
<pdfrwt beam="2">  1        3 0.82368817E-02 0.33812993E+02</pdfrwt>
<pdfrwt beam="1">  1       -3 0.82133002E-03 0.33812993E+02</pdfrwt>
<totfact> 0.48109361E+05</totfact>
</mgrwt>
</event>
<event>
 4    1  0.1802450E-001  0.2208658E+02  0.7818608E-02  0.1706759E+00
         -3   -1    0    0    0  501 -0.00000000000E+00  0.00000000000E+00  0.15216271455E+02  0.15216555655E+02  0.93000000000E-01 0. -1.
          3   -1    0    0  501    0  0.00000000000E+00 -0.00000000000E+00 -0.80140995447E+01  0.80146391380E+01  0.93000000000E-01 0.  1.
        -13    1    1    2    0    0 -0.93309381699E+01  0.39370021767E+01  0.82311086659E+01  0.13051004392E+02  0.10570000000E+00 0. -1.
         13    1    1    2    0    0  0.93309381699E+01 -0.39370021767E+01 -0.10289367554E+01  0.10180190401E+02  0.10570000000E+00 0.  1.
<mgrwt>
<rscale>  0 0.22086583E+02</rscale>
<asrwt>0</asrwt>
<pdfrwt beam="2">  1        3 0.12330018E-02 0.22086583E+02</pdfrwt>
<pdfrwt beam="1">  1       -3 0.23410282E-02 0.22086583E+02</pdfrwt>
<totfact> 0.14235614E+06</totfact>
</mgrwt>
</event>
<event>
 4    1  0.1802450E-001  0.4031211E+02  0.7818608E-02  0.1505927E+00
          3   -1    0    0  501    0  0.00000000000E+00  0.00000000000E+00  0.28025243164E+02  0.28025397471E+02  0.93000000000E-01 0.  1.
         -3   -1    0    0    0  501 -0.00000000000E+00 -0.00000000000E+00 -0.14496110447E+02  0.14496408765E+02  0.93000000000E-01 0. -1.
        -13    1    1    2    0    0 -0.11702999579E+02  0.83066218881E+01 -0.81637733642E+01  0.16511163931E+02  0.10570000000E+00 0. -1.
         13    1    1    2    0    0  0.11702999579E+02 -0.83066218881E+01  0.21692906082E+02  0.26010642304E+02  0.10570000000E+00 0.  1.
<mgrwt>
<rscale>  0 0.40312114E+02</rscale>
<asrwt>0</asrwt>
<pdfrwt beam="1">  1        3 0.43116106E-02 0.40312114E+02</pdfrwt>
<pdfrwt beam="2">  1       -3 0.22302057E-02 0.40312114E+02</pdfrwt>
<totfact> 0.32974461E+05</totfact>
</mgrwt>
</event>
<event>
 4    1  0.1802450E-001  0.2154305E+02  0.7818608E-02  0.1716277E+00
         -3   -1    0    0    0  501 -0.00000000000E+00  0.00000000000E+00  0.20287196223E+01  0.20308501437E+01  0.93000000000E-01 0.  1.
          3   -1    0    0  501    0  0.00000000000E+00 -0.00000000000E+00 -0.57159446871E+02  0.57159522528E+02  0.93000000000E-01 0. -1.
        -13    1    1    2    0    0  0.10319443457E+02  0.11042134906E+01 -0.35483048247E+02  0.36969826698E+02  0.10570000000E+00 0. -1.
         13    1    1    2    0    0 -0.10319443457E+02 -0.11042134906E+01 -0.19647679001E+02  0.22220545973E+02  0.10570000000E+00 0.  1.
<mgrwt>
<rscale>  0 0.21543053E+02</rscale>
<asrwt>0</asrwt>
<pdfrwt beam="2">  1        3 0.87939295E-02 0.21543053E+02</pdfrwt>
<pdfrwt beam="1">  1       -3 0.31228046E-03 0.21543053E+02</pdfrwt>
<totfact> 0.13430846E+06</totfact>
</mgrwt>
</event>
<event>
 4    1  0.1802450E-001  0.3547733E+02  0.7818608E-02  0.1544402E+00
          3   -1    0    0  501    0  0.00000000000E+00  0.00000000000E+00  0.37042026893E+01  0.37053699631E+01  0.93000000000E-01 0.  1.
         -3   -1    0    0    0  501 -0.00000000000E+00 -0.00000000000E+00 -0.84932246108E+02  0.84932297025E+02  0.93000000000E-01 0. -1.
        -13    1    1    2    0    0 -0.11405882900E+02 -0.80874766201E+01 -0.13342455280E+02  0.19327020676E+02  0.10570000000E+00 0.  1.
         13    1    1    2    0    0  0.11405882900E+02  0.80874766201E+01 -0.67885588139E+02  0.69310646312E+02  0.10570000000E+00 0. -1.
<mgrwt>
<rscale>  0 0.35477330E+02</rscale>
<asrwt>0</asrwt>
<pdfrwt beam="1">  1        3 0.56997111E-03 0.35477330E+02</pdfrwt>
<pdfrwt beam="2">  1       -3 0.13066592E-01 0.35477330E+02</pdfrwt>
<totfact> 0.39739125E+05</totfact>
</mgrwt>
</event>
<event>
 4    1  0.1802450E-001  0.2842546E+02  0.7818608E-02  0.1616175E+00
          3   -1    0    0  501    0  0.00000000000E+00  0.00000000000E+00  0.29385219967E+01  0.29399932866E+01  0.93000000000E-01 0. -1.
         -3   -1    0    0    0  501 -0.00000000000E+00 -0.00000000000E+00 -0.68723888870E+02  0.68723951796E+02  0.93000000000E-01 0.  1.
        -13    1    1    2    0    0  0.11910208760E+02 -0.66489729348E+01 -0.22830752148E+02  0.26595419341E+02  0.10570000000E+00 0. -1.
         13    1    1    2    0    0 -0.11910208760E+02  0.66489729348E+01 -0.42954614725E+02  0.45068525741E+02  0.10570000000E+00 0.  1.
<mgrwt>
<rscale>  0 0.28425456E+02</rscale>
<asrwt>0</asrwt>
<pdfrwt beam="1">  1        3 0.45219837E-03 0.28425456E+02</pdfrwt>
<pdfrwt beam="2">  1       -3 0.10573023E-01 0.28425456E+02</pdfrwt>
<totfact> 0.69724044E+05</totfact>
</mgrwt>
</event>
<event>
 4    1  0.1802450E-001  0.2676017E+02  0.7818608E-02  0.1636935E+00
          3   -1    0    0  501    0  0.00000000000E+00  0.00000000000E+00  0.16557826474E+01  0.16583923466E+01  0.93000000000E-01 0.  1.
         -3   -1    0    0    0  501 -0.00000000000E+00 -0.00000000000E+00 -0.10803431955E+03  0.10803435958E+03  0.93000000000E-01 0. -1.
        -13    1    1    2    0    0 -0.74105422432E+01 -0.10487671323E+02 -0.37792711206E+02  0.39915004434E+02  0.10570000000E+00 0.  1.
         13    1    1    2    0    0  0.74105422432E+01  0.10487671323E+02 -0.68585825697E+02  0.69777747493E+02  0.10570000000E+00 0. -1.
<mgrwt>
<rscale>  0 0.26760170E+02</rscale>
<asrwt>0</asrwt>
<pdfrwt beam="1">  1        3 0.25493970E-03 0.26760170E+02</pdfrwt>
<pdfrwt beam="2">  1       -3 0.16620863E-01 0.26760170E+02</pdfrwt>
<totfact> 0.72785438E+05</totfact>
</mgrwt>
</event>
<event>
 4    1  0.1802450E-001  0.5537140E+02  0.7818608E-02  0.1418351E+00
          3   -1    0    0  501    0  0.00000000000E+00  0.00000000000E+00  0.14964891808E+03  0.14964894698E+03  0.93000000000E-01 0. -1.
         -3   -1    0    0    0  501 -0.00000000000E+00 -0.00000000000E+00 -0.51215240037E+01  0.51223683116E+01  0.93000000000E-01 0.  1.
        -13    1    1    2    0    0 -0.21750872463E+02 -0.40818145682E+00  0.12012688581E+03  0.12208090322E+03  0.10570000000E+00 0. -1.
         13    1    1    2    0    0  0.21750872463E+02  0.40818145682E+00  0.24400508275E+02  0.32690412074E+02  0.10570000000E+00 0.  1.
<mgrwt>
<rscale>  0 0.55371404E+02</rscale>
<asrwt>0</asrwt>
<pdfrwt beam="1">  1        3 0.23022978E-01 0.55371404E+02</pdfrwt>
<pdfrwt beam="2">  1       -3 0.78799393E-03 0.55371404E+02</pdfrwt>
<totfact> 0.11464001E+05</totfact>
</mgrwt>
</event>
<event>
 4    1  0.1802450E-001  0.2248932E+02  0.7818608E-02  0.1699924E+00
          3   -1    0    0  501    0  0.00000000000E+00  0.00000000000E+00  0.33949209658E+01  0.33961945415E+01  0.93000000000E-01 0. -1.
         -3   -1    0    0    0  501 -0.00000000000E+00 -0.00000000000E+00 -0.37236259076E+02  0.37236375213E+02  0.93000000000E-01 0.  1.
        -13    1    1    2    0    0  0.69923931970E+01  0.87061567061E+01 -0.19304271055E+02  0.22301497274E+02  0.10570000000E+00 0.  1.
         13    1    1    2    0    0 -0.69923931970E+01 -0.87061567061E+01 -0.14537067055E+02  0.18331072480E+02  0.10570000000E+00 0. -1.
<mgrwt>
<rscale>  0 0.22489321E+02</rscale>
<asrwt>0</asrwt>
<pdfrwt beam="1">  1        3 0.52240246E-03 0.22489321E+02</pdfrwt>
<pdfrwt beam="2">  1       -3 0.57287618E-02 0.22489321E+02</pdfrwt>
<totfact> 0.12915852E+06</totfact>
</mgrwt>
</event>
<event>
 4    1  0.1802450E-001  0.3107742E+02  0.7818608E-02  0.1586476E+00
         -3   -1    0    0    0  501 -0.00000000000E+00  0.00000000000E+00  0.48336621016E+01  0.48345566821E+01  0.93000000000E-01 0. -1.
          3   -1    0    0  501    0  0.00000000000E+00 -0.00000000000E+00 -0.49946536814E+02  0.49946623396E+02  0.93000000000E-01 0.  1.
        -13    1    1    2    0    0  0.17994849540E+01  0.12254721199E+02 -0.39094591946E+02  0.41009933305E+02  0.10570000000E+00 0.  1.
         13    1    1    2    0    0 -0.17994849540E+01 -0.12254721199E+02 -0.60182827664E+01  0.13771246774E+02  0.10570000000E+00 0. -1.
<mgrwt>
<rscale>  0 0.31077423E+02</rscale>
<asrwt>0</asrwt>
<pdfrwt beam="2">  1        3 0.76841577E-02 0.31077423E+02</pdfrwt>
<pdfrwt beam="1">  1       -3 0.74371583E-03 0.31077423E+02</pdfrwt>
<totfact> 0.59359646E+05</totfact>
</mgrwt>
</event>
<event>
 4    1  0.1802450E-001  0.4285367E+02  0.7818608E-02  0.1488203E+00
          3   -1    0    0  501    0  0.00000000000E+00  0.00000000000E+00  0.82384578151E+02  0.82384630643E+02  0.93000000000E-01 0.  1.
         -3   -1    0    0    0  501 -0.00000000000E+00 -0.00000000000E+00 -0.55723157679E+01  0.55730917826E+01  0.93000000000E-01 0. -1.
        -13    1    1    2    0    0 -0.20641153014E+02 -0.34038924168E+01  0.47913159479E+02  0.52281217517E+02  0.10570000000E+00 0.  1.
         13    1    1    2    0    0  0.20641153014E+02  0.34038924168E+01  0.28899102904E+02  0.35676504908E+02  0.10570000000E+00 0. -1.
<mgrwt>
<rscale>  0 0.42853673E+02</rscale>
<asrwt>0</asrwt>
<pdfrwt beam="1">  1        3 0.12674613E-01 0.42853673E+02</pdfrwt>
<pdfrwt beam="2">  1       -3 0.85734317E-03 0.42853673E+02</pdfrwt>
<totfact> 0.25197013E+05</totfact>
</mgrwt>
</event>
<event>
 4    1  0.1802450E-001  0.2111707E+02  0.7818608E-02  0.1723985E+00
          3   -1    0    0  501    0  0.00000000000E+00  0.00000000000E+00  0.38074559074E+02  0.38074672654E+02  0.93000000000E-01 0. -1.
         -3   -1    0    0    0  501 -0.00000000000E+00 -0.00000000000E+00 -0.29271528757E+01  0.29286298772E+01  0.93000000000E-01 0.  1.
        -13    1    1    2    0    0 -0.38249136119E+01  0.96729445371E+01  0.21087974786E+02  0.23514031412E+02  0.10570000000E+00 0. -1.
         13    1    1    2    0    0  0.38249136119E+01 -0.96729445371E+01  0.14059431412E+02  0.17489271119E+02  0.10570000000E+00 0.  1.
<mgrwt>
<rscale>  0 0.21117070E+02</rscale>
<asrwt>0</asrwt>
<pdfrwt beam="1">  1        3 0.58577469E-02 0.21117070E+02</pdfrwt>
<pdfrwt beam="2">  1       -3 0.45045356E-03 0.21117070E+02</pdfrwt>
<totfact> 0.14808731E+06</totfact>
</mgrwt>
</event>
<event>
 4    1  0.1802450E-001  0.2337226E+02  0.7818608E-02  0.1685546E+00
         -3   -1    0    0    0  501 -0.00000000000E+00  0.00000000000E+00  0.24220189293E+02  0.24220367842E+02  0.93000000000E-01 0. -1.
          3   -1    0    0  501    0  0.00000000000E+00 -0.00000000000E+00 -0.56379216008E+01  0.56386885866E+01  0.93000000000E-01 0.  1.
        -13    1    1    2    0    0 -0.81196421168E+01  0.66756663391E+01  0.15813030554E+02  0.18988317907E+02  0.10570000000E+00 0. -1.
         13    1    1    2    0    0  0.81196421168E+01 -0.66756663391E+01  0.27692371391E+01  0.10870738521E+02  0.10570000000E+00 0.  1.
<mgrwt>
<rscale>  0 0.23372261E+02</rscale>
<asrwt>0</asrwt>
<pdfrwt beam="2">  1        3 0.86744530E-03 0.23372261E+02</pdfrwt>
<pdfrwt beam="1">  1       -3 0.37262557E-02 0.23372261E+02</pdfrwt>
<totfact> 0.12278024E+06</totfact>
</mgrwt>
</event>
<event>
 4    1  0.1802450E-001  0.7235216E+02  0.7818608E-02  0.1352272E+00
          3   -1    0    0  501    0  0.00000000000E+00  0.00000000000E+00  0.66001942801E+02  0.66002008321E+02  0.93000000000E-01 0. -1.
         -3   -1    0    0    0  501 -0.00000000000E+00 -0.00000000000E+00 -0.19828155288E+02  0.19828373386E+02  0.93000000000E-01 0.  1.
        -13    1    1    2    0    0 -0.32662525351E+02  0.78414099618E+01  0.71548657510E+01  0.34344308829E+02  0.10570000000E+00 0.  1.
         13    1    1    2    0    0  0.32662525351E+02 -0.78414099618E+01  0.39018921762E+02  0.51486072878E+02  0.10570000000E+00 0. -1.
<mgrwt>
<rscale>  0 0.72352165E+02</rscale>
<asrwt>0</asrwt>
<pdfrwt beam="1">  1        3 0.10154167E-01 0.72352165E+02</pdfrwt>
<pdfrwt beam="2">  1       -3 0.30505073E-02 0.72352165E+02</pdfrwt>
<totfact> 0.66533453E+04</totfact>
</mgrwt>
</event>
<event>
 4    1  0.1802450E-001  0.2201647E+02  0.7818608E-02  0.1707967E+00
         -3   -1    0    0    0  501 -0.00000000000E+00  0.00000000000E+00  0.33702906964E+01  0.33715735760E+01  0.93000000000E-01 0. -1.
          3   -1    0    0  501    0  0.00000000000E+00 -0.00000000000E+00 -0.35947548532E+02  0.35947668832E+02  0.93000000000E-01 0.  1.
        -13    1    1    2    0    0  0.49147436525E+01  0.92796721823E+01 -0.22185640709E+02  0.24545485270E+02  0.10570000000E+00 0.  1.
         13    1    1    2    0    0 -0.49147436525E+01 -0.92796721823E+01 -0.10391617126E+02  0.14773757138E+02  0.10570000000E+00 0. -1.
<mgrwt>
<rscale>  0 0.22016473E+02</rscale>
<asrwt>0</asrwt>
<pdfrwt beam="2">  1        3 0.55304998E-02 0.22016473E+02</pdfrwt>
<pdfrwt beam="1">  1       -3 0.51861422E-03 0.22016473E+02</pdfrwt>
<totfact> 0.13588407E+06</totfact>
</mgrwt>
</event>
<event>
 4    1  0.1802450E-001  0.3886852E+02  0.7818608E-02  0.1516707E+00
          3   -1    0    0  501    0  0.00000000000E+00  0.00000000000E+00  0.62967425524E+02  0.62967494203E+02  0.93000000000E-01 0. -1.
         -3   -1    0    0    0  501 -0.00000000000E+00 -0.00000000000E+00 -0.59977563238E+01  0.59984773001E+01  0.93000000000E-01 0.  1.
        -13    1    1    2    0    0  0.12652432042E+02 -0.10714081080E+02  0.46475255858E+02  0.49344058908E+02  0.10570000000E+00 0. -1.
         13    1    1    2    0    0 -0.12652432042E+02  0.10714081080E+02  0.10494413342E+02  0.19621912594E+02  0.10570000000E+00 0.  1.
<mgrwt>
<rscale>  0 0.38868522E+02</rscale>
<asrwt>0</asrwt>
<pdfrwt beam="1">  1        3 0.96873571E-02 0.38868522E+02</pdfrwt>
<pdfrwt beam="2">  1       -3 0.92279248E-03 0.38868522E+02</pdfrwt>
<totfact> 0.33525814E+05</totfact>
</mgrwt>
</event>
<event>
 4    1  0.1802450E-001  0.2674743E+02  0.7818608E-02  0.1637101E+00
          3   -1    0    0  501    0  0.00000000000E+00  0.00000000000E+00  0.72219324388E+01  0.72225312149E+01  0.93000000000E-01 0.  1.
         -3   -1    0    0    0  501 -0.00000000000E+00 -0.00000000000E+00 -0.24763994004E+02  0.24764168632E+02  0.93000000000E-01 0. -1.
        -13    1    1    2    0    0  0.73406139108E+01 -0.95477745151E+01 -0.15723655432E+02  0.19806289996E+02  0.10570000000E+00 0. -1.
         13    1    1    2    0    0 -0.73406139108E+01  0.95477745151E+01 -0.18184061333E+01  0.12180409851E+02  0.10570000000E+00 0.  1.
<mgrwt>
<rscale>  0 0.26747431E+02</rscale>
<asrwt>0</asrwt>
<pdfrwt beam="1">  1        3 0.11111260E-02 0.26747431E+02</pdfrwt>
<pdfrwt beam="2">  1       -3 0.38099047E-02 0.26747431E+02</pdfrwt>
<totfact> 0.89932330E+05</totfact>
</mgrwt>
</event>
<event>
 4    1  0.1802450E-001  0.1681876E+03  0.7818608E-02  0.1179751E+00
          3   -1    0    0  501    0  0.00000000000E+00  0.00000000000E+00  0.47501817775E+02  0.47501908813E+02  0.93000000000E-01 0. -1.
         -3   -1    0    0    0  501 -0.00000000000E+00 -0.00000000000E+00 -0.14887344538E+03  0.14887347443E+03  0.93000000000E-01 0.  1.
        -13    1    1    2    0    0  0.41150714939E+02 -0.27444593434E+02 -0.13009247526E+03  0.13917848375E+03  0.10570000000E+00 0.  1.
         13    1    1    2    0    0 -0.41150714939E+02  0.27444593434E+02  0.28720847652E+02  0.57196899489E+02  0.10570000000E+00 0. -1.
<mgrwt>
<rscale>  0 0.16818765E+03</rscale>
<asrwt>0</asrwt>
<pdfrwt beam="1">  1        3 0.73079813E-02 0.16818765E+03</pdfrwt>
<pdfrwt beam="2">  1       -3 0.22903616E-01 0.16818765E+03</pdfrwt>
<totfact> 0.51577550E+03</totfact>
</mgrwt>
</event>
<event>
 4    1  0.1802450E-001  0.2236490E+02  0.7818608E-02  0.1702017E+00
         -3   -1    0    0    0  501 -0.00000000000E+00  0.00000000000E+00  0.31213632148E+01  0.31227483598E+01  0.93000000000E-01 0. -1.
          3   -1    0    0  501    0  0.00000000000E+00 -0.00000000000E+00 -0.40051401356E+02  0.40051509329E+02  0.93000000000E-01 0.  1.
        -13    1    1    2    0    0  0.10208917530E+02  0.30439491781E+01 -0.11904791272E+02  0.15975695648E+02  0.10570000000E+00 0. -1.
         13    1    1    2    0    0 -0.10208917530E+02 -0.30439491781E+01 -0.25025246869E+02  0.27198562041E+02  0.10570000000E+00 0.  1.
<mgrwt>
<rscale>  0 0.22364901E+02</rscale>
<asrwt>0</asrwt>
<pdfrwt beam="2">  1        3 0.61618685E-02 0.22364901E+02</pdfrwt>
<pdfrwt beam="1">  1       -3 0.48032461E-03 0.22364901E+02</pdfrwt>
<totfact> 0.12970789E+06</totfact>
</mgrwt>
</event>
<event>
 4    1  0.1802450E-001  0.4740915E+02  0.7818608E-02  0.1459839E+00
         -3   -1    0    0    0  501 -0.00000000000E+00  0.00000000000E+00  0.78890397317E+02  0.78890452134E+02  0.93000000000E-01 0.  1.
          3   -1    0    0  501    0  0.00000000000E+00 -0.00000000000E+00 -0.71222669095E+01  0.71228740639E+01  0.93000000000E-01 0. -1.
        -13    1    1    2    0    0  0.13123017566E+02 -0.67008967693E+01  0.21961076601E+01  0.14897975329E+02  0.10570000000E+00 0. -1.
         13    1    1    2    0    0 -0.13123017566E+02  0.67008967693E+01  0.69572022747E+02  0.71115350869E+02  0.10570000000E+00 0.  1.
<mgrwt>
<rscale>  0 0.47409153E+02</rscale>
<asrwt>0</asrwt>
<pdfrwt beam="2">  1        3 0.10957843E-02 0.47409153E+02</pdfrwt>
<pdfrwt beam="1">  1       -3 0.12137035E-01 0.47409153E+02</pdfrwt>
<totfact> 0.19713230E+05</totfact>
</mgrwt>
</event>
<event>
 4    1  0.1802450E-001  0.2280872E+02  0.7818608E-02  0.1694630E+00
          3   -1    0    0  501    0  0.00000000000E+00  0.00000000000E+00  0.16868364046E+02  0.16868620412E+02  0.93000000000E-01 0. -1.
         -3   -1    0    0    0  501 -0.00000000000E+00 -0.00000000000E+00 -0.77096588388E+01  0.77102197381E+01  0.93000000000E-01 0.  1.
        -13    1    1    2    0    0 -0.58147729422E+01 -0.82849150198E+01 -0.10816054155E+01  0.10180002162E+02  0.10570000000E+00 0.  1.
         13    1    1    2    0    0  0.58147729422E+01  0.82849150198E+01  0.10240310623E+02  0.14398837988E+02  0.10570000000E+00 0. -1.
<mgrwt>
<rscale>  0 0.22808715E+02</rscale>
<asrwt>0</asrwt>
<pdfrwt beam="1">  1        3 0.25951958E-02 0.22808715E+02</pdfrwt>
<pdfrwt beam="2">  1       -3 0.11861642E-02 0.22808715E+02</pdfrwt>
<totfact> 0.13195632E+06</totfact>
</mgrwt>
</event>
<event>
 4    1  0.1802450E-001  0.2140654E+02  0.7818608E-02  0.1718722E+00
         -3   -1    0    0    0  501 -0.00000000000E+00  0.00000000000E+00  0.41765273250E+01  0.41775626262E+01  0.93000000000E-01 0. -1.
          3   -1    0    0  501    0  0.00000000000E+00 -0.00000000000E+00 -0.27424960204E+02  0.27425117889E+02  0.93000000000E-01 0.  1.
        -13    1    1    2    0    0  0.36219740527E+01 -0.95261301197E+01 -0.16449496932E+02  0.19351045783E+02  0.10570000000E+00 0.  1.
         13    1    1    2    0    0 -0.36219740527E+01  0.95261301197E+01 -0.67989359473E+01  0.12251634732E+02  0.10570000000E+00 0. -1.
<mgrwt>
<rscale>  0 0.21406536E+02</rscale>
<asrwt>0</asrwt>
<pdfrwt beam="2">  1        3 0.42193163E-02 0.21406536E+02</pdfrwt>
<pdfrwt beam="1">  1       -3 0.64263445E-03 0.21406536E+02</pdfrwt>
<totfact> 0.14816742E+06</totfact>
</mgrwt>
</event>
<event>
 4    1  0.1802450E-001  0.2565193E+02  0.7818608E-02  0.1651811E+00
         -3   -1    0    0    0  501 -0.00000000000E+00  0.00000000000E+00  0.11190051593E+03  0.11190055457E+03  0.93000000000E-01 0. -1.
          3   -1    0    0  501    0  0.00000000000E+00 -0.00000000000E+00 -0.14685939441E+01  0.14715356511E+01  0.93000000000E-01 0.  1.
        -13    1    1    2    0    0  0.61512806565E+01  0.11250188609E+02  0.56535887569E+02  0.57971740988E+02  0.10570000000E+00 0. -1.
         13    1    1    2    0    0 -0.61512806565E+01 -0.11250188609E+02  0.53896034413E+02  0.55400349235E+02  0.10570000000E+00 0.  1.
<mgrwt>
<rscale>  0 0.25651929E+02</rscale>
<asrwt>0</asrwt>
<pdfrwt beam="2">  1        3 0.22616677E-03 0.25651929E+02</pdfrwt>
<pdfrwt beam="1">  1       -3 0.17215695E-01 0.25651929E+02</pdfrwt>
<totfact> 0.79406074E+05</totfact>
</mgrwt>
</event>
<event>
 4    1  0.1802450E-001  0.3088084E+02  0.7818608E-02  0.1588551E+00
          3   -1    0    0  501    0  0.00000000000E+00  0.00000000000E+00  0.27698430860E+01  0.27714039260E+01  0.93000000000E-01 0.  1.
         -3   -1    0    0    0  501 -0.00000000000E+00 -0.00000000000E+00 -0.86046410214E+02  0.86046460472E+02  0.93000000000E-01 0. -1.
        -13    1    1    2    0    0  0.28682429121E+01  0.15035495650E+02 -0.35812766060E+02  0.38946865499E+02  0.10570000000E+00 0.  1.
         13    1    1    2    0    0 -0.28682429121E+01 -0.15035495650E+02 -0.47463801068E+02  0.49870998899E+02  0.10570000000E+00 0. -1.
<mgrwt>
<rscale>  0 0.30880842E+02</rscale>
<asrwt>0</asrwt>
<pdfrwt beam="1">  1        3 0.42625370E-03 0.30880842E+02</pdfrwt>
<pdfrwt beam="2">  1       -3 0.13238031E-01 0.30880842E+02</pdfrwt>
<totfact> 0.55078208E+05</totfact>
</mgrwt>
</event>
<event>
 4    1  0.1802450E-001  0.2855855E+02  0.7818608E-02  0.1614591E+00
         -3   -1    0    0    0  501 -0.00000000000E+00  0.00000000000E+00  0.10834267536E+02  0.10834666679E+02  0.93000000000E-01 0.  1.
          3   -1    0    0  501    0  0.00000000000E+00 -0.00000000000E+00 -0.18818839430E+02  0.18819069225E+02  0.93000000000E-01 0. -1.
        -13    1    1    2    0    0  0.12356914360E+02  0.43730096131E+01  0.18879184285E+01  0.13243562741E+02  0.10570000000E+00 0.  1.
         13    1    1    2    0    0 -0.12356914360E+02 -0.43730096131E+01 -0.98724903231E+01  0.16410173163E+02  0.10570000000E+00 0. -1.
<mgrwt>
<rscale>  0 0.28558548E+02</rscale>
<asrwt>0</asrwt>
<pdfrwt beam="2">  1        3 0.28952544E-02 0.28558548E+02</pdfrwt>
<pdfrwt beam="1">  1       -3 0.16668588E-02 0.28558548E+02</pdfrwt>
<totfact> 0.77947146E+05</totfact>
</mgrwt>
</event>
<event>
 4    1  0.1802450E-001  0.3204794E+02  0.7818608E-02  0.1576495E+00
         -3   -1    0    0    0  501 -0.00000000000E+00  0.00000000000E+00  0.43650588932E+02  0.43650688002E+02  0.93000000000E-01 0. -1.
          3   -1    0    0  501    0  0.00000000000E+00 -0.00000000000E+00 -0.58818668922E+01  0.58826020720E+01  0.93000000000E-01 0.  1.
        -13    1    1    2    0    0  0.14786204919E+02  0.56834306666E+01  0.22614096318E+02  0.27610537206E+02  0.10570000000E+00 0. -1.
         13    1    1    2    0    0 -0.14786204919E+02 -0.56834306666E+01  0.15154625722E+02  0.21922752868E+02  0.10570000000E+00 0.  1.
<mgrwt>
<rscale>  0 0.32047940E+02</rscale>
<asrwt>0</asrwt>
<pdfrwt beam="2">  1        3 0.90496678E-03 0.32047940E+02</pdfrwt>
<pdfrwt beam="1">  1       -3 0.67155393E-02 0.32047940E+02</pdfrwt>
<totfact> 0.56061506E+05</totfact>
</mgrwt>
</event>
<event>
 4    1  0.1802450E-001  0.3535546E+02  0.7818608E-02  0.1545466E+00
          3   -1    0    0  501    0  0.00000000000E+00  0.00000000000E+00  0.92705249401E+02  0.92705296049E+02  0.93000000000E-01 0.  1.
         -3   -1    0    0    0  501 -0.00000000000E+00 -0.00000000000E+00 -0.33702336897E+01  0.33715165910E+01  0.93000000000E-01 0. -1.
        -13    1    1    2    0    0  0.13340937548E+02  0.60035795924E+01  0.71633004402E+02  0.73111709560E+02  0.10570000000E+00 0.  1.
         13    1    1    2    0    0 -0.13340937548E+02 -0.60035795924E+01  0.17702011309E+02  0.22965103080E+02  0.10570000000E+00 0. -1.
<mgrwt>
<rscale>  0 0.35355465E+02</rscale>
<asrwt>0</asrwt>
<pdfrwt beam="1">  1        3 0.14262446E-01 0.35355465E+02</pdfrwt>
<pdfrwt beam="2">  1       -3 0.51859986E-03 0.35355465E+02</pdfrwt>
<totfact> 0.39339385E+05</totfact>
</mgrwt>
</event>
<event>
 4    1  0.1802450E-001  0.3225829E+02  0.7818608E-02  0.1574389E+00
          3   -1    0    0  501    0  0.00000000000E+00  0.00000000000E+00  0.32279368289E+01  0.32292762613E+01  0.93000000000E-01 0.  1.
         -3   -1    0    0    0  501 -0.00000000000E+00 -0.00000000000E+00 -0.80574993821E+02  0.80575047492E+02  0.93000000000E-01 0. -1.
        -13    1    1    2    0    0  0.89295237349E+01 -0.13010585801E+02 -0.30007832758E+02  0.33904172846E+02  0.10570000000E+00 0. -1.
         13    1    1    2    0    0 -0.89295237349E+01  0.13010585801E+02 -0.47339224234E+02  0.49900150908E+02  0.10570000000E+00 0.  1.
<mgrwt>
<rscale>  0 0.32258293E+02</rscale>
<asrwt>0</asrwt>
<pdfrwt beam="1">  1        3 0.49671289E-03 0.32258293E+02</pdfrwt>
<pdfrwt beam="2">  1       -3 0.12396259E-01 0.32258293E+02</pdfrwt>
<totfact> 0.50359996E+05</totfact>
</mgrwt>
</event>
<event>
 4    1  0.1802450E-001  0.3888541E+02  0.7818608E-02  0.1516578E+00
         -3   -1    0    0    0  501 -0.00000000000E+00  0.00000000000E+00  0.78498017473E+01  0.78503526336E+01  0.93000000000E-01 0. -1.
          3   -1    0    0  501    0  0.00000000000E+00 -0.00000000000E+00 -0.48154184316E+02  0.48154274121E+02  0.93000000000E-01 0.  1.
        -13    1    1    2    0    0  0.84369250808E+01 -0.14235372364E+02 -0.34852603065E+02  0.38581636099E+02  0.10570000000E+00 0.  1.
         13    1    1    2    0    0 -0.84369250808E+01  0.14235372364E+02 -0.54517795031E+01  0.17422990656E+02  0.10570000000E+00 0. -1.
<mgrwt>
<rscale>  0 0.38885408E+02</rscale>
<asrwt>0</asrwt>
<pdfrwt beam="2">  1        3 0.74083851E-02 0.38885408E+02</pdfrwt>
<pdfrwt beam="1">  1       -3 0.12077111E-02 0.38885408E+02</pdfrwt>
<totfact> 0.34666750E+05</totfact>
</mgrwt>
</event>
<event>
 4    1  0.1802450E-001  0.3418302E+02  0.7818608E-02  0.1555978E+00
          3   -1    0    0  501    0  0.00000000000E+00  0.00000000000E+00  0.11581700483E+02  0.11582073868E+02  0.93000000000E-01 0.  1.
         -3   -1    0    0    0  501 -0.00000000000E+00 -0.00000000000E+00 -0.25221661429E+02  0.25221832888E+02  0.93000000000E-01 0. -1.
        -13    1    1    2    0    0 -0.52474128971E+01  0.13441091800E+02  0.30426117319E+01  0.14746760645E+02  0.10570000000E+00 0.  1.
         13    1    1    2    0    0  0.52474128971E+01 -0.13441091800E+02 -0.16682572678E+02  0.22057146111E+02  0.10570000000E+00 0. -1.
<mgrwt>
<rscale>  0 0.34183022E+02</rscale>
<asrwt>0</asrwt>
<pdfrwt beam="1">  1        3 0.17818420E-02 0.34183022E+02</pdfrwt>
<pdfrwt beam="2">  1       -3 0.38802975E-02 0.34183022E+02</pdfrwt>
<totfact> 0.49959633E+05</totfact>
</mgrwt>
</event>
<event>
 4    1  0.1802450E-001  0.2348590E+02  0.7818608E-02  0.1683753E+00
          3   -1    0    0  501    0  0.00000000000E+00  0.00000000000E+00  0.21180239249E+01  0.21200647033E+01  0.93000000000E-01 0. -1.
         -3   -1    0    0    0  501 -0.00000000000E+00 -0.00000000000E+00 -0.65072978846E+02  0.65073045302E+02  0.93000000000E-01 0.  1.
        -13    1    1    2    0    0  0.74902397608E+01 -0.77315320121E+01 -0.18056542220E+02  0.21022135200E+02  0.10570000000E+00 0. -1.
         13    1    1    2    0    0 -0.74902397608E+01  0.77315320121E+01 -0.44898412701E+02  0.46170974806E+02  0.10570000000E+00 0.  1.
<mgrwt>
<rscale>  0 0.23485904E+02</rscale>
<asrwt>0</asrwt>
<pdfrwt beam="1">  1        3 0.32601198E-03 0.23485904E+02</pdfrwt>
<pdfrwt beam="2">  1       -3 0.10011388E-01 0.23485904E+02</pdfrwt>
<totfact> 0.10862891E+06</totfact>
</mgrwt>
</event>
<event>
 4    1  0.1802450E-001  0.4280709E+02  0.7818608E-02  0.1488515E+00
         -3   -1    0    0    0  501 -0.00000000000E+00  0.00000000000E+00  0.27676477281E+02  0.27676633532E+02  0.93000000000E-01 0. -1.
          3   -1    0    0  501    0  0.00000000000E+00 -0.00000000000E+00 -0.16552056103E+02  0.16552317368E+02  0.93000000000E-01 0.  1.
        -13    1    1    2    0    0 -0.11174353771E+02 -0.13023005423E+02 -0.76547034202E+01  0.18790170552E+02  0.10570000000E+00 0.  1.
         13    1    1    2    0    0  0.11174353771E+02  0.13023005423E+02  0.18779124598E+02  0.25438780348E+02  0.10570000000E+00 0. -1.
<mgrwt>
<rscale>  0 0.42807095E+02</rscale>
<asrwt>0</asrwt>
<pdfrwt beam="2">  1        3 0.25465023E-02 0.42807095E+02</pdfrwt>
<pdfrwt beam="1">  1       -3 0.42579517E-02 0.42807095E+02</pdfrwt>
<totfact> 0.28317126E+05</totfact>
</mgrwt>
</event>
<event>
 4    1  0.1802450E-001  0.2857159E+02  0.7818608E-02  0.1614437E+00
          3   -1    0    0  501    0  0.00000000000E+00  0.00000000000E+00  0.11528929608E+02  0.11529304702E+02  0.93000000000E-01 0. -1.
         -3   -1    0    0    0  501 -0.00000000000E+00 -0.00000000000E+00 -0.17701115692E+02  0.17701359997E+02  0.93000000000E-01 0.  1.
        -13    1    1    2    0    0  0.32638423290E+01 -0.13249905746E+02 -0.74097032303E+01  0.15528282052E+02  0.10570000000E+00 0.  1.
         13    1    1    2    0    0 -0.32638423290E+01  0.13249905746E+02  0.12375171460E+01  0.13702382647E+02  0.10570000000E+00 0. -1.
<mgrwt>
<rscale>  0 0.28571592E+02</rscale>
<asrwt>0</asrwt>
<pdfrwt beam="1">  1        3 0.17737291E-02 0.28571592E+02</pdfrwt>
<pdfrwt beam="2">  1       -3 0.27232962E-02 0.28571592E+02</pdfrwt>
<totfact> 0.77973962E+05</totfact>
</mgrwt>
</event>
<event>
 4    1  0.1802450E-001  0.2363560E+02  0.7818608E-02  0.1681410E+00
          3   -1    0    0  501    0  0.00000000000E+00  0.00000000000E+00  0.38869767617E+01  0.38880891638E+01  0.93000000000E-01 0. -1.
         -3   -1    0    0    0  501 -0.00000000000E+00 -0.00000000000E+00 -0.35924039815E+02  0.35924160194E+02  0.93000000000E-01 0.  1.
        -13    1    1    2    0    0 -0.33538001680E+01 -0.11267326976E+02 -0.13991172927E+02  0.18274701779E+02  0.10570000000E+00 0. -1.
         13    1    1    2    0    0  0.33538001680E+01  0.11267326976E+02 -0.18045890127E+02  0.21537547579E+02  0.10570000000E+00 0.  1.
<mgrwt>
<rscale>  0 0.23635604E+02</rscale>
<asrwt>0</asrwt>
<pdfrwt beam="1">  1        3 0.59809128E-03 0.23635604E+02</pdfrwt>
<pdfrwt beam="2">  1       -3 0.55268700E-02 0.23635604E+02</pdfrwt>
<totfact> 0.11598527E+06</totfact>
</mgrwt>
</event>
<event>
 4    1  0.1802450E-001  0.4598289E+02  0.7818608E-02  0.1468297E+00
         -3   -1    0    0    0  501 -0.00000000000E+00  0.00000000000E+00  0.13481328916E+02  0.13481649690E+02  0.93000000000E-01 0.  1.
          3   -1    0    0  501    0  0.00000000000E+00 -0.00000000000E+00 -0.39209432450E+02  0.39209542742E+02  0.93000000000E-01 0. -1.
        -13    1    1    2    0    0  0.19479482389E+02 -0.91943606024E+01 -0.36534492877E+01  0.21848234830E+02  0.10570000000E+00 0. -1.
         13    1    1    2    0    0 -0.19479482389E+02  0.91943606024E+01 -0.22074654246E+02  0.30842957601E+02  0.10570000000E+00 0.  1.
<mgrwt>
<rscale>  0 0.45982893E+02</rscale>
<asrwt>0</asrwt>
<pdfrwt beam="2">  1        3 0.60322535E-02 0.45982893E+02</pdfrwt>
<pdfrwt beam="1">  1       -3 0.20740838E-02 0.45982893E+02</pdfrwt>
<totfact> 0.23155855E+05</totfact>
</mgrwt>
</event>
<event>
 4    1  0.1802450E-001  0.2815510E+02  0.7818608E-02  0.1619425E+00
         -3   -1    0    0    0  501 -0.00000000000E+00  0.00000000000E+00  0.12260260865E+01  0.12295482767E+01  0.93000000000E-01 0. -1.
          3   -1    0    0  501    0  0.00000000000E+00 -0.00000000000E+00 -0.16140675121E+03  0.16140677800E+03  0.93000000000E-01 0.  1.
        -13    1    1    2    0    0  0.16534671971E+01  0.13962811545E+02 -0.84059953579E+02  0.85227818394E+02  0.10570000000E+00 0.  1.
         13    1    1    2    0    0 -0.16534671971E+01 -0.13962811545E+02 -0.76120771543E+02  0.77408507883E+02  0.10570000000E+00 0. -1.
<mgrwt>
<rscale>  0 0.28155105E+02</rscale>
<asrwt>0</asrwt>
<pdfrwt beam="2">  1        3 0.24832064E-01 0.28155105E+02</pdfrwt>
<pdfrwt beam="1">  1       -3 0.18889252E-03 0.28155105E+02</pdfrwt>
<totfact> 0.57677130E+05</totfact>
</mgrwt>
</event>
<event>
 4    1  0.1802450E-001  0.3806192E+02  0.7818608E-02  0.1522978E+00
         -3   -1    0    0    0  501 -0.00000000000E+00  0.00000000000E+00  0.15879929803E+02  0.15880202126E+02  0.93000000000E-01 0.  1.
          3   -1    0    0  501    0  0.00000000000E+00 -0.00000000000E+00 -0.22806682183E+02  0.22806871798E+02  0.93000000000E-01 0. -1.
        -13    1    1    2    0    0  0.15733993942E+02  0.72825311218E+01  0.45123163492E+01  0.17915523890E+02  0.10570000000E+00 0.  1.
         13    1    1    2    0    0 -0.15733993942E+02 -0.72825311218E+01 -0.11439068729E+02  0.20771550034E+02  0.10570000000E+00 0. -1.
<mgrwt>
<rscale>  0 0.38061920E+02</rscale>
<asrwt>0</asrwt>
<pdfrwt beam="2">  1        3 0.35087559E-02 0.38061920E+02</pdfrwt>
<pdfrwt beam="1">  1       -3 0.24431017E-02 0.38061920E+02</pdfrwt>
<totfact> 0.38354493E+05</totfact>
</mgrwt>
</event>
<event>
 4    1  0.1802450E-001  0.2397160E+02  0.7818608E-02  0.1676228E+00
          3   -1    0    0  501    0  0.00000000000E+00  0.00000000000E+00  0.16265128014E+02  0.16265393888E+02  0.93000000000E-01 0. -1.
         -3   -1    0    0    0  501 -0.00000000000E+00 -0.00000000000E+00 -0.88317734591E+01  0.88322630980E+01  0.93000000000E-01 0.  1.
        -13    1    1    2    0    0 -0.11587516481E+02  0.27517681708E+01  0.23098816033E+01  0.12132167645E+02  0.10570000000E+00 0.  1.
         13    1    1    2    0    0  0.11587516481E+02 -0.27517681708E+01  0.51234729520E+01  0.12965489341E+02  0.10570000000E+00 0. -1.
<mgrwt>
<rscale>  0 0.23971600E+02</rscale>
<asrwt>0</asrwt>
<pdfrwt beam="1">  1        3 0.25023855E-02 0.23971600E+02</pdfrwt>
<pdfrwt beam="2">  1       -3 0.13587925E-02 0.23971600E+02</pdfrwt>
<totfact> 0.11791802E+06</totfact>
</mgrwt>
</event>
<event>
 4    1  0.1802450E-001  0.2255365E+02  0.7818608E-02  0.1698849E+00
          3   -1    0    0  501    0  0.00000000000E+00  0.00000000000E+00  0.66260612175E+01  0.66267138355E+01  0.93000000000E-01 0.  1.
         -3   -1    0    0    0  501 -0.00000000000E+00 -0.00000000000E+00 -0.19190198682E+02  0.19190424030E+02  0.93000000000E-01 0. -1.
        -13    1    1    2    0    0 -0.99709563259E+01 -0.52608419524E+01 -0.65605007168E+01  0.13044070310E+02  0.10570000000E+00 0. -1.
         13    1    1    2    0    0  0.99709563259E+01  0.52608419524E+01 -0.60036367480E+01  0.12773067556E+02  0.10570000000E+00 0.  1.
<mgrwt>
<rscale>  0 0.22553648E+02</rscale>
<asrwt>0</asrwt>
<pdfrwt beam="1">  1        3 0.10194616E-02 0.22553648E+02</pdfrwt>
<pdfrwt beam="2">  1       -3 0.29524058E-02 0.22553648E+02</pdfrwt>
<totfact> 0.13471217E+06</totfact>
</mgrwt>
</event>
<event>
 4    1  0.1802450E-001  0.2824247E+02  0.7818608E-02  0.1618370E+00
         -3   -1    0    0    0  501 -0.00000000000E+00  0.00000000000E+00  0.36176389714E+02  0.36176509253E+02  0.93000000000E-01 0.  1.
          3   -1    0    0  501    0  0.00000000000E+00 -0.00000000000E+00 -0.55116181644E+01  0.55124027239E+01  0.93000000000E-01 0. -1.
        -13    1    1    2    0    0  0.10798474737E+02  0.45138054794E+01  0.36705209548E+01  0.12266433594E+02  0.10570000000E+00 0. -1.
         13    1    1    2    0    0 -0.10798474737E+02 -0.45138054794E+01  0.26994250595E+02  0.29422478383E+02  0.10570000000E+00 0.  1.
<mgrwt>
<rscale>  0 0.28242471E+02</rscale>
<asrwt>0</asrwt>
<pdfrwt beam="2">  1        3 0.84801077E-03 0.28242471E+02</pdfrwt>
<pdfrwt beam="1">  1       -3 0.55656682E-02 0.28242471E+02</pdfrwt>
<totfact> 0.77019185E+05</totfact>
</mgrwt>
</event>
<event>
 4    1  0.1802450E-001  0.6477385E+02  0.7818608E-02  0.1378824E+00
         -3   -1    0    0    0  501 -0.00000000000E+00  0.00000000000E+00  0.63715831300E+02  0.63715899171E+02  0.93000000000E-01 0.  1.
          3   -1    0    0  501    0  0.00000000000E+00 -0.00000000000E+00 -0.16462151002E+02  0.16462413694E+02  0.93000000000E-01 0. -1.
        -13    1    1    2    0    0  0.16351603954E+02 -0.25975816557E+02  0.10835686204E+02  0.32550595473E+02  0.10570000000E+00 0. -1.
         13    1    1    2    0    0 -0.16351603954E+02  0.25975816557E+02  0.36417994094E+02  0.47627717392E+02  0.10570000000E+00 0.  1.
<mgrwt>
<rscale>  0 0.64773849E+02</rscale>
<asrwt>0</asrwt>
<pdfrwt beam="2">  1        3 0.25326640E-02 0.64773849E+02</pdfrwt>
<pdfrwt beam="1">  1       -3 0.98024611E-02 0.64773849E+02</pdfrwt>
<totfact> 0.90159419E+04</totfact>
</mgrwt>
</event>
<event>
 4    1  0.1802450E-001  0.3097423E+02  0.7818608E-02  0.1587563E+00
          3   -1    0    0  501    0  0.00000000000E+00  0.00000000000E+00  0.13402502943E+02  0.13402825603E+02  0.93000000000E-01 0. -1.
         -3   -1    0    0    0  501 -0.00000000000E+00 -0.00000000000E+00 -0.17895308824E+02  0.17895550478E+02  0.93000000000E-01 0.  1.
        -13    1    1    2    0    0  0.11625244998E+02 -0.44813502023E+00  0.80827259713E+01  0.14166466669E+02  0.10570000000E+00 0. -1.
         13    1    1    2    0    0 -0.11625244998E+02  0.44813502023E+00 -0.12575531852E+02  0.17131909412E+02  0.10570000000E+00 0.  1.
<mgrwt>
<rscale>  0 0.30974232E+02</rscale>
<asrwt>0</asrwt>
<pdfrwt beam="1">  1        3 0.20619669E-02 0.30974232E+02</pdfrwt>
<pdfrwt beam="2">  1       -3 0.27531678E-02 0.30974232E+02</pdfrwt>
<totfact> 0.64166644E+05</totfact>
</mgrwt>
</event>
<event>
 4    1  0.1802450E-001  0.2412194E+02  0.7818608E-02  0.1673944E+00
          3   -1    0    0  501    0  0.00000000000E+00  0.00000000000E+00  0.70382437914E+01  0.70388581934E+01  0.93000000000E-01 0. -1.
         -3   -1    0    0    0  501 -0.00000000000E+00 -0.00000000000E+00 -0.20666464746E+02  0.20666673997E+02  0.93000000000E-01 0.  1.
        -13    1    1    2    0    0 -0.47414261658E+01  0.10922856854E+02 -0.46150036254E+01  0.12771035780E+02  0.10570000000E+00 0.  1.
         13    1    1    2    0    0  0.47414261658E+01 -0.10922856854E+02 -0.90132173296E+01  0.14934496411E+02  0.10570000000E+00 0. -1.
<mgrwt>
<rscale>  0 0.24121942E+02</rscale>
<asrwt>0</asrwt>
<pdfrwt beam="1">  1        3 0.10828701E-02 0.24121942E+02</pdfrwt>
<pdfrwt beam="2">  1       -3 0.31795194E-02 0.24121942E+02</pdfrwt>
<totfact> 0.11525789E+06</totfact>
</mgrwt>
</event>
<event>
 4    1  0.1802450E-001  0.2206899E+02  0.7818608E-02  0.1707062E+00
          3   -1    0    0  501    0  0.00000000000E+00  0.00000000000E+00  0.11597101399E+01  0.11634331131E+01  0.93000000000E-01 0.  1.
         -3   -1    0    0    0  501 -0.00000000000E+00 -0.00000000000E+00 -0.10481983660E+03  0.10481987785E+03  0.93000000000E-01 0. -1.
        -13    1    1    2    0    0 -0.10851285834E+02 -0.86804125019E-01 -0.42236166565E+02  0.43608059780E+02  0.10570000000E+00 0.  1.
         13    1    1    2    0    0  0.10851285834E+02  0.86804125019E-01 -0.61423959891E+02  0.62375251185E+02  0.10570000000E+00 0. -1.
<mgrwt>
<rscale>  0 0.22068992E+02</rscale>
<asrwt>0</asrwt>
<pdfrwt beam="1">  1        3 0.17870658E-03 0.22068992E+02</pdfrwt>
<pdfrwt beam="2">  1       -3 0.16126411E-01 0.22068992E+02</pdfrwt>
<totfact> 0.11287763E+06</totfact>
</mgrwt>
</event>
<event>
 4    1  0.1802450E-001  0.3456363E+02  0.7818608E-02  0.1552510E+00
         -3   -1    0    0    0  501 -0.00000000000E+00  0.00000000000E+00  0.99303653105E+01  0.99308007834E+01  0.93000000000E-01 0. -1.
          3   -1    0    0  501    0  0.00000000000E+00 -0.00000000000E+00 -0.30074378299E+02  0.30074522092E+02  0.93000000000E-01 0.  1.
        -13    1    1    2    0    0  0.36126002679E+01  0.16764108701E+02 -0.12544639308E+02  0.21247714444E+02  0.10570000000E+00 0. -1.
         13    1    1    2    0    0 -0.36126002679E+01 -0.16764108701E+02 -0.75993736803E+01  0.18757608431E+02  0.10570000000E+00 0.  1.
<mgrwt>
<rscale>  0 0.34563631E+02</rscale>
<asrwt>0</asrwt>
<pdfrwt beam="2">  1        3 0.46268719E-02 0.34563631E+02</pdfrwt>
<pdfrwt beam="1">  1       -3 0.15277931E-02 0.34563631E+02</pdfrwt>
<totfact> 0.48190640E+05</totfact>
</mgrwt>
</event>
<event>
 4    1  0.1802450E-001  0.6017770E+02  0.7818608E-02  0.1397088E+00
          3   -1    0    0  501    0  0.00000000000E+00  0.00000000000E+00  0.21128226812E+02  0.21128431489E+02  0.93000000000E-01 0. -1.
         -3   -1    0    0    0  501 -0.00000000000E+00 -0.00000000000E+00 -0.42849277686E+02  0.42849378609E+02  0.93000000000E-01 0.  1.
        -13    1    1    2    0    0 -0.21000044271E+02  0.19570260268E+02 -0.12726677211E+01  0.28733739783E+02  0.10570000000E+00 0. -1.
         13    1    1    2    0    0  0.21000044271E+02 -0.19570260268E+02 -0.20448383153E+02  0.35244070315E+02  0.10570000000E+00 0.  1.
<mgrwt>
<rscale>  0 0.60177705E+02</rscale>
<asrwt>0</asrwt>
<pdfrwt beam="1">  1        3 0.32505199E-02 0.60177705E+02</pdfrwt>
<pdfrwt beam="2">  1       -3 0.65922201E-02 0.60177705E+02</pdfrwt>
<totfact> 0.11352424E+05</totfact>
</mgrwt>
</event>
<event>
 4    1  0.1802450E-001  0.3929687E+02  0.7818608E-02  0.1513450E+00
          3   -1    0    0  501    0  0.00000000000E+00  0.00000000000E+00  0.38143415497E+01  0.38154751287E+01  0.93000000000E-01 0. -1.
         -3   -1    0    0    0  501 -0.00000000000E+00 -0.00000000000E+00 -0.10119679627E+03  0.10119683900E+03  0.93000000000E-01 0.  1.
        -13    1    1    2    0    0  0.17230025696E+02  0.48453117458E+01 -0.27031081233E+02  0.32419767989E+02  0.10570000000E+00 0. -1.
         13    1    1    2    0    0 -0.17230025696E+02 -0.48453117458E+01 -0.70351373484E+02  0.72592546139E+02  0.10570000000E+00 0.  1.
<mgrwt>
<rscale>  0 0.39296865E+02</rscale>
<asrwt>0</asrwt>
<pdfrwt beam="1">  1        3 0.58691234E-03 0.39296865E+02</pdfrwt>
<pdfrwt beam="2">  1       -3 0.15568826E-01 0.39296865E+02</pdfrwt>
<totfact> 0.29882687E+05</totfact>
</mgrwt>
</event>
<event>
 4    1  0.1802450E-001  0.2232346E+02  0.7818608E-02  0.1702717E+00
         -3   -1    0    0    0  501 -0.00000000000E+00  0.00000000000E+00  0.11538556091E+02  0.11538930871E+02  0.93000000000E-01 0.  1.
          3   -1    0    0  501    0  0.00000000000E+00 -0.00000000000E+00 -0.10796456466E+02  0.10796857006E+02  0.93000000000E-01 0. -1.
        -13    1    1    2    0    0 -0.40484858626E+01  0.99308405207E+01  0.34648725935E+01  0.11270685241E+02  0.10570000000E+00 0.  1.
         13    1    1    2    0    0  0.40484858626E+01 -0.99308405207E+01 -0.27227729684E+01  0.11065102636E+02  0.10570000000E+00 0. -1.
<mgrwt>
<rscale>  0 0.22323456E+02</rscale>
<asrwt>0</asrwt>
<pdfrwt beam="2">  1        3 0.16610529E-02 0.22323456E+02</pdfrwt>
<pdfrwt beam="1">  1       -3 0.17752221E-02 0.22323456E+02</pdfrwt>
<totfact> 0.13948417E+06</totfact>
</mgrwt>
</event>
<event>
 4    1  0.1802450E-001  0.2027598E+02  0.7818608E-02  0.1739895E+00
          3   -1    0    0  501    0  0.00000000000E+00  0.00000000000E+00  0.44777024875E+02  0.44777121454E+02  0.93000000000E-01 0.  1.
         -3   -1    0    0    0  501 -0.00000000000E+00 -0.00000000000E+00 -0.22943065168E+01  0.22961906265E+01  0.93000000000E-01 0. -1.
        -13    1    1    2    0    0 -0.95228296313E+01  0.31234644758E+01  0.17699560836E+02  0.20340254197E+02  0.10570000000E+00 0. -1.
         13    1    1    2    0    0  0.95228296313E+01 -0.31234644758E+01  0.24783157522E+02  0.26733057883E+02  0.10570000000E+00 0.  1.
<mgrwt>
<rscale>  0 0.20275980E+02</rscale>
<asrwt>0</asrwt>
<pdfrwt beam="1">  1        3 0.68889249E-02 0.20275980E+02</pdfrwt>
<pdfrwt beam="2">  1       -3 0.35312262E-03 0.20275980E+02</pdfrwt>
<totfact> 0.15875032E+06</totfact>
</mgrwt>
</event>
<event>
 4    1  0.1802450E-001  0.2560171E+02  0.7818608E-02  0.1652507E+00
          3   -1    0    0  501    0  0.00000000000E+00  0.00000000000E+00  0.17656206407E+01  0.17680682246E+01  0.93000000000E-01 0.  1.
         -3   -1    0    0    0  501 -0.00000000000E+00 -0.00000000000E+00 -0.92740223018E+02  0.92740269649E+02  0.93000000000E-01 0. -1.
        -13    1    1    2    0    0  0.11801080160E+02 -0.49445225640E+01 -0.44121234099E+02  0.45939180089E+02  0.10570000000E+00 0.  1.
         13    1    1    2    0    0 -0.11801080160E+02  0.49445225640E+01 -0.46853368278E+02  0.48569157784E+02  0.10570000000E+00 0. -1.
<mgrwt>
<rscale>  0 0.25601712E+02</rscale>
<asrwt>0</asrwt>
<pdfrwt beam="1">  1        3 0.27182588E-03 0.25601712E+02</pdfrwt>
<pdfrwt beam="2">  1       -3 0.14267915E-01 0.25601712E+02</pdfrwt>
<totfact> 0.83449030E+05</totfact>
</mgrwt>
</event>
<event>
 4    1  0.1802450E-001  0.3252349E+02  0.7818608E-02  0.1571761E+00
          3   -1    0    0  501    0  0.00000000000E+00  0.00000000000E+00  0.39216989481E+01  0.39228015039E+01  0.93000000000E-01 0.  1.
         -3   -1    0    0    0  501 -0.00000000000E+00 -0.00000000000E+00 -0.67420447291E+02  0.67420511433E+02  0.93000000000E-01 0. -1.
        -13    1    1    2    0    0  0.19341391563E+01  0.13376671405E+02 -0.11915004894E+02  0.18018178217E+02  0.10570000000E+00 0.  1.
         13    1    1    2    0    0 -0.19341391563E+01 -0.13376671405E+02 -0.51583743449E+02  0.53325134720E+02  0.10570000000E+00 0. -1.
<mgrwt>
<rscale>  0 0.32523488E+02</rscale>
<asrwt>0</asrwt>
<pdfrwt beam="1">  1        3 0.60342809E-03 0.32523488E+02</pdfrwt>
<pdfrwt beam="2">  1       -3 0.10372465E-01 0.32523488E+02</pdfrwt>
<totfact> 0.51008131E+05</totfact>
</mgrwt>
</event>
<event>
 4    1  0.1802450E-001  0.3978014E+02  0.7818608E-02  0.1509836E+00
         -3   -1    0    0    0  501 -0.00000000000E+00  0.00000000000E+00  0.90755768784E+01  0.90760533645E+01  0.93000000000E-01 0.  1.
          3   -1    0    0  501    0  0.00000000000E+00 -0.00000000000E+00 -0.43589476500E+02  0.43589575710E+02  0.93000000000E-01 0. -1.
        -13    1    1    2    0    0  0.19469370573E+01 -0.19683651930E+02 -0.20023562608E+02  0.28145886897E+02  0.10570000000E+00 0. -1.
         13    1    1    2    0    0 -0.19469370573E+01  0.19683651930E+02 -0.14490337014E+02  0.24519742178E+02  0.10570000000E+00 0.  1.
<mgrwt>
<rscale>  0 0.39780136E+02</rscale>
<asrwt>0</asrwt>
<pdfrwt beam="2">  1        3 0.67061175E-02 0.39780136E+02</pdfrwt>
<pdfrwt beam="1">  1       -3 0.13962869E-02 0.39780136E+02</pdfrwt>
<totfact> 0.33102665E+05</totfact>
</mgrwt>
</event>
<event>
 4    1  0.1802450E-001  0.2658138E+02  0.7818608E-02  0.1639275E+00
         -3   -1    0    0    0  501 -0.00000000000E+00  0.00000000000E+00  0.87687299688E+02  0.87687349005E+02  0.93000000000E-01 0. -1.
          3   -1    0    0  501    0  0.00000000000E+00 -0.00000000000E+00 -0.20133349306E+01  0.20154817149E+01  0.93000000000E-01 0.  1.
        -13    1    1    2    0    0  0.11488637585E+02 -0.37716058741E+01  0.24225117697E+02  0.27075474222E+02  0.10570000000E+00 0.  1.
         13    1    1    2    0    0 -0.11488637585E+02  0.37716058741E+01  0.61448847061E+02  0.62627356498E+02  0.10570000000E+00 0. -1.
<mgrwt>
<rscale>  0 0.26581377E+02</rscale>
<asrwt>0</asrwt>
<pdfrwt beam="2">  1        3 0.30991270E-03 0.26581377E+02</pdfrwt>
<pdfrwt beam="1">  1       -3 0.13490526E-01 0.26581377E+02</pdfrwt>
<totfact> 0.77573382E+05</totfact>
</mgrwt>
</event>
<event>
 4    1  0.1802450E-001  0.2295929E+02  0.7818608E-02  0.1692171E+00
         -3   -1    0    0    0  501 -0.00000000000E+00  0.00000000000E+00  0.22342771717E+02  0.22342965269E+02  0.93000000000E-01 0.  1.
          3   -1    0    0  501    0  0.00000000000E+00 -0.00000000000E+00 -0.58976187875E+01  0.58983520040E+01  0.93000000000E-01 0. -1.
        -13    1    1    2    0    0  0.34701047923E+01 -0.96947381754E+01  0.14463420737E+02  0.17754753940E+02  0.10570000000E+00 0. -1.
         13    1    1    2    0    0 -0.34701047923E+01  0.96947381754E+01  0.19817321923E+01  0.10486563333E+02  0.10570000000E+00 0.  1.
<mgrwt>
<rscale>  0 0.22959289E+02</rscale>
<asrwt>0</asrwt>
<pdfrwt beam="2">  1        3 0.90739726E-03 0.22959289E+02</pdfrwt>
<pdfrwt beam="1">  1       -3 0.34374208E-02 0.22959289E+02</pdfrwt>
<totfact> 0.12843248E+06</totfact>
</mgrwt>
</event>
<event>
 4    1  0.1802450E-001  0.5917892E+02  0.7818608E-02  0.1401310E+00
          3   -1    0    0  501    0  0.00000000000E+00  0.00000000000E+00  0.62959641420E+02  0.62959710107E+02  0.93000000000E-01 0. -1.
         -3   -1    0    0    0  501 -0.00000000000E+00 -0.00000000000E+00 -0.13906075007E+02  0.13906385982E+02  0.93000000000E-01 0.  1.
        -13    1    1    2    0    0  0.13472918269E+02  0.12418805035E+02  0.54703755388E+02  0.57691058850E+02  0.10570000000E+00 0. -1.
         13    1    1    2    0    0 -0.13472918269E+02 -0.12418805035E+02 -0.56501889750E+01  0.19175037239E+02  0.10570000000E+00 0.  1.
<mgrwt>
<rscale>  0 0.59178918E+02</rscale>
<asrwt>0</asrwt>
<pdfrwt beam="1">  1        3 0.96861280E-02 0.59178918E+02</pdfrwt>
<pdfrwt beam="2">  1       -3 0.21394253E-02 0.59178918E+02</pdfrwt>
<totfact> 0.11484507E+05</totfact>
</mgrwt>
</event>
<event>
 4    1  0.1802450E-001  0.4131341E+02  0.7818608E-02  0.1498763E+00
         -3   -1    0    0    0  501 -0.00000000000E+00  0.00000000000E+00  0.89657062164E+02  0.89657110398E+02  0.93000000000E-01 0. -1.
          3   -1    0    0  501    0  0.00000000000E+00 -0.00000000000E+00 -0.47587356612E+01  0.47596443242E+01  0.93000000000E-01 0.  1.
        -13    1    1    2    0    0 -0.58252844452E+01 -0.15296096761E+02  0.71247079267E+02  0.73103091532E+02  0.10570000000E+00 0. -1.
         13    1    1    2    0    0  0.58252844452E+01  0.15296096761E+02  0.13651247236E+02  0.21313663190E+02  0.10570000000E+00 0.  1.
<mgrwt>
<rscale>  0 0.41313409E+02</rscale>
<asrwt>0</asrwt>
<pdfrwt beam="2">  1        3 0.73218688E-03 0.41313409E+02</pdfrwt>
<pdfrwt beam="1">  1       -3 0.13793466E-01 0.41313409E+02</pdfrwt>
<totfact> 0.27133593E+05</totfact>
</mgrwt>
</event>
<event>
 4    1  0.1802450E-001  0.4327966E+02  0.7818608E-02  0.1485376E+00
          3   -1    0    0  501    0  0.00000000000E+00  0.00000000000E+00  0.81794481892E+01  0.81799768753E+01  0.93000000000E-01 0.  1.
         -3   -1    0    0    0  501 -0.00000000000E+00 -0.00000000000E+00 -0.57248658064E+02  0.57248733603E+02  0.93000000000E-01 0. -1.
        -13    1    1    2    0    0  0.91026943595E+01  0.16279906085E+02 -0.79480707126E+01  0.20275043460E+02  0.10570000000E+00 0.  1.
         13    1    1    2    0    0 -0.91026943595E+01 -0.16279906085E+02 -0.41121139162E+02  0.45153667019E+02  0.10570000000E+00 0. -1.
<mgrwt>
<rscale>  0 0.43279658E+02</rscale>
<asrwt>0</asrwt>
<pdfrwt beam="1">  1        3 0.12584232E-02 0.43279658E+02</pdfrwt>
<pdfrwt beam="2">  1       -3 0.88075321E-02 0.43279658E+02</pdfrwt>
<totfact> 0.26023907E+05</totfact>
</mgrwt>
</event>
<event>
 4    1  0.1802450E-001  0.3248901E+02  0.7818608E-02  0.1572101E+00
          3   -1    0    0  501    0  0.00000000000E+00  0.00000000000E+00  0.15021703767E+02  0.15021991648E+02  0.93000000000E-01 0. -1.
         -3   -1    0    0    0  501 -0.00000000000E+00 -0.00000000000E+00 -0.17566265935E+02  0.17566512115E+02  0.93000000000E-01 0.  1.
        -13    1    1    2    0    0 -0.10434173386E+02  0.12302833437E+02 -0.31862880912E+01  0.16443700591E+02  0.10570000000E+00 0. -1.
         13    1    1    2    0    0  0.10434173386E+02 -0.12302833437E+02  0.64172592346E+00  0.16144803172E+02  0.10570000000E+00 0.  1.
<mgrwt>
<rscale>  0 0.32489010E+02</rscale>
<asrwt>0</asrwt>
<pdfrwt beam="1">  1        3 0.23110724E-02 0.32489010E+02</pdfrwt>
<pdfrwt beam="2">  1       -3 0.27025435E-02 0.32489010E+02</pdfrwt>
<totfact> 0.57101338E+05</totfact>
</mgrwt>
</event>
<event>
 4    1  0.1802450E-001  0.3760451E+02  0.7818608E-02  0.1526618E+00
          3   -1    0    0  501    0  0.00000000000E+00  0.00000000000E+00  0.83866543726E+02  0.83866595290E+02  0.93000000000E-01 0.  1.
         -3   -1    0    0    0  501 -0.00000000000E+00 -0.00000000000E+00 -0.42147603876E+01  0.42157862997E+01  0.93000000000E-01 0. -1.
        -13    1    1    2    0    0  0.12411849363E+01 -0.14961674250E+02  0.13312824282E+02  0.20065759374E+02  0.10570000000E+00 0. -1.
         13    1    1    2    0    0 -0.12411849363E+01  0.14961674250E+02  0.66338959056E+02  0.68016622215E+02  0.10570000000E+00 0.  1.
<mgrwt>
<rscale>  0 0.37604512E+02</rscale>
<asrwt>0</asrwt>
<pdfrwt beam="1">  1        3 0.12902628E-01 0.37604512E+02</pdfrwt>
<pdfrwt beam="2">  1       -3 0.64850755E-03 0.37604512E+02</pdfrwt>
<totfact> 0.34602345E+05</totfact>
</mgrwt>
</event>
<event>
 4    1  0.1802450E-001  0.6462355E+02  0.7818608E-02  0.1379393E+00
          3   -1    0    0  501    0  0.00000000000E+00  0.00000000000E+00  0.78299236304E+02  0.78299291534E+02  0.93000000000E-01 0. -1.
         -3   -1    0    0    0  501 -0.00000000000E+00 -0.00000000000E+00 -0.13333889036E+02  0.13334213356E+02  0.93000000000E-01 0.  1.
        -13    1    1    2    0    0 -0.20521174311E+02 -0.20999176606E+02  0.51609641882E+02  0.59377186873E+02  0.10570000000E+00 0. -1.
         13    1    1    2    0    0  0.20521174311E+02  0.20999176606E+02  0.13355705386E+02  0.32256318018E+02  0.10570000000E+00 0.  1.
<mgrwt>
<rscale>  0 0.64623547E+02</rscale>
<asrwt>0</asrwt>
<pdfrwt beam="1">  1        3 0.12046066E-01 0.64623547E+02</pdfrwt>
<pdfrwt beam="2">  1       -3 0.20513967E-02 0.64623547E+02</pdfrwt>
<totfact> 0.88321339E+04</totfact>
</mgrwt>
</event>
<event>
 4    1  0.1802450E-001  0.2667553E+02  0.7818608E-02  0.1638040E+00
         -3   -1    0    0    0  501 -0.00000000000E+00  0.00000000000E+00  0.21157459753E+02  0.21157664148E+02  0.93000000000E-01 0.  1.
          3   -1    0    0  501    0  0.00000000000E+00 -0.00000000000E+00 -0.84076882905E+01  0.84082026254E+01  0.93000000000E-01 0. -1.
        -13    1    1    2    0    0  0.28824122489E+01  0.12606968058E+02  0.27594100772E+01  0.13223821703E+02  0.10570000000E+00 0. -1.
         13    1    1    2    0    0 -0.28824122489E+01 -0.12606968058E+02  0.99903613855E+01  0.16342045070E+02  0.10570000000E+00 0.  1.
<mgrwt>
<rscale>  0 0.26675528E+02</rscale>
<asrwt>0</asrwt>
<pdfrwt beam="2">  1        3 0.12935458E-02 0.26675528E+02</pdfrwt>
<pdfrwt beam="1">  1       -3 0.32550491E-02 0.26675528E+02</pdfrwt>
<totfact> 0.91202076E+05</totfact>
</mgrwt>
</event>
<event>
 4    1  0.1802450E-001  0.3005631E+02  0.7818608E-02  0.1597467E+00
         -3   -1    0    0    0  501 -0.00000000000E+00  0.00000000000E+00  0.45449965580E+02  0.45450060729E+02  0.93000000000E-01 0.  1.
          3   -1    0    0  501    0  0.00000000000E+00 -0.00000000000E+00 -0.49685654694E+01  0.49694357651E+01  0.93000000000E-01 0. -1.
        -13    1    1    2    0    0  0.13897744586E+02 -0.34212935567E+01  0.12556766823E+02  0.19040381291E+02  0.10570000000E+00 0. -1.
         13    1    1    2    0    0 -0.13897744586E+02  0.34212935567E+01  0.27924633288E+02  0.31379115203E+02  0.10570000000E+00 0.  1.
<mgrwt>
<rscale>  0 0.30056312E+02</rscale>
<asrwt>0</asrwt>
<pdfrwt beam="2">  1        3 0.76446898E-03 0.30056312E+02</pdfrwt>
<pdfrwt beam="1">  1       -3 0.69923764E-02 0.30056312E+02</pdfrwt>
<totfact> 0.64988905E+05</totfact>
</mgrwt>
</event>
<event>
 4    1  0.1802450E-001  0.2354279E+02  0.7818608E-02  0.1682860E+00
         -3   -1    0    0    0  501 -0.00000000000E+00  0.00000000000E+00  0.44546310291E+01  0.44556017108E+01  0.93000000000E-01 0. -1.
          3   -1    0    0  501    0  0.00000000000E+00 -0.00000000000E+00 -0.31101564090E+02  0.31101703135E+02  0.93000000000E-01 0.  1.
        -13    1    1    2    0    0  0.72344914051E+01 -0.89418200620E+01 -0.17102465164E+02  0.20610664693E+02  0.10570000000E+00 0. -1.
         13    1    1    2    0    0 -0.72344914051E+01  0.89418200620E+01 -0.95444678971E+01  0.14946640152E+02  0.10570000000E+00 0.  1.
<mgrwt>
<rscale>  0 0.23542788E+02</rscale>
<asrwt>0</asrwt>
<pdfrwt beam="2">  1        3 0.47849412E-02 0.23542788E+02</pdfrwt>
<pdfrwt beam="1">  1       -3 0.68541323E-03 0.23542788E+02</pdfrwt>
<totfact> 0.11857567E+06</totfact>
</mgrwt>
</event>
<event>
 4    1  0.1802450E-001  0.2634990E+02  0.7818608E-02  0.1642337E+00
          3   -1    0    0  501    0  0.00000000000E+00  0.00000000000E+00  0.62232497602E+02  0.62232567091E+02  0.93000000000E-01 0. -1.
         -3   -1    0    0    0  501 -0.00000000000E+00 -0.00000000000E+00 -0.27883608324E+01  0.27899113125E+01  0.93000000000E-01 0.  1.
        -13    1    1    2    0    0 -0.32033985085E+01 -0.12023087203E+02  0.40407832943E+02  0.42280261630E+02  0.10570000000E+00 0. -1.
         13    1    1    2    0    0  0.32033985085E+01  0.12023087203E+02  0.19036303827E+02  0.22742216773E+02  0.10570000000E+00 0.  1.
<mgrwt>
<rscale>  0 0.26349901E+02</rscale>
<asrwt>0</asrwt>
<pdfrwt beam="1">  1        3 0.95743550E-02 0.26349901E+02</pdfrwt>
<pdfrwt beam="2">  1       -3 0.42910320E-03 0.26349901E+02</pdfrwt>
<totfact> 0.84385195E+05</totfact>
</mgrwt>
</event>
<event>
 4    1  0.1802450E-001  0.2641683E+02  0.7818608E-02  0.1641448E+00
         -3   -1    0    0    0  501 -0.00000000000E+00  0.00000000000E+00  0.46035414361E+02  0.46035508299E+02  0.93000000000E-01 0.  1.
          3   -1    0    0  501    0  0.00000000000E+00 -0.00000000000E+00 -0.37890707222E+01  0.37902118592E+01  0.93000000000E-01 0. -1.
        -13    1    1    2    0    0  0.33424479976E+00 -0.12189020030E+02  0.30697443472E+02  0.33030715055E+02  0.10570000000E+00 0.  1.
         13    1    1    2    0    0 -0.33424479976E+00  0.12189020030E+02  0.11548900167E+02  0.16795005103E+02  0.10570000000E+00 0. -1.
<mgrwt>
<rscale>  0 0.26416829E+02</rscale>
<asrwt>0</asrwt>
<pdfrwt beam="2">  1        3 0.58302895E-03 0.26416829E+02</pdfrwt>
<pdfrwt beam="1">  1       -3 0.70824666E-02 0.26416829E+02</pdfrwt>
<totfact> 0.87596452E+05</totfact>
</mgrwt>
</event>
<event>
 4    1  0.1802450E-001  0.3608838E+02  0.7818608E-02  0.1539143E+00
          3   -1    0    0  501    0  0.00000000000E+00  0.00000000000E+00  0.88804145312E+01  0.88809014883E+01  0.93000000000E-01 0. -1.
         -3   -1    0    0    0  501 -0.00000000000E+00 -0.00000000000E+00 -0.36662600977E+02  0.36662718930E+02  0.93000000000E-01 0.  1.
        -13    1    1    2    0    0  0.10853183755E+01 -0.11089482843E+02  0.40198772619E+01  0.11845890907E+02  0.10570000000E+00 0. -1.
         13    1    1    2    0    0 -0.10853183755E+01  0.11089482843E+02 -0.31802063707E+02  0.33697729512E+02  0.10570000000E+00 0.  1.
<mgrwt>
<rscale>  0 0.36088384E+02</rscale>
<asrwt>0</asrwt>
<pdfrwt beam="1">  1        3 0.13662642E-02 0.36088384E+02</pdfrwt>
<pdfrwt beam="2">  1       -3 0.56404466E-02 0.36088384E+02</pdfrwt>
<totfact> 0.42763562E+05</totfact>
</mgrwt>
</event>
<event>
 4    1  0.1802450E-001  0.5636271E+02  0.7818608E-02  0.1413762E+00
         -3   -1    0    0    0  501 -0.00000000000E+00  0.00000000000E+00  0.23889503721E+02  0.23889684741E+02  0.93000000000E-01 0.  1.
          3   -1    0    0  501    0  0.00000000000E+00 -0.00000000000E+00 -0.33243885304E+02  0.33244015388E+02  0.93000000000E-01 0. -1.
        -13    1    1    2    0    0  0.23553010137E+02  0.10285513855E+02 -0.16395669449E+02  0.30485492139E+02  0.10570000000E+00 0. -1.
         13    1    1    2    0    0 -0.23553010137E+02 -0.10285513855E+02  0.70412878660E+01  0.26648207990E+02  0.10570000000E+00 0.  1.
<mgrwt>
<rscale>  0 0.56362711E+02</rscale>
<asrwt>0</asrwt>
<pdfrwt beam="2">  1        3 0.51144678E-02 0.56362711E+02</pdfrwt>
<pdfrwt beam="1">  1       -3 0.36753322E-02 0.56362711E+02</pdfrwt>
<totfact> 0.13673339E+05</totfact>
</mgrwt>
</event>
<event>
 4    1  0.1802450E-001  0.3072846E+02  0.7818608E-02  0.1590173E+00
         -3   -1    0    0    0  501 -0.00000000000E+00  0.00000000000E+00  0.14994009171E+02  0.14994297584E+02  0.93000000000E-01 0.  1.
          3   -1    0    0  501    0  0.00000000000E+00 -0.00000000000E+00 -0.15743018887E+02  0.15743293578E+02  0.93000000000E-01 0. -1.
        -13    1    1    2    0    0 -0.43289216041E+01  0.10416021091E+02 -0.10809065023E+02  0.15623063617E+02  0.10570000000E+00 0. -1.
         13    1    1    2    0    0  0.43289216041E+01 -0.10416021091E+02  0.10060055307E+02  0.15114527545E+02  0.10570000000E+00 0.  1.
<mgrwt>
<rscale>  0 0.30728464E+02</rscale>
<asrwt>0</asrwt>
<pdfrwt beam="2">  1        3 0.24220462E-02 0.30728464E+02</pdfrwt>
<pdfrwt beam="1">  1       -3 0.23068140E-02 0.30728464E+02</pdfrwt>
<totfact> 0.65493755E+05</totfact>
</mgrwt>
</event>
<event>
 4    1  0.1802450E-001  0.3526178E+02  0.7818608E-02  0.1546288E+00
          3   -1    0    0  501    0  0.00000000000E+00  0.00000000000E+00  0.22527181684E+01  0.22546370320E+01  0.93000000000E-01 0. -1.
         -3   -1    0    0    0  501 -0.00000000000E+00 -0.00000000000E+00 -0.13792744681E+03  0.13792747816E+03  0.93000000000E-01 0.  1.
        -13    1    1    2    0    0 -0.16551257763E+02 -0.33466397773E+01 -0.47686383753E+02  0.50588007465E+02  0.10570000000E+00 0. -1.
         13    1    1    2    0    0  0.16551257763E+02  0.33466397773E+01 -0.87988344889E+02  0.89594107731E+02  0.10570000000E+00 0.  1.
<mgrwt>
<rscale>  0 0.35261784E+02</rscale>
<asrwt>0</asrwt>
<pdfrwt beam="1">  1        3 0.34672215E-03 0.35261784E+02</pdfrwt>
<pdfrwt beam="2">  1       -3 0.21219751E-01 0.35261784E+02</pdfrwt>
<totfact> 0.35808677E+05</totfact>
</mgrwt>
</event>
<event>
 4    1  0.1802450E-001  0.3193360E+02  0.7818608E-02  0.1577649E+00
         -3   -1    0    0    0  501 -0.00000000000E+00  0.00000000000E+00  0.52243212639E+02  0.52243295415E+02  0.93000000000E-01 0.  1.
          3   -1    0    0  501    0  0.00000000000E+00 -0.00000000000E+00 -0.48793139774E+01  0.48802001895E+01  0.93000000000E-01 0. -1.
        -13    1    1    2    0    0 -0.10413132547E+02 -0.77061019070E+01  0.69863734886E+01  0.14718625040E+02  0.10570000000E+00 0. -1.
         13    1    1    2    0    0  0.10413132547E+02  0.77061019070E+01  0.40377525173E+02  0.42404870565E+02  0.10570000000E+00 0.  1.
<mgrwt>
<rscale>  0 0.31933601E+02</rscale>
<asrwt>0</asrwt>
<pdfrwt beam="2">  1        3 0.75073817E-03 0.31933601E+02</pdfrwt>
<pdfrwt beam="1">  1       -3 0.80374924E-02 0.31933601E+02</pdfrwt>
<totfact> 0.55336205E+05</totfact>
</mgrwt>
</event>
<event>
 4    1  0.1802450E-001  0.4892349E+02  0.7818608E-02  0.1451236E+00
         -3   -1    0    0    0  501 -0.00000000000E+00  0.00000000000E+00  0.15386674079E+02  0.15386955131E+02  0.93000000000E-01 0.  1.
          3   -1    0    0  501    0  0.00000000000E+00 -0.00000000000E+00 -0.38888604150E+02  0.38888715352E+02  0.93000000000E-01 0. -1.
        -13    1    1    2    0    0 -0.24041786417E+02  0.25869638632E+01 -0.15852122878E+02  0.28913679261E+02  0.10570000000E+00 0. -1.
         13    1    1    2    0    0  0.24041786417E+02 -0.25869638632E+01 -0.76498071931E+01  0.25361991222E+02  0.10570000000E+00 0.  1.
<mgrwt>
<rscale>  0 0.48923488E+02</rscale>
<asrwt>0</asrwt>
<pdfrwt beam="2">  1        3 0.59828923E-02 0.48923488E+02</pdfrwt>
<pdfrwt beam="1">  1       -3 0.23672108E-02 0.48923488E+02</pdfrwt>
<totfact> 0.19741946E+05</totfact>
</mgrwt>
</event>
<event>
 4    1  0.1802450E-001  0.2702375E+02  0.7818608E-02  0.1633527E+00
          3   -1    0    0  501    0  0.00000000000E+00  0.00000000000E+00  0.51203258168E+02  0.51203342625E+02  0.93000000000E-01 0.  1.
         -3   -1    0    0    0  501 -0.00000000000E+00 -0.00000000000E+00 -0.35649140480E+01  0.35661269144E+01  0.93000000000E-01 0. -1.
        -13    1    1    2    0    0  0.11956253609E+02 -0.62756441284E+01  0.22860257418E+02  0.26550673274E+02  0.10570000000E+00 0.  1.
         13    1    1    2    0    0 -0.11956253609E+02  0.62756441284E+01  0.24778086702E+02  0.28218796266E+02  0.10570000000E+00 0. -1.
<mgrwt>
<rscale>  0 0.27023748E+02</rscale>
<asrwt>0</asrwt>
<pdfrwt beam="1">  1        3 0.78775241E-02 0.27023748E+02</pdfrwt>
<pdfrwt beam="2">  1       -3 0.54854811E-03 0.27023748E+02</pdfrwt>
<totfact> 0.81988535E+05</totfact>
</mgrwt>
</event>
<event>
 4    1  0.1802450E-001  0.8571137E+02  0.7818608E-02  0.1313583E+00
          3   -1    0    0  501    0  0.00000000000E+00  0.00000000000E+00  0.95815722970E+02  0.95815768103E+02  0.93000000000E-01 0. -1.
         -3   -1    0    0    0  501 -0.00000000000E+00 -0.00000000000E+00 -0.19167982836E+02  0.19168208445E+02  0.93000000000E-01 0.  1.
        -13    1    1    2    0    0 -0.25467288435E+00 -0.42838647173E+02  0.39902074469E+02  0.58544011387E+02  0.10570000000E+00 0. -1.
         13    1    1    2    0    0  0.25467288435E+00  0.42838647173E+02  0.36745665665E+02  0.56439965162E+02  0.10570000000E+00 0.  1.
<mgrwt>
<rscale>  0 0.85711369E+02</rscale>
<asrwt>0</asrwt>
<pdfrwt beam="1">  1        3 0.14740901E-01 0.85711369E+02</pdfrwt>
<pdfrwt beam="2">  1       -3 0.29489413E-02 0.85711369E+02</pdfrwt>
<totfact> 0.39703126E+04</totfact>
</mgrwt>
</event>
<event>
 4    1  0.1802450E-001  0.2336188E+02  0.7818608E-02  0.1685710E+00
          3   -1    0    0  501    0  0.00000000000E+00  0.00000000000E+00  0.14553542564E+02  0.14553839705E+02  0.93000000000E-01 0.  1.
         -3   -1    0    0    0  501 -0.00000000000E+00 -0.00000000000E+00 -0.93747138531E+01  0.93751751358E+01  0.93000000000E-01 0. -1.
        -13    1    1    2    0    0  0.25454292810E+01 -0.10758722640E+02  0.64497088781E+01  0.12799970319E+02  0.10570000000E+00 0.  1.
         13    1    1    2    0    0 -0.25454292810E+01  0.10758722640E+02 -0.12708801671E+01  0.11129044522E+02  0.10570000000E+00 0. -1.
<mgrwt>
<rscale>  0 0.23361881E+02</rscale>
<asrwt>0</asrwt>
<pdfrwt beam="1">  1        3 0.22390649E-02 0.23361881E+02</pdfrwt>
<pdfrwt beam="2">  1       -3 0.14423220E-02 0.23361881E+02</pdfrwt>
<totfact> 0.12540130E+06</totfact>
</mgrwt>
</event>
<event>
 4    1  0.1802450E-001  0.2380554E+02  0.7818608E-02  0.1678776E+00
         -3   -1    0    0    0  501 -0.00000000000E+00  0.00000000000E+00  0.20057719617E+01  0.20079268319E+01  0.93000000000E-01 0.  1.
          3   -1    0    0  501    0  0.00000000000E+00 -0.00000000000E+00 -0.70593999755E+02  0.70594061013E+02  0.93000000000E-01 0. -1.
        -13    1    1    2    0    0 -0.97075925587E+01  0.49714152526E+01 -0.19759544186E+02  0.22569959721E+02  0.10570000000E+00 0. -1.
         13    1    1    2    0    0  0.97075925587E+01 -0.49714152526E+01 -0.48828683607E+02  0.50032028124E+02  0.10570000000E+00 0.  1.
<mgrwt>
<rscale>  0 0.23805538E+02</rscale>
<asrwt>0</asrwt>
<pdfrwt beam="2">  1        3 0.10860784E-01 0.23805538E+02</pdfrwt>
<pdfrwt beam="1">  1       -3 0.30875083E-03 0.23805538E+02</pdfrwt>
<totfact> 0.10387091E+06</totfact>
</mgrwt>
</event>
<event>
 4    1  0.1802450E-001  0.3413047E+02  0.7818608E-02  0.1556461E+00
         -3   -1    0    0    0  501 -0.00000000000E+00  0.00000000000E+00  0.10414376094E+02  0.10414791329E+02  0.93000000000E-01 0.  1.
          3   -1    0    0  501    0  0.00000000000E+00 -0.00000000000E+00 -0.27962441045E+02  0.27962595698E+02  0.93000000000E-01 0. -1.
        -13    1    1    2    0    0 -0.14978318693E+02  0.81768043394E+01 -0.87388267578E+01  0.19172595695E+02  0.10570000000E+00 0. -1.
         13    1    1    2    0    0  0.14978318693E+02 -0.81768043394E+01 -0.88092381935E+01  0.19204791332E+02  0.10570000000E+00 0.  1.
<mgrwt>
<rscale>  0 0.34130474E+02</rscale>
<asrwt>0</asrwt>
<pdfrwt beam="2">  1        3 0.43019578E-02 0.34130474E+02</pdfrwt>
<pdfrwt beam="1">  1       -3 0.16022556E-02 0.34130474E+02</pdfrwt>
<totfact> 0.49903242E+05</totfact>
</mgrwt>
</event>
<event>
 4    1  0.1802450E-001  0.2788736E+02  0.7818608E-02  0.1622688E+00
         -3   -1    0    0    0  501 -0.00000000000E+00  0.00000000000E+00  0.71618202121E+02  0.71618262504E+02  0.93000000000E-01 0. -1.
          3   -1    0    0  501    0  0.00000000000E+00 -0.00000000000E+00 -0.27139018310E+01  0.27154948257E+01  0.93000000000E-01 0.  1.
        -13    1    1    2    0    0 -0.66397184808E+01 -0.11771650116E+02  0.25312384672E+02  0.28694696343E+02  0.10570000000E+00 0.  1.
         13    1    1    2    0    0  0.66397184808E+01  0.11771650116E+02  0.43591915618E+02  0.45639060986E+02  0.10570000000E+00 0. -1.
<mgrwt>
<rscale>  0 0.27887361E+02</rscale>
<asrwt>0</asrwt>
<pdfrwt beam="2">  1        3 0.41765058E-03 0.27887361E+02</pdfrwt>
<pdfrwt beam="1">  1       -3 0.11018311E-01 0.27887361E+02</pdfrwt>
<totfact> 0.72334611E+05</totfact>
</mgrwt>
</event>
<event>
 4    1  0.1802450E-001  0.2280522E+02  0.7818608E-02  0.1694687E+00
          3   -1    0    0  501    0  0.00000000000E+00  0.00000000000E+00  0.58723033238E+01  0.58730397008E+01  0.93000000000E-01 0. -1.
         -3   -1    0    0    0  501 -0.00000000000E+00 -0.00000000000E+00 -0.22138928120E+02  0.22139123454E+02  0.93000000000E-01 0.  1.
        -13    1    1    2    0    0 -0.11038274239E+02 -0.27047548376E+00 -0.46392325664E+01  0.11977074202E+02  0.10570000000E+00 0. -1.
         13    1    1    2    0    0  0.11038274239E+02  0.27047548376E+00 -0.11627392230E+02  0.16035088952E+02  0.10570000000E+00 0.  1.
<mgrwt>
<rscale>  0 0.22805223E+02</rscale>
<asrwt>0</asrwt>
<pdfrwt beam="1">  1        3 0.90350296E-03 0.22805223E+02</pdfrwt>
<pdfrwt beam="2">  1       -3 0.34060606E-02 0.22805223E+02</pdfrwt>
<totfact> 0.13046422E+06</totfact>
</mgrwt>
</event>
<event>
 4    1  0.1802450E-001  0.3582436E+02  0.7818608E-02  0.1541400E+00
          3   -1    0    0  501    0  0.00000000000E+00  0.00000000000E+00  0.38001202861E+02  0.38001316660E+02  0.93000000000E-01 0.  1.
         -3   -1    0    0    0  501 -0.00000000000E+00 -0.00000000000E+00 -0.84426694589E+01  0.84431816629E+01  0.93000000000E-01 0. -1.
        -13    1    1    2    0    0 -0.16035486313E+02 -0.95762309802E+00  0.45069045145E+01  0.16684640364E+02  0.10570000000E+00 0. -1.
         13    1    1    2    0    0  0.16035486313E+02  0.95762309802E+00  0.25051628888E+02  0.29759857958E+02  0.10570000000E+00 0.  1.
<mgrwt>
<rscale>  0 0.35824357E+02</rscale>
<asrwt>0</asrwt>
<pdfrwt beam="1">  1        3 0.58463869E-02 0.35824357E+02</pdfrwt>
<pdfrwt beam="2">  1       -3 0.12989204E-02 0.35824357E+02</pdfrwt>
<totfact> 0.43409597E+05</totfact>
</mgrwt>
</event>
<event>
 4    1  0.1802450E-001  0.2950907E+02  0.7818608E-02  0.1603579E+00
         -3   -1    0    0    0  501 -0.00000000000E+00  0.00000000000E+00  0.46822913118E+02  0.46823005477E+02  0.93000000000E-01 0.  1.
          3   -1    0    0  501    0  0.00000000000E+00 -0.00000000000E+00 -0.46487928276E+01  0.46497229760E+01  0.93000000000E-01 0. -1.
        -13    1    1    2    0    0  0.16929513444E+01 -0.11690947532E+02  0.36506217276E+02  0.38370032718E+02  0.10570000000E+00 0.  1.
         13    1    1    2    0    0 -0.16929513444E+01  0.11690947532E+02  0.56679030143E+01  0.13102695735E+02  0.10570000000E+00 0. -1.
<mgrwt>
<rscale>  0 0.29509072E+02</rscale>
<asrwt>0</asrwt>
<pdfrwt beam="2">  1        3 0.71527756E-03 0.29509072E+02</pdfrwt>
<pdfrwt beam="1">  1       -3 0.72036036E-02 0.29509072E+02</pdfrwt>
<totfact> 0.67623867E+05</totfact>
</mgrwt>
</event>
<event>
 4    1  0.1802450E-001  0.2619802E+02  0.7818608E-02  0.1644368E+00
          3   -1    0    0  501    0  0.00000000000E+00  0.00000000000E+00  0.14412622443E+02  0.14412922489E+02  0.93000000000E-01 0.  1.
         -3   -1    0    0    0  501 -0.00000000000E+00 -0.00000000000E+00 -0.11904514726E+02  0.11904877986E+02  0.93000000000E-01 0. -1.
        -13    1    1    2    0    0  0.67100174316E+01  0.96188346962E+01  0.71139503310E+01  0.13717353121E+02  0.10570000000E+00 0.  1.
         13    1    1    2    0    0 -0.67100174316E+01 -0.96188346962E+01 -0.46058426145E+01  0.12600447354E+02  0.10570000000E+00 0. -1.
<mgrwt>
<rscale>  0 0.26198016E+02</rscale>
<asrwt>0</asrwt>
<pdfrwt beam="1">  1        3 0.22173776E-02 0.26198016E+02</pdfrwt>
<pdfrwt beam="2">  1       -3 0.18315148E-02 0.26198016E+02</pdfrwt>
<totfact> 0.96069040E+05</totfact>
</mgrwt>
</event>
<event>
 4    1  0.1802450E-001  0.2171916E+02  0.7818608E-02  0.1713155E+00
          3   -1    0    0  501    0  0.00000000000E+00  0.00000000000E+00  0.20269520002E+01  0.20290843775E+01  0.93000000000E-01 0. -1.
         -3   -1    0    0    0  501 -0.00000000000E+00 -0.00000000000E+00 -0.58148426472E+02  0.58148500842E+02  0.93000000000E-01 0.  1.
        -13    1    1    2    0    0  0.91113966332E+01 -0.44820947395E+01 -0.38724414480E+02  0.40033712932E+02  0.10570000000E+00 0.  1.
         13    1    1    2    0    0 -0.91113966332E+01  0.44820947395E+01 -0.17397059992E+02  0.20143872287E+02  0.10570000000E+00 0. -1.
<mgrwt>
<rscale>  0 0.21719159E+02</rscale>
<asrwt>0</asrwt>
<pdfrwt beam="1">  1        3 0.31200856E-03 0.21719159E+02</pdfrwt>
<pdfrwt beam="2">  1       -3 0.89460802E-02 0.21719159E+02</pdfrwt>
<totfact> 0.13159306E+06</totfact>
</mgrwt>
</event>
<event>
 4    1  0.1802450E-001  0.3754582E+02  0.7818608E-02  0.1527089E+00
          3   -1    0    0  501    0  0.00000000000E+00  0.00000000000E+00  0.72263417972E+02  0.72263477815E+02  0.93000000000E-01 0.  1.
         -3   -1    0    0    0  501 -0.00000000000E+00 -0.00000000000E+00 -0.48764037674E+01  0.48772905084E+01  0.93000000000E-01 0. -1.
        -13    1    1    2    0    0  0.77465990706E-01  0.18310125125E+02  0.25186403237E+02  0.31138926821E+02  0.10570000000E+00 0.  1.
         13    1    1    2    0    0 -0.77465990706E-01 -0.18310125125E+02  0.42200610968E+02  0.46001841502E+02  0.10570000000E+00 0. -1.
<mgrwt>
<rscale>  0 0.37545818E+02</rscale>
<asrwt>0</asrwt>
<pdfrwt beam="1">  1        3 0.11117522E-01 0.37545818E+02</pdfrwt>
<pdfrwt beam="2">  1       -3 0.75028878E-03 0.37545818E+02</pdfrwt>
<totfact> 0.35693903E+05</totfact>
</mgrwt>
</event>
<event>
 4    1  0.1802450E-001  0.3704929E+02  0.7818608E-02  0.1531121E+00
         -3   -1    0    0    0  501 -0.00000000000E+00  0.00000000000E+00  0.74331464861E+01  0.74337282492E+01  0.93000000000E-01 0. -1.
          3   -1    0    0  501    0  0.00000000000E+00 -0.00000000000E+00 -0.46164069332E+02  0.46164163008E+02  0.93000000000E-01 0.  1.
        -13    1    1    2    0    0 -0.98183017021E+01 -0.74700106693E+01 -0.39356205504E+02  0.41244662586E+02  0.10570000000E+00 0.  1.
         13    1    1    2    0    0  0.98183017021E+01  0.74700106693E+01  0.62528265808E+00  0.12353228671E+02  0.10570000000E+00 0. -1.
<mgrwt>
<rscale>  0 0.37049286E+02</rscale>
<asrwt>0</asrwt>
<pdfrwt beam="2">  1        3 0.71022163E-02 0.37049286E+02</pdfrwt>
<pdfrwt beam="1">  1       -3 0.11436130E-02 0.37049286E+02</pdfrwt>
<totfact> 0.39232100E+05</totfact>
</mgrwt>
</event>
<event>
 4    1  0.1802450E-001  0.4350343E+02  0.7818608E-02  0.1483907E+00
          3   -1    0    0  501    0  0.00000000000E+00  0.00000000000E+00  0.47218631812E+02  0.47218723397E+02  0.93000000000E-01 0. -1.
         -3   -1    0    0    0  501 -0.00000000000E+00 -0.00000000000E+00 -0.10019817531E+02  0.10020249116E+02  0.93000000000E-01 0.  1.
        -13    1    1    2    0    0 -0.10767848128E+02  0.26102096351E+01  0.43227422303E+02  0.44624891698E+02  0.10570000000E+00 0. -1.
         13    1    1    2    0    0  0.10767848128E+02 -0.26102096351E+01 -0.60286080213E+01  0.12614080815E+02  0.10570000000E+00 0.  1.
<mgrwt>
<rscale>  0 0.43503427E+02</rscale>
<asrwt>0</asrwt>
<pdfrwt beam="1">  1        3 0.72644451E-02 0.43503427E+02</pdfrwt>
<pdfrwt beam="2">  1       -3 0.15415506E-02 0.43503427E+02</pdfrwt>
<totfact> 0.26252152E+05</totfact>
</mgrwt>
</event>
<event>
 4    1  0.1802450E-001  0.2847399E+02  0.7818608E-02  0.1615596E+00
          3   -1    0    0  501    0  0.00000000000E+00  0.00000000000E+00  0.54268769019E+01  0.54276737106E+01  0.93000000000E-01 0. -1.
         -3   -1    0    0    0  501 -0.00000000000E+00 -0.00000000000E+00 -0.37346057701E+02  0.37346173496E+02  0.93000000000E-01 0.  1.
        -13    1    1    2    0    0 -0.14220413033E+02  0.65824825854E+00 -0.15711087819E+02  0.21201483216E+02  0.10570000000E+00 0. -1.
         13    1    1    2    0    0  0.14220413033E+02 -0.65824825854E+00 -0.16208092980E+02  0.21572363991E+02  0.10570000000E+00 0.  1.
<mgrwt>
<rscale>  0 0.28473986E+02</rscale>
<asrwt>0</asrwt>
<pdfrwt beam="1">  1        3 0.83497436E-03 0.28473986E+02</pdfrwt>
<pdfrwt beam="2">  1       -3 0.57456174E-02 0.28473986E+02</pdfrwt>
<totfact> 0.75337973E+05</totfact>
</mgrwt>
</event>
<event>
 4    1  0.1802450E-001  0.2112059E+02  0.7818608E-02  0.1723920E+00
          3   -1    0    0  501    0  0.00000000000E+00  0.00000000000E+00  0.64241335497E+02  0.64241402814E+02  0.93000000000E-01 0.  1.
         -3   -1    0    0    0  501 -0.00000000000E+00 -0.00000000000E+00 -0.17346379966E+01  0.17371292350E+01  0.93000000000E-01 0. -1.
        -13    1    1    2    0    0  0.10646625766E+01 -0.10381455733E+02  0.26215673121E+02  0.28216676261E+02  0.10570000000E+00 0. -1.
         13    1    1    2    0    0 -0.10646625766E+01  0.10381455733E+02  0.36291024380E+02  0.37761855788E+02  0.10570000000E+00 0.  1.
<mgrwt>
<rscale>  0 0.21120593E+02</rscale>
<asrwt>0</asrwt>
<pdfrwt beam="1">  1        3 0.98834797E-02 0.21120593E+02</pdfrwt>
<pdfrwt beam="2">  1       -3 0.26706418E-03 0.21120593E+02</pdfrwt>
<totfact> 0.13759796E+06</totfact>
</mgrwt>
</event>
<event>
 4    1  0.1802450E-001  0.3348614E+02  0.7818608E-02  0.1562470E+00
         -3   -1    0    0    0  501 -0.00000000000E+00  0.00000000000E+00  0.13650769711E+03  0.13650772879E+03  0.93000000000E-01 0.  1.
          3   -1    0    0  501    0  0.00000000000E+00 -0.00000000000E+00 -0.20525021203E+01  0.20546079806E+01  0.93000000000E-01 0. -1.
        -13    1    1    2    0    0 -0.84304767703E+01  0.14158747284E+02  0.79485979343E+02  0.81176198161E+02  0.10570000000E+00 0. -1.
         13    1    1    2    0    0  0.84304767703E+01 -0.14158747284E+02  0.54969215649E+02  0.57386138612E+02  0.10570000000E+00 0.  1.
<mgrwt>
<rscale>  0 0.33486142E+02</rscale>
<asrwt>0</asrwt>
<pdfrwt beam="2">  1        3 0.31593395E-03 0.33486142E+02</pdfrwt>
<pdfrwt beam="1">  1       -3 0.21001351E-01 0.33486142E+02</pdfrwt>
<totfact> 0.40598155E+05</totfact>
</mgrwt>
</event>
<event>
 4    1  0.1802450E-001  0.2105524E+02  0.7818608E-02  0.1725123E+00
          3   -1    0    0  501    0  0.00000000000E+00  0.00000000000E+00  0.23994777458E+01  0.24012793367E+01  0.93000000000E-01 0. -1.
         -3   -1    0    0    0  501 -0.00000000000E+00 -0.00000000000E+00 -0.46170356352E+02  0.46170450016E+02  0.93000000000E-01 0.  1.
        -13    1    1    2    0    0 -0.23089710588E+01 -0.98464728409E+01 -0.15145890605E+02  0.18212455888E+02  0.10570000000E+00 0. -1.
         13    1    1    2    0    0  0.23089710588E+01  0.98464728409E+01 -0.28624988001E+02  0.30359273465E+02  0.10570000000E+00 0.  1.
<mgrwt>
<rscale>  0 0.21055239E+02</rscale>
<asrwt>0</asrwt>
<pdfrwt beam="1">  1        3 0.36929625E-03 0.21055239E+02</pdfrwt>
<pdfrwt beam="2">  1       -3 0.71032769E-02 0.21055239E+02</pdfrwt>
<totfact> 0.14564385E+06</totfact>
</mgrwt>
</event>
<event>
 4    1  0.1802450E-001  0.6267164E+02  0.7818608E-02  0.1386950E+00
          3   -1    0    0  501    0  0.00000000000E+00  0.00000000000E+00  0.14381593794E+02  0.14381894488E+02  0.93000000000E-01 0. -1.
         -3   -1    0    0    0  501 -0.00000000000E+00 -0.00000000000E+00 -0.68276069102E+02  0.68276132440E+02  0.93000000000E-01 0.  1.
        -13    1    1    2    0    0  0.22918948275E+02  0.20503602359E+02 -0.19006735427E+02  0.36151667511E+02  0.10570000000E+00 0. -1.
         13    1    1    2    0    0 -0.22918948275E+02 -0.20503602359E+02 -0.34887739881E+02  0.46506359417E+02  0.10570000000E+00 0.  1.
<mgrwt>
<rscale>  0 0.62671644E+02</rscale>
<asrwt>0</asrwt>
<pdfrwt beam="1">  1        3 0.22125809E-02 0.62671644E+02</pdfrwt>
<pdfrwt beam="2">  1       -3 0.10504038E-01 0.62671644E+02</pdfrwt>
<totfact> 0.97683848E+04</totfact>
</mgrwt>
</event>
<event>
 4    1  0.1802450E-001  0.2690762E+02  0.7818608E-02  0.1635023E+00
          3   -1    0    0  501    0  0.00000000000E+00  0.00000000000E+00  0.11274163142E+02  0.11274546711E+02  0.93000000000E-01 0. -1.
         -3   -1    0    0    0  501 -0.00000000000E+00 -0.00000000000E+00 -0.16054061230E+02  0.16054330599E+02  0.93000000000E-01 0.  1.
        -13    1    1    2    0    0  0.34059662134E+01  0.10517908140E+02  0.53960206684E+01  0.12302650488E+02  0.10570000000E+00 0. -1.
         13    1    1    2    0    0 -0.34059662134E+01 -0.10517908140E+02 -0.10175918757E+02  0.15026226822E+02  0.10570000000E+00 0.  1.
<mgrwt>
<rscale>  0 0.26907622E+02</rscale>
<asrwt>0</asrwt>
<pdfrwt beam="1">  1        3 0.17345369E-02 0.26907622E+02</pdfrwt>
<pdfrwt beam="2">  1       -3 0.24699058E-02 0.26907622E+02</pdfrwt>
<totfact> 0.90074544E+05</totfact>
</mgrwt>
</event>
<event>
 4    1  0.1802450E-001  0.6760620E+02  0.7818608E-02  0.1368428E+00
         -3   -1    0    0    0  501 -0.00000000000E+00  0.00000000000E+00  0.37456803691E+02  0.37456919144E+02  0.93000000000E-01 0. -1.
          3   -1    0    0  501    0  0.00000000000E+00 -0.00000000000E+00 -0.30505563711E+02  0.30505705472E+02  0.93000000000E-01 0.  1.
        -13    1    1    2    0    0  0.12939616423E+02  0.30956638240E+02 -0.65595696790E+00  0.33558733234E+02  0.10570000000E+00 0. -1.
         13    1    1    2    0    0 -0.12939616423E+02 -0.30956638240E+02  0.76071969476E+01  0.34403891381E+02  0.10570000000E+00 0.  1.
<mgrwt>
<rscale>  0 0.67606202E+02</rscale>
<asrwt>0</asrwt>
<pdfrwt beam="2">  1        3 0.46931834E-02 0.67606202E+02</pdfrwt>
<pdfrwt beam="1">  1       -3 0.57626050E-02 0.67606202E+02</pdfrwt>
<totfact> 0.82975914E+04</totfact>
</mgrwt>
</event>
<event>
 4    1  0.1802450E-001  0.6482937E+02  0.7818608E-02  0.1378615E+00
          3   -1    0    0  501    0  0.00000000000E+00  0.00000000000E+00  0.21699246574E+02  0.21699445865E+02  0.93000000000E-01 0. -1.
         -3   -1    0    0    0  501 -0.00000000000E+00 -0.00000000000E+00 -0.48421106653E+02  0.48421195964E+02  0.93000000000E-01 0.  1.
        -13    1    1    2    0    0 -0.31556174245E+02 -0.64436592933E+01 -0.94033884706E+01  0.33552164838E+02  0.10570000000E+00 0.  1.
         13    1    1    2    0    0  0.31556174245E+02  0.64436592933E+01 -0.17318471609E+02  0.36568476991E+02  0.10570000000E+00 0. -1.
<mgrwt>
<rscale>  0 0.64829365E+02</rscale>
<asrwt>0</asrwt>
<pdfrwt beam="1">  1        3 0.33383679E-02 0.64829365E+02</pdfrwt>
<pdfrwt beam="2">  1       -3 0.74494232E-02 0.64829365E+02</pdfrwt>
<totfact> 0.92141466E+04</totfact>
</mgrwt>
</event>
<event>
 4    1  0.1802450E-001  0.5182232E+02  0.7818608E-02  0.1435753E+00
          3   -1    0    0  501    0  0.00000000000E+00  0.00000000000E+00  0.11912829232E+02  0.11913192239E+02  0.93000000000E-01 0.  1.
         -3   -1    0    0    0  501 -0.00000000000E+00 -0.00000000000E+00 -0.56357154600E+02  0.56357231333E+02  0.93000000000E-01 0. -1.
        -13    1    1    2    0    0 -0.66966616009E+01 -0.21021034415E+02 -0.43207268359E+01  0.22481303729E+02  0.10570000000E+00 0.  1.
         13    1    1    2    0    0  0.66966616009E+01  0.21021034415E+02 -0.40123598531E+02  0.45789119844E+02  0.10570000000E+00 0. -1.
<mgrwt>
<rscale>  0 0.51822318E+02</rscale>
<asrwt>0</asrwt>
<pdfrwt beam="1">  1        3 0.18327768E-02 0.51822318E+02</pdfrwt>
<pdfrwt beam="2">  1       -3 0.86703651E-02 0.51822318E+02</pdfrwt>
<totfact> 0.16470572E+05</totfact>
</mgrwt>
</event>
<event>
 4    1  0.1802450E-001  0.2112551E+02  0.7818608E-02  0.1723830E+00
         -3   -1    0    0    0  501 -0.00000000000E+00  0.00000000000E+00  0.19886615230E+02  0.19886832687E+02  0.93000000000E-01 0.  1.
          3   -1    0    0  501    0  0.00000000000E+00 -0.00000000000E+00 -0.56097607751E+01  0.56105316106E+01  0.93000000000E-01 0. -1.
        -13    1    1    2    0    0  0.46736555822E+01 -0.93570363453E+01  0.53631912768E+01  0.11754666258E+02  0.10570000000E+00 0.  1.
         13    1    1    2    0    0 -0.46736555822E+01  0.93570363453E+01  0.89136631785E+01  0.13742698040E+02  0.10570000000E+00 0. -1.
<mgrwt>
<rscale>  0 0.21125506E+02</rscale>
<asrwt>0</asrwt>
<pdfrwt beam="2">  1        3 0.86311614E-03 0.21125506E+02</pdfrwt>
<pdfrwt beam="1">  1       -3 0.30595553E-02 0.21125506E+02</pdfrwt>
<totfact> 0.15571638E+06</totfact>
</mgrwt>
</event>
<event>
 4    1  0.1802450E-001  0.2356493E+02  0.7818608E-02  0.1682513E+00
          3   -1    0    0  501    0  0.00000000000E+00  0.00000000000E+00  0.10781761226E+02  0.10782162313E+02  0.93000000000E-01 0. -1.
         -3   -1    0    0    0  501 -0.00000000000E+00 -0.00000000000E+00 -0.12875236481E+02  0.12875572354E+02  0.93000000000E-01 0.  1.
        -13    1    1    2    0    0 -0.10453573302E+02  0.54013345641E+01 -0.16521552437E+01  0.11882440797E+02  0.10570000000E+00 0. -1.
         13    1    1    2    0    0  0.10453573302E+02 -0.54013345641E+01 -0.44132001056E+00  0.11775293869E+02  0.10570000000E+00 0.  1.
<mgrwt>
<rscale>  0 0.23564927E+02</rscale>
<asrwt>0</asrwt>
<pdfrwt beam="1">  1        3 0.16587892E-02 0.23564927E+02</pdfrwt>
<pdfrwt beam="2">  1       -3 0.19808623E-02 0.23564927E+02</pdfrwt>
<totfact> 0.12312532E+06</totfact>
</mgrwt>
</event>
<event>
 4    1  0.1802450E-001  0.3523991E+02  0.7818608E-02  0.1546480E+00
         -3   -1    0    0    0  501 -0.00000000000E+00  0.00000000000E+00  0.29592356657E+01  0.29606966621E+01  0.93000000000E-01 0.  1.
          3   -1    0    0  501    0  0.00000000000E+00 -0.00000000000E+00 -0.10488578812E+03  0.10488582935E+03  0.93000000000E-01 0. -1.
        -13    1    1    2    0    0 -0.12522756094E+02 -0.12340458671E+02 -0.54512831660E+02  0.57277974200E+02  0.10570000000E+00 0. -1.
         13    1    1    2    0    0  0.12522756094E+02  0.12340458671E+02 -0.47413720797E+02  0.50568551816E+02  0.10570000000E+00 0.  1.
<mgrwt>
<rscale>  0 0.35239907E+02</rscale>
<asrwt>0</asrwt>
<pdfrwt beam="2">  1        3 0.16136388E-01 0.35239907E+02</pdfrwt>
<pdfrwt beam="1">  1       -3 0.45538266E-03 0.35239907E+02</pdfrwt>
<totfact> 0.38554948E+05</totfact>
</mgrwt>
</event>
<event>
 4    1  0.1802450E-001  0.2563626E+02  0.7818608E-02  0.1652028E+00
          3   -1    0    0  501    0  0.00000000000E+00  0.00000000000E+00  0.66490394775E+02  0.66490459814E+02  0.93000000000E-01 0. -1.
         -3   -1    0    0    0  501 -0.00000000000E+00 -0.00000000000E+00 -0.24701584041E+01  0.24719084816E+01  0.93000000000E-01 0.  1.
        -13    1    1    2    0    0  0.68942026175E+01 -0.91446481175E+01  0.16524637947E+02  0.20105458231E+02  0.10570000000E+00 0.  1.
         13    1    1    2    0    0 -0.68942026175E+01  0.91446481175E+01  0.47495598424E+02  0.48856910064E+02  0.10570000000E+00 0. -1.
<mgrwt>
<rscale>  0 0.25636255E+02</rscale>
<asrwt>0</asrwt>
<pdfrwt beam="1">  1        3 0.10229430E-01 0.25636255E+02</pdfrwt>
<pdfrwt beam="2">  1       -3 0.38016402E-03 0.25636255E+02</pdfrwt>
<totfact> 0.88840087E+05</totfact>
</mgrwt>
</event>
<event>
 4    1  0.1802450E-001  0.3312213E+02  0.7818608E-02  0.1565938E+00
         -3   -1    0    0    0  501 -0.00000000000E+00  0.00000000000E+00  0.10675418814E+02  0.10675823896E+02  0.93000000000E-01 0. -1.
          3   -1    0    0  501    0  0.00000000000E+00 -0.00000000000E+00 -0.25690642810E+02  0.25690811139E+02  0.93000000000E-01 0.  1.
        -13    1    1    2    0    0  0.47471281413E+01 -0.14838083818E+02 -0.13675121830E+02  0.20729787421E+02  0.10570000000E+00 0.  1.
         13    1    1    2    0    0 -0.47471281413E+01  0.14838083818E+02 -0.13401021662E+01  0.15636847613E+02  0.10570000000E+00 0. -1.
<mgrwt>
<rscale>  0 0.33122125E+02</rscale>
<asrwt>0</asrwt>
<pdfrwt beam="2">  1        3 0.39524507E-02 0.33122125E+02</pdfrwt>
<pdfrwt beam="1">  1       -3 0.16424162E-02 0.33122125E+02</pdfrwt>
<totfact> 0.53915550E+05</totfact>
</mgrwt>
</event>
<event>
 4    1  0.1802450E-001  0.2118424E+02  0.7818608E-02  0.1722754E+00
         -3   -1    0    0    0  501 -0.00000000000E+00  0.00000000000E+00  0.21632909448E+02  0.21633109351E+02  0.93000000000E-01 0.  1.
          3   -1    0    0  501    0  0.00000000000E+00 -0.00000000000E+00 -0.51855780092E+01  0.51864118897E+01  0.93000000000E-01 0. -1.
        -13    1    1    2    0    0  0.14767036510E+01 -0.10316978915E+02  0.58345809295E+01  0.11944631209E+02  0.10570000000E+00 0. -1.
         13    1    1    2    0    0 -0.14767036510E+01  0.10316978915E+02  0.10612750510E+02  0.14874890032E+02  0.10570000000E+00 0.  1.
<mgrwt>
<rscale>  0 0.21184240E+02</rscale>
<asrwt>0</asrwt>
<pdfrwt beam="2">  1        3 0.79786076E-03 0.21184240E+02</pdfrwt>
<pdfrwt beam="1">  1       -3 0.33282194E-02 0.21184240E+02</pdfrwt>
<totfact> 0.15406802E+06</totfact>
</mgrwt>
</event>
<event>
 4    1  0.1802450E-001  0.2946510E+02  0.7818608E-02  0.1604078E+00
          3   -1    0    0  501    0  0.00000000000E+00  0.00000000000E+00  0.27458331420E+01  0.27474076224E+01  0.93000000000E-01 0. -1.
         -3   -1    0    0    0  501 -0.00000000000E+00 -0.00000000000E+00 -0.79022049970E+02  0.79022104695E+02  0.93000000000E-01 0.  1.
        -13    1    1    2    0    0 -0.23777723890E+01 -0.13622838859E+02 -0.24041845087E+02  0.27735483190E+02  0.10570000000E+00 0. -1.
         13    1    1    2    0    0  0.23777723890E+01  0.13622838859E+02 -0.52234371741E+02  0.54034029128E+02  0.10570000000E+00 0.  1.
<mgrwt>
<rscale>  0 0.29465096E+02</rscale>
<asrwt>0</asrwt>
<pdfrwt beam="1">  1        3 0.42256125E-03 0.29465096E+02</pdfrwt>
<pdfrwt beam="2">  1       -3 0.12157362E-01 0.29465096E+02</pdfrwt>
<totfact> 0.62525182E+05</totfact>
</mgrwt>
</event>
<event>
 4    1  0.1802450E-001  0.2829026E+02  0.7818608E-02  0.1617795E+00
          3   -1    0    0  501    0  0.00000000000E+00  0.00000000000E+00  0.16749455640E+02  0.16749713825E+02  0.93000000000E-01 0.  1.
         -3   -1    0    0    0  501 -0.00000000000E+00 -0.00000000000E+00 -0.11945216377E+02  0.11945578399E+02  0.93000000000E-01 0. -1.
        -13    1    1    2    0    0  0.13002626184E+02  0.12398286737E+01  0.79082940531E+01  0.15269503926E+02  0.10570000000E+00 0.  1.
         13    1    1    2    0    0 -0.13002626184E+02 -0.12398286737E+01 -0.31040547904E+01  0.13425788299E+02  0.10570000000E+00 0. -1.
<mgrwt>
<rscale>  0 0.28290265E+02</rscale>
<asrwt>0</asrwt>
<pdfrwt beam="1">  1        3 0.25768870E-02 0.28290265E+02</pdfrwt>
<pdfrwt beam="2">  1       -3 0.18377733E-02 0.28290265E+02</pdfrwt>
<totfact> 0.79913788E+05</totfact>
</mgrwt>
</event>
<event>
 4    1  0.1802450E-001  0.2717492E+02  0.7818608E-02  0.1631594E+00
          3   -1    0    0  501    0  0.00000000000E+00  0.00000000000E+00  0.47628913728E+01  0.47637992432E+01  0.93000000000E-01 0. -1.
         -3   -1    0    0    0  501 -0.00000000000E+00 -0.00000000000E+00 -0.38757324566E+02  0.38757436145E+02  0.93000000000E-01 0.  1.
        -13    1    1    2    0    0  0.29643170680E+01 -0.12615513384E+02 -0.10458458413E+02  0.16653194243E+02  0.10570000000E+00 0. -1.
         13    1    1    2    0    0 -0.29643170680E+01  0.12615513384E+02 -0.23535974780E+02  0.26868041145E+02  0.10570000000E+00 0.  1.
<mgrwt>
<rscale>  0 0.27174923E+02</rscale>
<asrwt>0</asrwt>
<pdfrwt beam="1">  1        3 0.73283096E-03 0.27174923E+02</pdfrwt>
<pdfrwt beam="2">  1       -3 0.59627435E-02 0.27174923E+02</pdfrwt>
<totfact> 0.83674532E+05</totfact>
</mgrwt>
</event>
<event>
 4    1  0.1802450E-001  0.3999322E+02  0.7818608E-02  0.1508261E+00
          3   -1    0    0  501    0  0.00000000000E+00  0.00000000000E+00  0.13791019123E+02  0.13791332693E+02  0.93000000000E-01 0. -1.
         -3   -1    0    0    0  501 -0.00000000000E+00 -0.00000000000E+00 -0.28993837532E+02  0.28993986684E+02  0.93000000000E-01 0.  1.
        -13    1    1    2    0    0  0.65915146401E+01 -0.15502683214E+02  0.39244202375E+01  0.17297210722E+02  0.10570000000E+00 0. -1.
         13    1    1    2    0    0 -0.65915146401E+01  0.15502683214E+02 -0.19127238646E+02  0.25488108655E+02  0.10570000000E+00 0.  1.
<mgrwt>
<rscale>  0 0.39993223E+02</rscale>
<asrwt>0</asrwt>
<pdfrwt beam="1">  1        3 0.21217308E-02 0.39993223E+02</pdfrwt>
<pdfrwt beam="2">  1       -3 0.44606260E-02 0.39993223E+02</pdfrwt>
<totfact> 0.33596804E+05</totfact>
</mgrwt>
</event>
<event>
 4    1  0.1802450E-001  0.2548684E+02  0.7818608E-02  0.1654106E+00
          3   -1    0    0  501    0  0.00000000000E+00  0.00000000000E+00  0.24513106094E+02  0.24513282509E+02  0.93000000000E-01 0. -1.
         -3   -1    0    0    0  501 -0.00000000000E+00 -0.00000000000E+00 -0.66242880192E+01  0.66249408119E+01  0.93000000000E-01 0.  1.
        -13    1    1    2    0    0 -0.34401641698E+01  0.10913897311E+02  0.15794393050E+02  0.19504407408E+02  0.10570000000E+00 0.  1.
         13    1    1    2    0    0  0.34401641698E+01 -0.10913897311E+02  0.20944250250E+01  0.11633815913E+02  0.10570000000E+00 0. -1.
<mgrwt>
<rscale>  0 0.25486842E+02</rscale>
<asrwt>0</asrwt>
<pdfrwt beam="1">  1        3 0.37713108E-02 0.25486842E+02</pdfrwt>
<pdfrwt beam="2">  1       -3 0.10191850E-02 0.25486842E+02</pdfrwt>
<totfact> 0.10064734E+06</totfact>
</mgrwt>
</event>
<event>
 4    1  0.1802450E-001  0.3146350E+02  0.7818608E-02  0.1582453E+00
          3   -1    0    0  501    0  0.00000000000E+00  0.00000000000E+00  0.62244153032E+02  0.62244222509E+02  0.93000000000E-01 0.  1.
         -3   -1    0    0    0  501 -0.00000000000E+00 -0.00000000000E+00 -0.39754677030E+01  0.39765553508E+01  0.93000000000E-01 0. -1.
        -13    1    1    2    0    0  0.43172716416E+01  0.13387401826E+02  0.14309315149E+02  0.20065618222E+02  0.10570000000E+00 0. -1.
         13    1    1    2    0    0 -0.43172716416E+01 -0.13387401826E+02  0.43959370180E+02  0.46155159638E+02  0.10570000000E+00 0.  1.
<mgrwt>
<rscale>  0 0.31463498E+02</rscale>
<asrwt>0</asrwt>
<pdfrwt beam="1">  1        3 0.95761125E-02 0.31463498E+02</pdfrwt>
<pdfrwt beam="2">  1       -3 0.61169943E-03 0.31463498E+02</pdfrwt>
<totfact> 0.55882847E+05</totfact>
</mgrwt>
</event>
<event>
 4    1  0.1802450E-001  0.2227607E+02  0.7818608E-02  0.1703521E+00
         -3   -1    0    0    0  501 -0.00000000000E+00  0.00000000000E+00  0.13838908248E+02  0.13839220733E+02  0.93000000000E-01 0.  1.
          3   -1    0    0  501    0  0.00000000000E+00 -0.00000000000E+00 -0.89636254177E+01  0.89641078546E+01  0.93000000000E-01 0. -1.
        -13    1    1    2    0    0  0.80266262121E+01  0.63890978738E+01 -0.20005730703E+01  0.10452787432E+02  0.10570000000E+00 0. -1.
         13    1    1    2    0    0 -0.80266262121E+01 -0.63890978738E+01  0.68758559006E+01  0.12350541156E+02  0.10570000000E+00 0.  1.
<mgrwt>
<rscale>  0 0.22276073E+02</rscale>
<asrwt>0</asrwt>
<pdfrwt beam="2">  1        3 0.13790804E-02 0.22276073E+02</pdfrwt>
<pdfrwt beam="1">  1       -3 0.21291240E-02 0.22276073E+02</pdfrwt>
<totfact> 0.13991089E+06</totfact>
</mgrwt>
</event>
<event>
 4    1  0.1802450E-001  0.2468854E+02  0.7818608E-02  0.1665516E+00
          3   -1    0    0  501    0  0.00000000000E+00  0.00000000000E+00  0.33379400007E+02  0.33379529562E+02  0.93000000000E-01 0.  1.
         -3   -1    0    0    0  501 -0.00000000000E+00 -0.00000000000E+00 -0.45645077877E+01  0.45654551081E+01  0.93000000000E-01 0. -1.
        -13    1    1    2    0    0 -0.29972965863E+01  0.10655002605E+02  0.22805555913E+02  0.25349899809E+02  0.10570000000E+00 0.  1.
         13    1    1    2    0    0  0.29972965863E+01 -0.10655002605E+02  0.60093363057E+01  0.12595084861E+02  0.10570000000E+00 0. -1.
<mgrwt>
<rscale>  0 0.24688537E+02</rscale>
<asrwt>0</asrwt>
<pdfrwt beam="1">  1        3 0.51353751E-02 0.24688537E+02</pdfrwt>
<pdfrwt beam="2">  1       -3 0.70231481E-03 0.24688537E+02</pdfrwt>
<totfact> 0.10581885E+06</totfact>
</mgrwt>
</event>
<event>
 4    1  0.1802450E-001  0.3086851E+02  0.7818608E-02  0.1588682E+00
          3   -1    0    0  501    0  0.00000000000E+00  0.00000000000E+00  0.59218777416E+01  0.59226079548E+01  0.93000000000E-01 0.  1.
         -3   -1    0    0    0  501 -0.00000000000E+00 -0.00000000000E+00 -0.40223197180E+02  0.40223304692E+02  0.93000000000E-01 0. -1.
        -13    1    1    2    0    0  0.71485749081E+01 -0.10874423802E+02 -0.47464545644E+01  0.13852625010E+02  0.10570000000E+00 0.  1.
         13    1    1    2    0    0 -0.71485749081E+01  0.10874423802E+02 -0.29554864874E+02  0.32293287638E+02  0.10570000000E+00 0. -1.
<mgrwt>
<rscale>  0 0.30868507E+02</rscale>
<asrwt>0</asrwt>
<pdfrwt beam="1">  1        3 0.91112258E-03 0.30868507E+02</pdfrwt>
<pdfrwt beam="2">  1       -3 0.61882485E-02 0.30868507E+02</pdfrwt>
<totfact> 0.61826665E+05</totfact>
</mgrwt>
</event>
<event>
 4    1  0.1802450E-001  0.4123284E+02  0.7818608E-02  0.1499330E+00
         -3   -1    0    0    0  501 -0.00000000000E+00  0.00000000000E+00  0.87285270237E+01  0.87290224540E+01  0.93000000000E-01 0.  1.
          3   -1    0    0  501    0  0.00000000000E+00 -0.00000000000E+00 -0.48693221037E+02  0.48693309848E+02  0.93000000000E-01 0. -1.
        -13    1    1    2    0    0 -0.18630418661E+01 -0.12679904754E+02 -0.42471356640E+02  0.44363027589E+02  0.10570000000E+00 0. -1.
         13    1    1    2    0    0  0.18630418661E+01  0.12679904754E+02  0.25066626267E+01  0.13059304713E+02  0.10570000000E+00 0.  1.
<mgrwt>
<rscale>  0 0.41232845E+02</rscale>
<asrwt>0</asrwt>
<pdfrwt beam="2">  1        3 0.74913095E-02 0.41232845E+02</pdfrwt>
<pdfrwt beam="1">  1       -3 0.13428953E-02 0.41232845E+02</pdfrwt>
<totfact> 0.29935604E+05</totfact>
</mgrwt>
</event>
<event>
 4    1  0.1802450E-001  0.2317715E+02  0.7818608E-02  0.1688655E+00
          3   -1    0    0  501    0  0.00000000000E+00  0.00000000000E+00  0.43293001190E+02  0.43293101079E+02  0.93000000000E-01 0. -1.
         -3   -1    0    0    0  501 -0.00000000000E+00 -0.00000000000E+00 -0.31012038783E+01  0.31025980234E+01  0.93000000000E-01 0.  1.
        -13    1    1    2    0    0  0.81388710261E+01  0.72571481371E+01  0.12246321735E+02  0.16397895877E+02  0.10570000000E+00 0.  1.
         13    1    1    2    0    0 -0.81388710261E+01 -0.72571481371E+01  0.27945475576E+02  0.29997803225E+02  0.10570000000E+00 0. -1.
<mgrwt>
<rscale>  0 0.23177151E+02</rscale>
<asrwt>0</asrwt>
<pdfrwt beam="1">  1        3 0.66605766E-02 0.23177151E+02</pdfrwt>
<pdfrwt beam="2">  1       -3 0.47722322E-03 0.23177151E+02</pdfrwt>
<totfact> 0.11870764E+06</totfact>
</mgrwt>
</event>
<event>
 4    1  0.1802450E-001  0.5614730E+02  0.7818608E-02  0.1414750E+00
         -3   -1    0    0    0  501 -0.00000000000E+00  0.00000000000E+00  0.34943380292E+02  0.34943504049E+02  0.93000000000E-01 0. -1.
          3   -1    0    0  501    0  0.00000000000E+00 -0.00000000000E+00 -0.22554221030E+02  0.22554412767E+02  0.93000000000E-01 0.  1.
        -13    1    1    2    0    0 -0.81750640585E+01  0.15277840266E+02 -0.16424624584E+02  0.23875165775E+02  0.10570000000E+00 0.  1.
         13    1    1    2    0    0  0.81750640585E+01 -0.15277840266E+02  0.28813783846E+02  0.33622751041E+02  0.10570000000E+00 0. -1.
<mgrwt>
<rscale>  0 0.56147299E+02</rscale>
<asrwt>0</asrwt>
<pdfrwt beam="2">  1        3 0.34699044E-02 0.56147299E+02</pdfrwt>
<pdfrwt beam="1">  1       -3 0.53759289E-02 0.56147299E+02</pdfrwt>
<totfact> 0.13795819E+05</totfact>
</mgrwt>
</event>
<event>
 4    1  0.1802450E-001  0.4229502E+02  0.7818608E-02  0.1491971E+00
          3   -1    0    0  501    0  0.00000000000E+00  0.00000000000E+00  0.22492945146E+02  0.22493137405E+02  0.93000000000E-01 0.  1.
         -3   -1    0    0    0  501 -0.00000000000E+00 -0.00000000000E+00 -0.19882163243E+02  0.19882380748E+02  0.93000000000E-01 0. -1.
        -13    1    1    2    0    0  0.10955446361E+02 -0.13899905951E+02  0.12902253547E+02  0.21902248960E+02  0.10570000000E+00 0.  1.
         13    1    1    2    0    0 -0.10955446361E+02  0.13899905951E+02 -0.10291471644E+02  0.20473269194E+02  0.10570000000E+00 0. -1.
<mgrwt>
<rscale>  0 0.42295016E+02</rscale>
<asrwt>0</asrwt>
<pdfrwt beam="1">  1        3 0.34604846E-02 0.42295016E+02</pdfrwt>
<pdfrwt beam="2">  1       -3 0.30588259E-02 0.42295016E+02</pdfrwt>
<totfact> 0.29322055E+05</totfact>
</mgrwt>
</event>
<event>
 4    1  0.1802450E-001  0.2349178E+02  0.7818608E-02  0.1683660E+00
         -3   -1    0    0    0  501 -0.00000000000E+00  0.00000000000E+00  0.96977126326E+01  0.96981585523E+01  0.93000000000E-01 0.  1.
          3   -1    0    0  501    0  0.00000000000E+00 -0.00000000000E+00 -0.14225717953E+02  0.14226021941E+02  0.93000000000E-01 0. -1.
        -13    1    1    2    0    0  0.21088867569E+01 -0.11342823569E+02 -0.45062723500E+01  0.12386472979E+02  0.10570000000E+00 0. -1.
         13    1    1    2    0    0 -0.21088867569E+01  0.11342823569E+02 -0.21732969929E-01  0.11537707514E+02  0.10570000000E+00 0.  1.
<mgrwt>
<rscale>  0 0.23491777E+02</rscale>
<asrwt>0</asrwt>
<pdfrwt beam="2">  1        3 0.21886297E-02 0.23491777E+02</pdfrwt>
<pdfrwt beam="1">  1       -3 0.14920135E-02 0.23491777E+02</pdfrwt>
<totfact> 0.12386438E+06</totfact>
</mgrwt>
</event>
<event>
 4    1  0.1802450E-001  0.4847062E+02  0.7818608E-02  0.1453770E+00
          3   -1    0    0  501    0  0.00000000000E+00  0.00000000000E+00  0.47914636371E+02  0.47914726625E+02  0.93000000000E-01 0. -1.
         -3   -1    0    0    0  501 -0.00000000000E+00 -0.00000000000E+00 -0.12257985098E+02  0.12258337884E+02  0.93000000000E-01 0.  1.
        -13    1    1    2    0    0 -0.20351648470E+02 -0.12898240208E+02  0.14594668286E+02  0.28170369376E+02  0.10570000000E+00 0. -1.
         13    1    1    2    0    0  0.20351648470E+02  0.12898240208E+02  0.21061982987E+02  0.32002695133E+02  0.10570000000E+00 0.  1.
<mgrwt>
<rscale>  0 0.48470619E+02</rscale>
<asrwt>0</asrwt>
<pdfrwt beam="1">  1        3 0.73715167E-02 0.48470619E+02</pdfrwt>
<pdfrwt beam="2">  1       -3 0.18858779E-02 0.48470619E+02</pdfrwt>
<totfact> 0.19896837E+05</totfact>
</mgrwt>
</event>
<event>
 4    1  0.1802450E-001  0.4220227E+02  0.7818608E-02  0.1492603E+00
         -3   -1    0    0    0  501 -0.00000000000E+00  0.00000000000E+00  0.32961439208E+02  0.32961570406E+02  0.93000000000E-01 0.  1.
          3   -1    0    0  501    0  0.00000000000E+00 -0.00000000000E+00 -0.13508129045E+02  0.13508449182E+02  0.93000000000E-01 0. -1.
        -13    1    1    2    0    0  0.12581829635E+02  0.36661226974E+01 -0.84837137132E+01  0.15611773232E+02  0.10570000000E+00 0. -1.
         13    1    1    2    0    0 -0.12581829635E+02 -0.36661226974E+01  0.27937023876E+02  0.30858246356E+02  0.10570000000E+00 0.  1.
<mgrwt>
<rscale>  0 0.42202268E+02</rscale>
<asrwt>0</asrwt>
<pdfrwt beam="2">  1        3 0.20782085E-02 0.42202268E+02</pdfrwt>
<pdfrwt beam="1">  1       -3 0.50710253E-02 0.42202268E+02</pdfrwt>
<totfact> 0.29142596E+05</totfact>
</mgrwt>
</event>
<event>
 4    1  0.1802450E-001  0.3782177E+02  0.7818608E-02  0.1524881E+00
          3   -1    0    0  501    0  0.00000000000E+00  0.00000000000E+00  0.14478299037E+02  0.14478597722E+02  0.93000000000E-01 0.  1.
         -3   -1    0    0    0  501 -0.00000000000E+00 -0.00000000000E+00 -0.24699880179E+02  0.24700055260E+02  0.93000000000E-01 0. -1.
        -13    1    1    2    0    0  0.97352768343E+01  0.59349684747E+01  0.10517238016E+02  0.15512025458E+02  0.10570000000E+00 0.  1.
         13    1    1    2    0    0 -0.97352768343E+01 -0.59349684747E+01 -0.20738819158E+02  0.23666627524E+02  0.10570000000E+00 0. -1.
<mgrwt>
<rscale>  0 0.37821768E+02</rscale>
<asrwt>0</asrwt>
<pdfrwt beam="1">  1        3 0.22274671E-02 0.37821768E+02</pdfrwt>
<pdfrwt beam="2">  1       -3 0.38000180E-02 0.37821768E+02</pdfrwt>
<totfact> 0.38893114E+05</totfact>
</mgrwt>
</event>
<event>
 4    1  0.1802450E-001  0.4691509E+02  0.7818608E-02  0.1462728E+00
         -3   -1    0    0    0  501 -0.00000000000E+00  0.00000000000E+00  0.27878177401E+02  0.27878332522E+02  0.93000000000E-01 0. -1.
          3   -1    0    0  501    0  0.00000000000E+00 -0.00000000000E+00 -0.19737568006E+02  0.19737787105E+02  0.93000000000E-01 0.  1.
        -13    1    1    2    0    0  0.22906461837E+01 -0.11113971385E+02 -0.16766388715E+02  0.20245749749E+02  0.10570000000E+00 0.  1.
         13    1    1    2    0    0 -0.22906461837E+01  0.11113971385E+02  0.24906998110E+02  0.27370369878E+02  0.10570000000E+00 0. -1.
<mgrwt>
<rscale>  0 0.46915086E+02</rscale>
<asrwt>0</asrwt>
<pdfrwt beam="2">  1        3 0.30365777E-02 0.46915086E+02</pdfrwt>
<pdfrwt beam="1">  1       -3 0.42889791E-02 0.46915086E+02</pdfrwt>
<totfact> 0.22329847E+05</totfact>
</mgrwt>
</event>
<event>
 4    1  0.1802450E-001  0.5756508E+02  0.7818608E-02  0.1408344E+00
          3   -1    0    0  501    0  0.00000000000E+00  0.00000000000E+00  0.56328307565E+01  0.56335984354E+01  0.93000000000E-01 0. -1.
         -3   -1    0    0    0  501 -0.00000000000E+00 -0.00000000000E+00 -0.14706169329E+03  0.14706172269E+03  0.93000000000E-01 0.  1.
        -13    1    1    2    0    0 -0.10902724014E+02 -0.25213578680E+02 -0.47922494332E+02  0.55237401969E+02  0.10570000000E+00 0. -1.
         13    1    1    2    0    0  0.10902724014E+02  0.25213578680E+02 -0.93506368197E+02  0.97457919159E+02  0.10570000000E+00 0.  1.
<mgrwt>
<rscale>  0 0.57565076E+02</rscale>
<asrwt>0</asrwt>
<pdfrwt beam="1">  1        3 0.86665077E-03 0.57565076E+02</pdfrwt>
<pdfrwt beam="2">  1       -3 0.22624934E-01 0.57565076E+02</pdfrwt>
<totfact> 0.10430342E+05</totfact>
</mgrwt>
</event>
<event>
 4    1  0.1802450E-001  0.2393874E+02  0.7818608E-02  0.1676730E+00
          3   -1    0    0  501    0  0.00000000000E+00  0.00000000000E+00  0.37375550554E+01  0.37387119162E+01  0.93000000000E-01 0. -1.
         -3   -1    0    0    0  501 -0.00000000000E+00 -0.00000000000E+00 -0.38324295062E+02  0.38324407902E+02  0.93000000000E-01 0.  1.
        -13    1    1    2    0    0  0.10604753538E+02 -0.33557849673E+01 -0.95276775785E+01  0.14646156590E+02  0.10570000000E+00 0. -1.
         13    1    1    2    0    0 -0.10604753538E+02  0.33557849673E+01 -0.25059062428E+02  0.27416963227E+02  0.10570000000E+00 0.  1.
<mgrwt>
<rscale>  0 0.23938744E+02</rscale>
<asrwt>0</asrwt>
<pdfrwt beam="1">  1        3 0.57510617E-03 0.23938744E+02</pdfrwt>
<pdfrwt beam="2">  1       -3 0.58961428E-02 0.23938744E+02</pdfrwt>
<totfact> 0.11195716E+06</totfact>
</mgrwt>
</event>
<event>
 4    1  0.1802450E-001  0.2977783E+02  0.7818608E-02  0.1600557E+00
          3   -1    0    0  501    0  0.00000000000E+00  0.00000000000E+00  0.61120575658E+01  0.61127650608E+01  0.93000000000E-01 0. -1.
         -3   -1    0    0    0  501 -0.00000000000E+00 -0.00000000000E+00 -0.36266395759E+02  0.36266515001E+02  0.93000000000E-01 0.  1.
        -13    1    1    2    0    0  0.10815746663E+01 -0.13998055029E+02 -0.22129219381E+02  0.26207420157E+02  0.10570000000E+00 0.  1.
         13    1    1    2    0    0 -0.10815746663E+01  0.13998055029E+02 -0.80251188117E+01  0.16171859905E+02  0.10570000000E+00 0. -1.
<mgrwt>
<rscale>  0 0.29777832E+02</rscale>
<asrwt>0</asrwt>
<pdfrwt beam="1">  1        3 0.94038017E-03 0.29777832E+02</pdfrwt>
<pdfrwt beam="2">  1       -3 0.55795090E-02 0.29777832E+02</pdfrwt>
<totfact> 0.68001702E+05</totfact>
</mgrwt>
</event>
<event>
 4    1  0.1802450E-001  0.3327029E+02  0.7818608E-02  0.1564520E+00
          3   -1    0    0  501    0  0.00000000000E+00  0.00000000000E+00  0.31280636242E+02  0.31280774490E+02  0.93000000000E-01 0.  1.
         -3   -1    0    0    0  501 -0.00000000000E+00 -0.00000000000E+00 -0.88462247434E+01  0.88467135825E+01  0.93000000000E-01 0. -1.
        -13    1    1    2    0    0 -0.12732114630E+02 -0.37402204471E+01 -0.88123915188E+00  0.13299764918E+02  0.10570000000E+00 0. -1.
         13    1    1    2    0    0  0.12732114630E+02  0.37402204471E+01  0.23315650650E+02  0.26827723154E+02  0.10570000000E+00 0.  1.
<mgrwt>
<rscale>  0 0.33270294E+02</rscale>
<asrwt>0</asrwt>
<pdfrwt beam="1">  1        3 0.48124537E-02 0.33270294E+02</pdfrwt>
<pdfrwt beam="2">  1       -3 0.13610059E-02 0.33270294E+02</pdfrwt>
<totfact> 0.52745071E+05</totfact>
</mgrwt>
</event>
<event>
 4    1  0.1802450E-001  0.9243529E+02  0.7818608E-02  0.1297059E+00
          3   -1    0    0  501    0  0.00000000000E+00  0.00000000000E+00  0.27218864871E+03  0.27218866460E+03  0.93000000000E-01 0. -1.
         -3   -1    0    0    0  501 -0.00000000000E+00 -0.00000000000E+00 -0.78474666315E+01  0.78480176817E+01  0.93000000000E-01 0.  1.
        -13    1    1    2    0    0 -0.26787027477E+02  0.27856098711E+02  0.55375861788E+02  0.67527804035E+02  0.10570000000E+00 0.  1.
         13    1    1    2    0    0  0.26787027477E+02 -0.27856098711E+02  0.20896532029E+03  0.21250887825E+03  0.10570000000E+00 0. -1.
<mgrwt>
<rscale>  0 0.92435290E+02</rscale>
<asrwt>0</asrwt>
<pdfrwt beam="1">  1        3 0.41875214E-01 0.92435290E+02</pdfrwt>
<pdfrwt beam="2">  1       -3 0.12073464E-02 0.92435290E+02</pdfrwt>
<totfact> 0.23925330E+04</totfact>
</mgrwt>
</event>
<event>
 4    1  0.1802450E-001  0.6797298E+02  0.7818608E-02  0.1367125E+00
         -3   -1    0    0    0  501 -0.00000000000E+00  0.00000000000E+00  0.15908196870E+02  0.15908468708E+02  0.93000000000E-01 0.  1.
          3   -1    0    0  501    0  0.00000000000E+00 -0.00000000000E+00 -0.72608277671E+02  0.72608337230E+02  0.93000000000E-01 0. -1.
        -13    1    1    2    0    0 -0.27452155373E+02 -0.85621324203E+00 -0.54418055169E+02  0.60956458531E+02  0.10570000000E+00 0. -1.
         13    1    1    2    0    0  0.27452155373E+02  0.85621324203E+00 -0.22820256319E+01  0.27560347407E+02  0.10570000000E+00 0.  1.
<mgrwt>
<rscale>  0 0.67972978E+02</rscale>
<asrwt>0</asrwt>
<pdfrwt beam="2">  1        3 0.11170530E-01 0.67972978E+02</pdfrwt>
<pdfrwt beam="1">  1       -3 0.24474404E-02 0.67972978E+02</pdfrwt>
<totfact> 0.77940515E+04</totfact>
</mgrwt>
</event>
<event>
 4    1  0.1802450E-001  0.3626046E+02  0.7818608E-02  0.1537684E+00
         -3   -1    0    0    0  501 -0.00000000000E+00  0.00000000000E+00  0.25533915244E+02  0.25534084607E+02  0.93000000000E-01 0. -1.
          3   -1    0    0  501    0  0.00000000000E+00 -0.00000000000E+00 -0.12872897605E+02  0.12873233538E+02  0.93000000000E-01 0.  1.
        -13    1    1    2    0    0  0.65490407423E+01  0.12590325522E+02 -0.56196606008E+01  0.15264271655E+02  0.10570000000E+00 0.  1.
         13    1    1    2    0    0 -0.65490407423E+01 -0.12590325522E+02  0.18280678240E+02  0.23143046490E+02  0.10570000000E+00 0. -1.
<mgrwt>
<rscale>  0 0.36260457E+02</rscale>
<asrwt>0</asrwt>
<pdfrwt beam="2">  1        3 0.19804847E-02 0.36260457E+02</pdfrwt>
<pdfrwt beam="1">  1       -3 0.39283335E-02 0.36260457E+02</pdfrwt>
<totfact> 0.43168016E+05</totfact>
</mgrwt>
</event>
<event>
 4    1  0.1802450E-001  0.3683357E+02  0.7818608E-02  0.1532896E+00
         -3   -1    0    0    0  501 -0.00000000000E+00  0.00000000000E+00  0.40833124501E+01  0.40843713794E+01  0.93000000000E-01 0. -1.
          3   -1    0    0  501    0  0.00000000000E+00 -0.00000000000E+00 -0.83052541195E+02  0.83052593265E+02  0.93000000000E-01 0.  1.
        -13    1    1    2    0    0 -0.70084389695E+01 -0.17025970173E+02 -0.40445069099E+02  0.44438909348E+02  0.10570000000E+00 0. -1.
         13    1    1    2    0    0  0.70084389695E+01  0.17025970173E+02 -0.38524159646E+02  0.42698055296E+02  0.10570000000E+00 0.  1.
<mgrwt>
<rscale>  0 0.36833565E+02</rscale>
<asrwt>0</asrwt>
<pdfrwt beam="2">  1        3 0.12777398E-01 0.36833565E+02</pdfrwt>
<pdfrwt beam="1">  1       -3 0.62828744E-03 0.36833565E+02</pdfrwt>
<totfact> 0.36454371E+05</totfact>
</mgrwt>
</event>
<event>
 4    1  0.1802450E-001  0.2546845E+02  0.7818608E-02  0.1654363E+00
         -3   -1    0    0    0  501 -0.00000000000E+00  0.00000000000E+00  0.29904595869E+02  0.29904740479E+02  0.93000000000E-01 0. -1.
          3   -1    0    0  501    0  0.00000000000E+00 -0.00000000000E+00 -0.54220360836E+01  0.54228336035E+01  0.93000000000E-01 0.  1.
        -13    1    1    2    0    0 -0.11889776361E+02  0.30680426295E+01  0.16918458370E+02  0.20905144668E+02  0.10570000000E+00 0. -1.
         13    1    1    2    0    0  0.11889776361E+02 -0.30680426295E+01  0.75641014154E+01  0.14422429414E+02  0.10570000000E+00 0.  1.
<mgrwt>
<rscale>  0 0.25468446E+02</rscale>
<asrwt>0</asrwt>
<pdfrwt beam="2">  1        3 0.83423187E-03 0.25468446E+02</pdfrwt>
<pdfrwt beam="1">  1       -3 0.46007795E-02 0.25468446E+02</pdfrwt>
<totfact> 0.99469336E+05</totfact>
</mgrwt>
</event>
<event>
 4    1  0.1802450E-001  0.2731603E+02  0.7818608E-02  0.1629804E+00
         -3   -1    0    0    0  501 -0.00000000000E+00  0.00000000000E+00  0.68349479785E+01  0.68355806534E+01  0.93000000000E-01 0.  1.
          3   -1    0    0  501    0  0.00000000000E+00 -0.00000000000E+00 -0.27290315694E+02  0.27290474156E+02  0.93000000000E-01 0. -1.
        -13    1    1    2    0    0  0.41249277465E+01 -0.13012568720E+02 -0.96856509816E+01  0.16738129556E+02  0.10570000000E+00 0. -1.
         13    1    1    2    0    0 -0.41249277465E+01  0.13012568720E+02 -0.10769716733E+02  0.17387925253E+02  0.10570000000E+00 0.  1.
<mgrwt>
<rscale>  0 0.27316031E+02</rscale>
<asrwt>0</asrwt>
<pdfrwt beam="2">  1        3 0.41985709E-02 0.27316031E+02</pdfrwt>
<pdfrwt beam="1">  1       -3 0.10515913E-02 0.27316031E+02</pdfrwt>
<totfact> 0.85115743E+05</totfact>
</mgrwt>
</event>
<event>
 4    1  0.1802450E-001  0.4919237E+02  0.7818608E-02  0.1449747E+00
         -3   -1    0    0    0  501 -0.00000000000E+00  0.00000000000E+00  0.55927828902E+01  0.55935560654E+01  0.93000000000E-01 0.  1.
          3   -1    0    0  501    0  0.00000000000E+00 -0.00000000000E+00 -0.10816192872E+03  0.10816196870E+03  0.93000000000E-01 0. -1.
        -13    1    1    2    0    0  0.20755933214E+02 -0.64563666862E+01 -0.77899784108E+02  0.80875713109E+02  0.10570000000E+00 0. -1.
         13    1    1    2    0    0 -0.20755933214E+02  0.64563666862E+01 -0.24669361718E+02  0.32879811654E+02  0.10570000000E+00 0.  1.
<mgrwt>
<rscale>  0 0.49192375E+02</rscale>
<asrwt>0</asrwt>
<pdfrwt beam="2">  1        3 0.16640358E-01 0.49192375E+02</pdfrwt>
<pdfrwt beam="1">  1       -3 0.86049077E-03 0.49192375E+02</pdfrwt>
<totfact> 0.16854102E+05</totfact>
</mgrwt>
</event>
<event>
 4    1  0.1802450E-001  0.1031523E+03  0.7818608E-02  0.1273803E+00
          3   -1    0    0  501    0  0.00000000000E+00  0.00000000000E+00  0.65579580162E+02  0.65579646105E+02  0.93000000000E-01 0. -1.
         -3   -1    0    0    0  501 -0.00000000000E+00 -0.00000000000E+00 -0.40562813780E+02  0.40562920392E+02  0.93000000000E-01 0.  1.
        -13    1    1    2    0    0 -0.49934445948E+01 -0.21157245029E+02  0.60635204403E+02  0.64414305023E+02  0.10570000000E+00 0. -1.
         13    1    1    2    0    0  0.49934445948E+01  0.21157245029E+02 -0.35618438020E+02  0.41728261474E+02  0.10570000000E+00 0.  1.
<mgrwt>
<rscale>  0 0.10315234E+03</rscale>
<asrwt>0</asrwt>
<pdfrwt beam="1">  1        3 0.10089179E-01 0.10315234E+03</pdfrwt>
<pdfrwt beam="2">  1       -3 0.62404462E-02 0.10315234E+03</pdfrwt>
<totfact> 0.24395930E+04</totfact>
</mgrwt>
</event>
<event>
 4    1  0.1802450E-001  0.2175171E+02  0.7818608E-02  0.1712582E+00
         -3   -1    0    0    0  501 -0.00000000000E+00  0.00000000000E+00  0.82390251624E+02  0.82390304112E+02  0.93000000000E-01 0. -1.
          3   -1    0    0  501    0  0.00000000000E+00 -0.00000000000E+00 -0.14340991764E+01  0.14371114946E+01  0.93000000000E-01 0.  1.
        -13    1    1    2    0    0  0.63715497442E+01 -0.84941333832E+01  0.49537551346E+02  0.50662877079E+02  0.10570000000E+00 0.  1.
         13    1    1    2    0    0 -0.63715497442E+01  0.84941333832E+01  0.31418601102E+02  0.33164538528E+02  0.10570000000E+00 0. -1.
<mgrwt>
<rscale>  0 0.21751712E+02</rscale>
<asrwt>0</asrwt>
<pdfrwt beam="2">  1        3 0.22086642E-03 0.21751712E+02</pdfrwt>
<pdfrwt beam="1">  1       -3 0.12675658E-01 0.21751712E+02</pdfrwt>
<totfact> 0.12308536E+06</totfact>
</mgrwt>
</event>
<event>
 4    1  0.1802450E-001  0.6838344E+02  0.7818608E-02  0.1365678E+00
          3   -1    0    0  501    0  0.00000000000E+00  0.00000000000E+00  0.21459093097E+02  0.21459294619E+02  0.93000000000E-01 0. -1.
         -3   -1    0    0    0  501 -0.00000000000E+00 -0.00000000000E+00 -0.54478671398E+02  0.54478750778E+02  0.93000000000E-01 0.  1.
        -13    1    1    2    0    0 -0.27373032650E+02  0.13454025041E+02 -0.33668994454E+02  0.45430232954E+02  0.10570000000E+00 0.  1.
         13    1    1    2    0    0  0.27373032650E+02 -0.13454025041E+02  0.64941615262E+00  0.30507812443E+02  0.10570000000E+00 0. -1.
<mgrwt>
<rscale>  0 0.68383435E+02</rscale>
<asrwt>0</asrwt>
<pdfrwt beam="1">  1        3 0.33014206E-02 0.68383435E+02</pdfrwt>
<pdfrwt beam="2">  1       -3 0.83813556E-02 0.68383435E+02</pdfrwt>
<totfact> 0.79000999E+04</totfact>
</mgrwt>
</event>
<event>
 4    1  0.1802450E-001  0.3395643E+02  0.7818608E-02  0.1558068E+00
          3   -1    0    0  501    0  0.00000000000E+00  0.00000000000E+00  0.73550500025E+01  0.73556379424E+01  0.93000000000E-01 0. -1.
         -3   -1    0    0    0  501 -0.00000000000E+00 -0.00000000000E+00 -0.39189871441E+02  0.39189981788E+02  0.93000000000E-01 0.  1.
        -13    1    1    2    0    0  0.10747170010E+02 -0.10731508895E+02 -0.26318975892E+02  0.30386948035E+02  0.10570000000E+00 0. -1.
         13    1    1    2    0    0 -0.10747170010E+02  0.10731508895E+02 -0.55158455459E+01  0.16158671695E+02  0.10570000000E+00 0.  1.
<mgrwt>
<rscale>  0 0.33956426E+02</rscale>
<asrwt>0</asrwt>
<pdfrwt beam="1">  1        3 0.11315999E-02 0.33956426E+02</pdfrwt>
<pdfrwt beam="2">  1       -3 0.60292645E-02 0.33956426E+02</pdfrwt>
<totfact> 0.49316197E+05</totfact>
</mgrwt>
</event>
<event>
 4    1  0.1802450E-001  0.2261528E+02  0.7818608E-02  0.1697823E+00
         -3   -1    0    0    0  501 -0.00000000000E+00  0.00000000000E+00  0.31382557198E+02  0.31382694998E+02  0.93000000000E-01 0. -1.
          3   -1    0    0  501    0  0.00000000000E+00 -0.00000000000E+00 -0.40736457430E+01  0.40747071845E+01  0.93000000000E-01 0.  1.
        -13    1    1    2    0    0 -0.15944468808E+01  0.11032379168E+02  0.10681378003E+02  0.15438868466E+02  0.10570000000E+00 0. -1.
         13    1    1    2    0    0  0.15944468808E+01 -0.11032379168E+02  0.16627533452E+02  0.20018533716E+02  0.10570000000E+00 0.  1.
<mgrwt>
<rscale>  0 0.22615276E+02</rscale>
<asrwt>0</asrwt>
<pdfrwt beam="2">  1        3 0.62680694E-03 0.22615276E+02</pdfrwt>
<pdfrwt beam="1">  1       -3 0.48281783E-02 0.22615276E+02</pdfrwt>
<totfact> 0.12968176E+06</totfact>
</mgrwt>
</event>
<event>
 4    1  0.1802450E-001  0.2563924E+02  0.7818608E-02  0.1651987E+00
         -3   -1    0    0    0  501 -0.00000000000E+00  0.00000000000E+00  0.50089449980E+01  0.50098082790E+01  0.93000000000E-01 0.  1.
          3   -1    0    0  501    0  0.00000000000E+00 -0.00000000000E+00 -0.32806066914E+02  0.32806198734E+02  0.93000000000E-01 0. -1.
        -13    1    1    2    0    0  0.35183252621E+01 -0.11935303535E+02 -0.18444913661E+02  0.22249856080E+02  0.10570000000E+00 0. -1.
         13    1    1    2    0    0 -0.35183252621E+01  0.11935303535E+02 -0.93522082552E+01  0.15566150933E+02  0.10570000000E+00 0.  1.
<mgrwt>
<rscale>  0 0.25639236E+02</rscale>
<asrwt>0</asrwt>
<pdfrwt beam="2">  1        3 0.50471636E-02 0.25639236E+02</pdfrwt>
<pdfrwt beam="1">  1       -3 0.77068349E-03 0.25639236E+02</pdfrwt>
<totfact> 0.97199126E+05</totfact>
</mgrwt>
</event>
<event>
 4    1  0.1802450E-001  0.3743980E+02  0.7818608E-02  0.1527944E+00
          3   -1    0    0  501    0  0.00000000000E+00  0.00000000000E+00  0.37069426806E+01  0.37081090918E+01  0.93000000000E-01 0. -1.
         -3   -1    0    0    0  501 -0.00000000000E+00 -0.00000000000E+00 -0.94518648310E+02  0.94518694063E+02  0.93000000000E-01 0.  1.
        -13    1    1    2    0    0  0.14132026497E+02 -0.11028633558E+02 -0.31258229482E+02  0.36033776015E+02  0.10570000000E+00 0. -1.
         13    1    1    2    0    0 -0.14132026497E+02  0.11028633558E+02 -0.59553476147E+02  0.62193027139E+02  0.10570000000E+00 0.  1.
<mgrwt>
<rscale>  0 0.37439805E+02</rscale>
<asrwt>0</asrwt>
<pdfrwt beam="1">  1        3 0.57039219E-03 0.37439805E+02</pdfrwt>
<pdfrwt beam="2">  1       -3 0.14541422E-01 0.37439805E+02</pdfrwt>
<totfact> 0.34126009E+05</totfact>
</mgrwt>
</event>
<event>
 4    1  0.1802450E-001  0.6062981E+02  0.7818608E-02  0.1395208E+00
          3   -1    0    0  501    0  0.00000000000E+00  0.00000000000E+00  0.40009452906E+02  0.40009560993E+02  0.93000000000E-01 0.  1.
         -3   -1    0    0    0  501 -0.00000000000E+00 -0.00000000000E+00 -0.22969177897E+02  0.22969366170E+02  0.93000000000E-01 0. -1.
        -13    1    1    2    0    0 -0.52915931670E+01  0.24461346452E+02  0.26289177967E+02  0.36297251675E+02  0.10570000000E+00 0.  1.
         13    1    1    2    0    0  0.52915931670E+01 -0.24461346452E+02 -0.92489029574E+01  0.26681675489E+02  0.10570000000E+00 0. -1.
<mgrwt>
<rscale>  0 0.60629814E+02</rscale>
<asrwt>0</asrwt>
<pdfrwt beam="1">  1        3 0.61553232E-02 0.60629814E+02</pdfrwt>
<pdfrwt beam="2">  1       -3 0.35337425E-02 0.60629814E+02</pdfrwt>
<totfact> 0.11162220E+05</totfact>
</mgrwt>
</event>
<event>
 4    1  0.1802450E-001  0.2277346E+02  0.7818608E-02  0.1695209E+00
         -3   -1    0    0    0  501 -0.00000000000E+00  0.00000000000E+00  0.45482585751E+01  0.45492092792E+01  0.93000000000E-01 0.  1.
          3   -1    0    0  501    0  0.00000000000E+00 -0.00000000000E+00 -0.28503092790E+02  0.28503244510E+02  0.93000000000E-01 0. -1.
        -13    1    1    2    0    0 -0.88568612497E+01 -0.49808277306E+01 -0.19433761710E+02  0.21930228060E+02  0.10570000000E+00 0. -1.
         13    1    1    2    0    0  0.88568612497E+01  0.49808277306E+01 -0.45210725044E+01  0.11122225729E+02  0.10570000000E+00 0.  1.
<mgrwt>
<rscale>  0 0.22773463E+02</rscale>
<asrwt>0</asrwt>
<pdfrwt beam="2">  1        3 0.43851759E-02 0.22773463E+02</pdfrwt>
<pdfrwt beam="1">  1       -3 0.69981691E-03 0.22773463E+02</pdfrwt>
<totfact> 0.12868536E+06</totfact>
</mgrwt>
</event>
<event>
 4    1  0.1802450E-001  0.3824472E+02  0.7818608E-02  0.1521541E+00
          3   -1    0    0  501    0  0.00000000000E+00  0.00000000000E+00  0.21096127679E+02  0.21096332669E+02  0.93000000000E-01 0. -1.
         -3   -1    0    0    0  501 -0.00000000000E+00 -0.00000000000E+00 -0.17332845388E+02  0.17333094883E+02  0.93000000000E-01 0.  1.
        -13    1    1    2    0    0  0.10656578666E+02 -0.14187533844E+02 -0.52805243186E+01  0.18513343702E+02  0.10570000000E+00 0.  1.
         13    1    1    2    0    0 -0.10656578666E+02  0.14187533844E+02  0.90438066100E+01  0.19916083850E+02  0.10570000000E+00 0. -1.
<mgrwt>
<rscale>  0 0.38244720E+02</rscale>
<asrwt>0</asrwt>
<pdfrwt beam="1">  1        3 0.32455930E-02 0.38244720E+02</pdfrwt>
<pdfrwt beam="2">  1       -3 0.26666266E-02 0.38244720E+02</pdfrwt>
<totfact> 0.37939864E+05</totfact>
</mgrwt>
</event>
<event>
 4    1  0.1802450E-001  0.2522802E+02  0.7818608E-02  0.1657748E+00
          3   -1    0    0  501    0  0.00000000000E+00  0.00000000000E+00  0.42731181950E+02  0.42731283153E+02  0.93000000000E-01 0.  1.
         -3   -1    0    0    0  501 -0.00000000000E+00 -0.00000000000E+00 -0.37228988517E+01  0.37240602654E+01  0.93000000000E-01 0. -1.
        -13    1    1    2    0    0 -0.10576601952E+02  0.33774530737E+01  0.30526586872E+02  0.32483155276E+02  0.10570000000E+00 0.  1.
         13    1    1    2    0    0  0.10576601952E+02 -0.33774530737E+01  0.84816962267E+01  0.13972188142E+02  0.10570000000E+00 0. -1.
<mgrwt>
<rscale>  0 0.25228016E+02</rscale>
<asrwt>0</asrwt>
<pdfrwt beam="1">  1        3 0.65741248E-02 0.25228016E+02</pdfrwt>
<pdfrwt beam="2">  1       -3 0.57285082E-03 0.25228016E+02</pdfrwt>
<totfact> 0.98191910E+05</totfact>
</mgrwt>
</event>
<event>
 4    1  0.1802450E-001  0.3209057E+02  0.7818608E-02  0.1576067E+00
         -3   -1    0    0    0  501 -0.00000000000E+00  0.00000000000E+00  0.25447838013E+02  0.25448007948E+02  0.93000000000E-01 0.  1.
          3   -1    0    0  501    0  0.00000000000E+00 -0.00000000000E+00 -0.10116403605E+02  0.10116831070E+02  0.93000000000E-01 0. -1.
        -13    1    1    2    0    0 -0.12167743751E+02 -0.35220772933E+01  0.18579788278E+02  0.22487301337E+02  0.10570000000E+00 0.  1.
         13    1    1    2    0    0  0.12167743751E+02  0.35220772933E+01 -0.32483538703E+01  0.13077537681E+02  0.10570000000E+00 0. -1.
<mgrwt>
<rscale>  0 0.32090573E+02</rscale>
<asrwt>0</asrwt>
<pdfrwt beam="2">  1        3 0.15564158E-02 0.32090573E+02</pdfrwt>
<pdfrwt beam="1">  1       -3 0.39150979E-02 0.32090573E+02</pdfrwt>
<totfact> 0.58251742E+05</totfact>
</mgrwt>
</event>
<event>
 4    1  0.1802450E-001  0.5106103E+02  0.7818608E-02  0.1439701E+00
         -3   -1    0    0    0  501 -0.00000000000E+00  0.00000000000E+00  0.33374623828E+02  0.33374753402E+02  0.93000000000E-01 0.  1.
          3   -1    0    0  501    0  0.00000000000E+00 -0.00000000000E+00 -0.19529747361E+02  0.19529968792E+02  0.93000000000E-01 0. -1.
        -13    1    1    2    0    0 -0.12445600016E+02 -0.96291836275E+01 -0.13907755193E+02  0.21001213396E+02  0.10570000000E+00 0. -1.
         13    1    1    2    0    0  0.12445600016E+02  0.96291836275E+01  0.27752631660E+02  0.31903508798E+02  0.10570000000E+00 0.  1.
<mgrwt>
<rscale>  0 0.51061032E+02</rscale>
<asrwt>0</asrwt>
<pdfrwt beam="2">  1        3 0.30046036E-02 0.51061032E+02</pdfrwt>
<pdfrwt beam="1">  1       -3 0.51345844E-02 0.51061032E+02</pdfrwt>
<totfact> 0.17789545E+05</totfact>
</mgrwt>
</event>
<event>
 4    1  0.1802450E-001  0.2265155E+02  0.7818608E-02  0.1697221E+00
         -3   -1    0    0    0  501 -0.00000000000E+00  0.00000000000E+00  0.16603096221E+02  0.16603356682E+02  0.93000000000E-01 0.  1.
          3   -1    0    0  501    0  0.00000000000E+00 -0.00000000000E+00 -0.77252590649E+01  0.77258188317E+01  0.93000000000E-01 0. -1.
        -13    1    1    2    0    0  0.44102563160E+01 -0.10198412813E+02  0.20847761031E+01  0.11305549459E+02  0.10570000000E+00 0. -1.
         13    1    1    2    0    0 -0.44102563160E+01  0.10198412813E+02  0.67930610526E+01  0.13023626055E+02  0.10570000000E+00 0.  1.
<mgrwt>
<rscale>  0 0.22651552E+02</rscale>
<asrwt>0</asrwt>
<pdfrwt beam="2">  1        3 0.11885645E-02 0.22651552E+02</pdfrwt>
<pdfrwt beam="1">  1       -3 0.25543856E-02 0.22651552E+02</pdfrwt>
<totfact> 0.13411459E+06</totfact>
</mgrwt>
</event>
<event>
 4    1  0.1802450E-001  0.2168132E+02  0.7818608E-02  0.1713822E+00
         -3   -1    0    0    0  501 -0.00000000000E+00  0.00000000000E+00  0.62980547900E+01  0.62987413931E+01  0.93000000000E-01 0. -1.
          3   -1    0    0  501    0  0.00000000000E+00 -0.00000000000E+00 -0.18657890857E+02  0.18658122634E+02  0.93000000000E-01 0.  1.
        -13    1    1    2    0    0  0.10168496999E+02  0.15120268268E+01 -0.10138041265E+02  0.14438684481E+02  0.10570000000E+00 0.  1.
         13    1    1    2    0    0 -0.10168496999E+02 -0.15120268268E+01 -0.22217948016E+01  0.10518179547E+02  0.10570000000E+00 0. -1.
<mgrwt>
<rscale>  0 0.21681317E+02</rscale>
<asrwt>0</asrwt>
<pdfrwt beam="2">  1        3 0.28705154E-02 0.21681317E+02</pdfrwt>
<pdfrwt beam="1">  1       -3 0.96900216E-03 0.21681317E+02</pdfrwt>
<totfact> 0.14737594E+06</totfact>
</mgrwt>
</event>
<event>
 4    1  0.1802450E-001  0.3036390E+02  0.7818608E-02  0.1594101E+00
         -3   -1    0    0    0  501 -0.00000000000E+00  0.00000000000E+00  0.53931202384E+02  0.53931282569E+02  0.93000000000E-01 0.  1.
          3   -1    0    0  501    0  0.00000000000E+00 -0.00000000000E+00 -0.42732175990E+01  0.42742294801E+01  0.93000000000E-01 0. -1.
        -13    1    1    2    0    0 -0.57796501781E+01 -0.13540127362E+02  0.31934829914E+02  0.35165095468E+02  0.10570000000E+00 0. -1.
         13    1    1    2    0    0  0.57796501781E+01  0.13540127362E+02  0.17723154871E+02  0.23040416581E+02  0.10570000000E+00 0.  1.
<mgrwt>
<rscale>  0 0.30363896E+02</rscale>
<asrwt>0</asrwt>
<pdfrwt beam="2">  1        3 0.65750206E-03 0.30363896E+02</pdfrwt>
<pdfrwt beam="1">  1       -3 0.82971926E-02 0.30363896E+02</pdfrwt>
<totfact> 0.62082308E+05</totfact>
</mgrwt>
</event>
<event>
 4    1  0.1802450E-001  0.5887435E+02  0.7818608E-02  0.1402617E+00
          3   -1    0    0  501    0  0.00000000000E+00  0.00000000000E+00  0.39085164491E+02  0.39085275134E+02  0.93000000000E-01 0. -1.
         -3   -1    0    0    0  501 -0.00000000000E+00 -0.00000000000E+00 -0.22170508380E+02  0.22170703436E+02  0.93000000000E-01 0.  1.
        -13    1    1    2    0    0  0.19964096704E+02  0.19835484489E+02  0.17439307121E+02  0.33108189432E+02  0.10570000000E+00 0. -1.
         13    1    1    2    0    0 -0.19964096704E+02 -0.19835484489E+02 -0.52465101022E+00  0.28147789137E+02  0.10570000000E+00 0.  1.
<mgrwt>
<rscale>  0 0.58874352E+02</rscale>
<asrwt>0</asrwt>
<pdfrwt beam="1">  1        3 0.60131257E-02 0.58874352E+02</pdfrwt>
<pdfrwt beam="2">  1       -3 0.34108710E-02 0.58874352E+02</pdfrwt>
<totfact> 0.12094606E+05</totfact>
</mgrwt>
</event>
<event>
 4    1  0.1802450E-001  0.3600176E+02  0.7818608E-02  0.1539880E+00
         -3   -1    0    0    0  501 -0.00000000000E+00  0.00000000000E+00  0.40062198828E+02  0.40062306772E+02  0.93000000000E-01 0.  1.
          3   -1    0    0  501    0  0.00000000000E+00 -0.00000000000E+00 -0.80878276287E+01  0.80883623034E+01  0.93000000000E-01 0. -1.
        -13    1    1    2    0    0 -0.43544340856E+01 -0.14242960566E+02  0.24665027245E+01  0.15096947707E+02  0.10570000000E+00 0. -1.
         13    1    1    2    0    0  0.43544340856E+01  0.14242960566E+02  0.29507868474E+02  0.33053721368E+02  0.10570000000E+00 0.  1.
<mgrwt>
<rscale>  0 0.36001757E+02</rscale>
<asrwt>0</asrwt>
<pdfrwt beam="2">  1        3 0.12443306E-02 0.36001757E+02</pdfrwt>
<pdfrwt beam="1">  1       -3 0.61634646E-02 0.36001757E+02</pdfrwt>
<totfact> 0.42692072E+05</totfact>
</mgrwt>
</event>
<event>
 4    1  0.1802450E-001  0.2559227E+02  0.7818608E-02  0.1652638E+00
         -3   -1    0    0    0  501 -0.00000000000E+00  0.00000000000E+00  0.10262639939E+02  0.10263061313E+02  0.93000000000E-01 0.  1.
          3   -1    0    0  501    0  0.00000000000E+00 -0.00000000000E+00 -0.15954175094E+02  0.15954446149E+02  0.93000000000E-01 0. -1.
        -13    1    1    2    0    0  0.41992820479E+01 -0.10360812953E+02 -0.92227523764E+01  0.14493127636E+02  0.10570000000E+00 0. -1.
         13    1    1    2    0    0 -0.41992820479E+01  0.10360812953E+02  0.35312172213E+01  0.11724379827E+02  0.10570000000E+00 0.  1.
<mgrwt>
<rscale>  0 0.25592267E+02</rscale>
<asrwt>0</asrwt>
<pdfrwt beam="2">  1        3 0.24545417E-02 0.25592267E+02</pdfrwt>
<pdfrwt beam="1">  1       -3 0.15789209E-02 0.25592267E+02</pdfrwt>
<totfact> 0.10135391E+06</totfact>
</mgrwt>
</event>
<event>
 4    1  0.1802450E-001  0.5059565E+02  0.7818608E-02  0.1442155E+00
         -3   -1    0    0    0  501 -0.00000000000E+00  0.00000000000E+00  0.11173174177E+03  0.11173178048E+03  0.93000000000E-01 0.  1.
          3   -1    0    0  501    0  0.00000000000E+00 -0.00000000000E+00 -0.57274082980E+01  0.57281633018E+01  0.93000000000E-01 0. -1.
        -13    1    1    2    0    0 -0.15059782381E+02 -0.15741292195E+02  0.23146786584E+02  0.31786321382E+02  0.10570000000E+00 0. -1.
         13    1    1    2    0    0  0.15059782381E+02  0.15741292195E+02  0.82857546892E+02  0.85673622398E+02  0.10570000000E+00 0.  1.
<mgrwt>
<rscale>  0 0.50595649E+02</rscale>
<asrwt>0</asrwt>
<pdfrwt beam="2">  1        3 0.88120084E-03 0.50595649E+02</pdfrwt>
<pdfrwt beam="1">  1       -3 0.17189559E-01 0.50595649E+02</pdfrwt>
<totfact> 0.15581407E+05</totfact>
</mgrwt>
</event>
<event>
 4    1  0.1802450E-001  0.6623396E+02  0.7818608E-02  0.1373389E+00
          3   -1    0    0  501    0  0.00000000000E+00  0.00000000000E+00  0.66341805429E+01  0.66348323623E+01  0.93000000000E-01 0. -1.
         -3   -1    0    0    0  501 -0.00000000000E+00 -0.00000000000E+00 -0.16530692534E+03  0.16530695150E+03  0.93000000000E-01 0.  1.
        -13    1    1    2    0    0  0.10593552423E+02 -0.24152400190E+02 -0.27341532293E+02  0.37988581817E+02  0.10570000000E+00 0. -1.
         13    1    1    2    0    0 -0.10593552423E+02  0.24152400190E+02 -0.13133121251E+03  0.13395320205E+03  0.10570000000E+00 0.  1.
<mgrwt>
<rscale>  0 0.66233957E+02</rscale>
<asrwt>0</asrwt>
<pdfrwt beam="1">  1        3 0.10206954E-02 0.66233957E+02</pdfrwt>
<pdfrwt beam="2">  1       -3 0.25431884E-01 0.66233957E+02</pdfrwt>
<totfact> 0.69980195E+04</totfact>
</mgrwt>
</event>
<event>
 4    1  0.1802450E-001  0.3228473E+02  0.7818608E-02  0.1574125E+00
         -3   -1    0    0    0  501 -0.00000000000E+00  0.00000000000E+00  0.42245356250E+01  0.42255591639E+01  0.93000000000E-01 0.  1.
          3   -1    0    0  501    0  0.00000000000E+00 -0.00000000000E+00 -0.61673035574E+02  0.61673105693E+02  0.93000000000E-01 0. -1.
        -13    1    1    2    0    0  0.15457530005E+02 -0.38729978551E+01 -0.33979801019E+02  0.37530965829E+02  0.10570000000E+00 0. -1.
         13    1    1    2    0    0 -0.15457530005E+02  0.38729978551E+01 -0.23468698929E+02  0.28367699028E+02  0.10570000000E+00 0.  1.
<mgrwt>
<rscale>  0 0.32284731E+02</rscale>
<asrwt>0</asrwt>
<pdfrwt beam="2">  1        3 0.94882428E-02 0.32284731E+02</pdfrwt>
<pdfrwt beam="1">  1       -3 0.65001273E-03 0.32284731E+02</pdfrwt>
<totfact> 0.52648687E+05</totfact>
</mgrwt>
</event>
<event>
 4    1  0.1802450E-001  0.2543513E+02  0.7818608E-02  0.1654830E+00
          3   -1    0    0  501    0  0.00000000000E+00  0.00000000000E+00  0.83605122044E+01  0.83610294414E+01  0.93000000000E-01 0. -1.
         -3   -1    0    0    0  501 -0.00000000000E+00 -0.00000000000E+00 -0.19344053531E+02  0.19344277087E+02  0.93000000000E-01 0.  1.
        -13    1    1    2    0    0  0.88586409609E+01 -0.78466183066E+01 -0.10563570547E+02  0.15863326691E+02  0.10570000000E+00 0.  1.
         13    1    1    2    0    0 -0.88586409609E+01  0.78466183066E+01 -0.41997078030E+00  0.11841979837E+02  0.10570000000E+00 0. -1.
<mgrwt>
<rscale>  0 0.25435130E+02</rscale>
<asrwt>0</asrwt>
<pdfrwt beam="1">  1        3 0.12862896E-02 0.25435130E+02</pdfrwt>
<pdfrwt beam="2">  1       -3 0.29760652E-02 0.25435130E+02</pdfrwt>
<totfact> 0.10227186E+06</totfact>
</mgrwt>
</event>
<event>
 4    1  0.1802450E-001  0.2316325E+02  0.7818608E-02  0.1688877E+00
         -3   -1    0    0    0  501 -0.00000000000E+00  0.00000000000E+00  0.50449486317E+01  0.50458057529E+01  0.93000000000E-01 0. -1.
          3   -1    0    0  501    0  0.00000000000E+00 -0.00000000000E+00 -0.26584593389E+02  0.26584756058E+02  0.93000000000E-01 0.  1.
        -13    1    1    2    0    0  0.59399499761E+00 -0.11488668445E+02 -0.12591964159E+02  0.17056115225E+02  0.10570000000E+00 0. -1.
         13    1    1    2    0    0 -0.59399499761E+00  0.11488668445E+02 -0.89476805984E+01  0.14574446586E+02  0.10570000000E+00 0.  1.
<mgrwt>
<rscale>  0 0.23163250E+02</rscale>
<asrwt>0</asrwt>
<pdfrwt beam="2">  1        3 0.40900158E-02 0.23163250E+02</pdfrwt>
<pdfrwt beam="1">  1       -3 0.77622440E-03 0.23163250E+02</pdfrwt>
<totfact> 0.12451414E+06</totfact>
</mgrwt>
</event>
<event>
 4    1  0.1802450E-001  0.5762910E+02  0.7818608E-02  0.1408059E+00
         -3   -1    0    0    0  501 -0.00000000000E+00  0.00000000000E+00  0.36097316849E+02  0.36097436650E+02  0.93000000000E-01 0.  1.
          3   -1    0    0  501    0  0.00000000000E+00 -0.00000000000E+00 -0.23000856110E+02  0.23001044124E+02  0.93000000000E-01 0. -1.
        -13    1    1    2    0    0  0.27255622190E+02 -0.75192512691E+01  0.12244960415E+02  0.30811658649E+02  0.10570000000E+00 0. -1.
         13    1    1    2    0    0 -0.27255622190E+02  0.75192512691E+01  0.85150032397E+00  0.28286822125E+02  0.10570000000E+00 0.  1.
<mgrwt>
<rscale>  0 0.57629100E+02</rscale>
<asrwt>0</asrwt>
<pdfrwt beam="2">  1        3 0.35386169E-02 0.57629100E+02</pdfrwt>
<pdfrwt beam="1">  1       -3 0.55534570E-02 0.57629100E+02</pdfrwt>
<totfact> 0.12849760E+05</totfact>
</mgrwt>
</event>
<event>
 4    1  0.1802450E-001  0.2116150E+02  0.7818608E-02  0.1723170E+00
         -3   -1    0    0    0  501 -0.00000000000E+00  0.00000000000E+00  0.18168768696E+02  0.18169006713E+02  0.93000000000E-01 0. -1.
          3   -1    0    0  501    0  0.00000000000E+00 -0.00000000000E+00 -0.61611673311E+01  0.61618691873E+01  0.93000000000E-01 0.  1.
        -13    1    1    2    0    0 -0.88969178171E+01 -0.56861841877E+01  0.67778690689E+01  0.12547450692E+02  0.10570000000E+00 0. -1.
         13    1    1    2    0    0  0.88969178171E+01  0.56861841877E+01  0.52297322960E+01  0.11783425208E+02  0.10570000000E+00 0.  1.
<mgrwt>
<rscale>  0 0.21161499E+02</rscale>
<asrwt>0</asrwt>
<pdfrwt beam="2">  1        3 0.94794420E-03 0.21161499E+02</pdfrwt>
<pdfrwt beam="1">  1       -3 0.27952675E-02 0.21161499E+02</pdfrwt>
<totfact> 0.15577198E+06</totfact>
</mgrwt>
</event>
<event>
 4    1  0.1802450E-001  0.2314831E+02  0.7818608E-02  0.1689117E+00
          3   -1    0    0  501    0  0.00000000000E+00  0.00000000000E+00  0.38081061758E+01  0.38092416103E+01  0.93000000000E-01 0.  1.
         -3   -1    0    0    0  501 -0.00000000000E+00 -0.00000000000E+00 -0.35171415405E+02  0.35171538360E+02  0.93000000000E-01 0. -1.
        -13    1    1    2    0    0 -0.17717511681E+01 -0.10982720365E+02 -0.21057304371E+02  0.23815551405E+02  0.10570000000E+00 0. -1.
         13    1    1    2    0    0  0.17717511681E+01  0.10982720365E+02 -0.10306004858E+02  0.15165228565E+02  0.10570000000E+00 0.  1.
<mgrwt>
<rscale>  0 0.23148305E+02</rscale>
<asrwt>0</asrwt>
<pdfrwt beam="1">  1        3 0.58595931E-03 0.23148305E+02</pdfrwt>
<pdfrwt beam="2">  1       -3 0.54110836E-02 0.23148305E+02</pdfrwt>
<totfact> 0.12179458E+06</totfact>
</mgrwt>
</event>
<event>
 4    1  0.1802450E-001  0.2075804E+02  0.7818608E-02  0.1730660E+00
          3   -1    0    0  501    0  0.00000000000E+00  0.00000000000E+00  0.12065554490E+01  0.12101343113E+01  0.93000000000E-01 0. -1.
         -3   -1    0    0    0  501 -0.00000000000E+00 -0.00000000000E+00 -0.89146508596E+02  0.89146557106E+02  0.93000000000E-01 0.  1.
        -13    1    1    2    0    0 -0.47086556376E+01 -0.90446010843E+01 -0.35555718495E+02  0.36989140797E+02  0.10570000000E+00 0. -1.
         13    1    1    2    0    0  0.47086556376E+01  0.90446010843E+01 -0.52384234652E+02  0.53367550621E+02  0.10570000000E+00 0.  1.
<mgrwt>
<rscale>  0 0.20758042E+02</rscale>
<asrwt>0</asrwt>
<pdfrwt beam="1">  1        3 0.18590301E-03 0.20758042E+02</pdfrwt>
<pdfrwt beam="2">  1       -3 0.13715121E-01 0.20758042E+02</pdfrwt>
<totfact> 0.13403412E+06</totfact>
</mgrwt>
</event>
<event>
 4    1  0.1802450E-001  0.2339913E+02  0.7818608E-02  0.1685121E+00
          3   -1    0    0  501    0  0.00000000000E+00  0.00000000000E+00  0.10752338934E+02  0.10752741118E+02  0.93000000000E-01 0. -1.
         -3   -1    0    0    0  501 -0.00000000000E+00 -0.00000000000E+00 -0.12729429283E+02  0.12729769003E+02  0.93000000000E-01 0.  1.
        -13    1    1    2    0    0  0.10823016692E+02  0.24739832335E+01 -0.46909175490E+01  0.12052973214E+02  0.10570000000E+00 0.  1.
         13    1    1    2    0    0 -0.10823016692E+02 -0.24739832335E+01  0.27138271999E+01  0.11429536907E+02  0.10570000000E+00 0. -1.
<mgrwt>
<rscale>  0 0.23399132E+02</rscale>
<asrwt>0</asrwt>
<pdfrwt beam="1">  1        3 0.16542631E-02 0.23399132E+02</pdfrwt>
<pdfrwt beam="2">  1       -3 0.19584308E-02 0.23399132E+02</pdfrwt>
<totfact> 0.12515417E+06</totfact>
</mgrwt>
</event>
<event>
 4    1  0.1802450E-001  0.2035241E+02  0.7818608E-02  0.1738409E+00
          3   -1    0    0  501    0  0.00000000000E+00  0.00000000000E+00  0.13615700607E+02  0.13616018215E+02  0.93000000000E-01 0. -1.
         -3   -1    0    0    0  501 -0.00000000000E+00 -0.00000000000E+00 -0.76048817335E+01  0.76054503601E+01  0.93000000000E-01 0.  1.
        -13    1    1    2    0    0  0.65695487782E+01  0.77247722109E+01  0.38858257455E+01  0.10860105482E+02  0.10570000000E+00 0. -1.
         13    1    1    2    0    0 -0.65695487782E+01 -0.77247722109E+01  0.21249931281E+01  0.10361363093E+02  0.10570000000E+00 0.  1.
<mgrwt>
<rscale>  0 0.20352415E+02</rscale>
<asrwt>0</asrwt>
<pdfrwt beam="1">  1        3 0.20947913E-02 0.20352415E+02</pdfrwt>
<pdfrwt beam="2">  1       -3 0.11700500E-02 0.20352415E+02</pdfrwt>
<totfact> 0.17146166E+06</totfact>
</mgrwt>
</event>
<event>
 4    1  0.1802450E-001  0.2545526E+02  0.7818608E-02  0.1654548E+00
         -3   -1    0    0    0  501 -0.00000000000E+00  0.00000000000E+00  0.10853095928E+02  0.10853494378E+02  0.93000000000E-01 0.  1.
          3   -1    0    0  501    0  0.00000000000E+00 -0.00000000000E+00 -0.14925111125E+02  0.14925400869E+02  0.93000000000E-01 0. -1.
        -13    1    1    2    0    0  0.11504850011E+02 -0.43806507646E+01 -0.53065698401E+01  0.13406063212E+02  0.10570000000E+00 0. -1.
         13    1    1    2    0    0 -0.11504850011E+02  0.43806507646E+01  0.12345546425E+01  0.12372832034E+02  0.10570000000E+00 0.  1.
<mgrwt>
<rscale>  0 0.25455257E+02</rscale>
<asrwt>0</asrwt>
<pdfrwt beam="2">  1        3 0.22962239E-02 0.25455257E+02</pdfrwt>
<pdfrwt beam="1">  1       -3 0.16697600E-02 0.25455257E+02</pdfrwt>
<totfact> 0.10274930E+06</totfact>
</mgrwt>
</event>
<event>
 4    1  0.1802450E-001  0.2829950E+02  0.7818608E-02  0.1617684E+00
         -3   -1    0    0    0  501 -0.00000000000E+00  0.00000000000E+00  0.73409931394E+01  0.73415822050E+01  0.93000000000E-01 0. -1.
          3   -1    0    0  501    0  0.00000000000E+00 -0.00000000000E+00 -0.27271847621E+02  0.27272006190E+02  0.93000000000E-01 0.  1.
        -13    1    1    2    0    0  0.11251944304E+02  0.82983586146E+01 -0.12626994022E+02  0.18839351285E+02  0.10570000000E+00 0.  1.
         13    1    1    2    0    0 -0.11251944304E+02 -0.82983586146E+01 -0.73038604595E+01  0.15774237111E+02  0.10570000000E+00 0. -1.
<mgrwt>
<rscale>  0 0.28299497E+02</rscale>
<asrwt>0</asrwt>
<pdfrwt beam="2">  1        3 0.41957263E-02 0.28299497E+02</pdfrwt>
<pdfrwt beam="1">  1       -3 0.11294411E-02 0.28299497E+02</pdfrwt>
<totfact> 0.78349064E+05</totfact>
</mgrwt>
</event>
<event>
 4    1  0.1802450E-001  0.3787400E+02  0.7818608E-02  0.1524466E+00
          3   -1    0    0  501    0  0.00000000000E+00  0.00000000000E+00  0.22628402220E+02  0.22628593329E+02  0.93000000000E-01 0.  1.
         -3   -1    0    0    0  501 -0.00000000000E+00 -0.00000000000E+00 -0.15847385269E+02  0.15847658151E+02  0.93000000000E-01 0. -1.
        -13    1    1    2    0    0  0.12868340012E+02 -0.78005277929E+01 -0.82882216792E+01  0.17179877753E+02  0.10570000000E+00 0. -1.
         13    1    1    2    0    0 -0.12868340012E+02  0.78005277929E+01  0.15069238630E+02  0.21296373727E+02  0.10570000000E+00 0.  1.
<mgrwt>
<rscale>  0 0.37873998E+02</rscale>
<asrwt>0</asrwt>
<pdfrwt beam="1">  1        3 0.34813283E-02 0.37873998E+02</pdfrwt>
<pdfrwt beam="2">  1       -3 0.24380950E-02 0.37873998E+02</pdfrwt>
<totfact> 0.38842320E+05</totfact>
</mgrwt>
</event>
<event>
 4    1  0.1802450E-001  0.2792660E+02  0.7818608E-02  0.1622207E+00
         -3   -1    0    0    0  501 -0.00000000000E+00  0.00000000000E+00  0.10782285006E+02  0.10782686073E+02  0.93000000000E-01 0.  1.
          3   -1    0    0  501    0  0.00000000000E+00 -0.00000000000E+00 -0.18081923374E+02  0.18082162534E+02  0.93000000000E-01 0. -1.
        -13    1    1    2    0    0  0.13429199863E+02  0.35468327776E+01 -0.21738776399E+01  0.14059173098E+02  0.10570000000E+00 0.  1.
         13    1    1    2    0    0 -0.13429199863E+02 -0.35468327776E+01 -0.51257607288E+01  0.14805675509E+02  0.10570000000E+00 0. -1.
<mgrwt>
<rscale>  0 0.27926596E+02</rscale>
<asrwt>0</asrwt>
<pdfrwt beam="2">  1        3 0.27818836E-02 0.27926596E+02</pdfrwt>
<pdfrwt beam="1">  1       -3 0.16588623E-02 0.27926596E+02</pdfrwt>
<totfact> 0.82286744E+05</totfact>
</mgrwt>
</event>
<event>
 4    1  0.1802450E-001  0.2275268E+02  0.7818608E-02  0.1695551E+00
         -3   -1    0    0    0  501 -0.00000000000E+00  0.00000000000E+00  0.15947053226E+02  0.15947324402E+02  0.93000000000E-01 0. -1.
          3   -1    0    0  501    0  0.00000000000E+00 -0.00000000000E+00 -0.81150693896E+01  0.81156022696E+01  0.93000000000E-01 0.  1.
        -13    1    1    2    0    0  0.10316672485E+02 -0.43630736669E+01  0.60151882955E+01  0.12714708243E+02  0.10570000000E+00 0. -1.
         13    1    1    2    0    0 -0.10316672485E+02  0.43630736669E+01  0.18167955405E+01  0.11348218429E+02  0.10570000000E+00 0.  1.
<mgrwt>
<rscale>  0 0.22752680E+02</rscale>
<asrwt>0</asrwt>
<pdfrwt beam="2">  1        3 0.12485341E-02 0.22752680E+02</pdfrwt>
<pdfrwt beam="1">  1       -3 0.24534546E-02 0.22752680E+02</pdfrwt>
<totfact> 0.13292119E+06</totfact>
</mgrwt>
</event>
<event>
 4    1  0.1802450E-001  0.2718682E+02  0.7818608E-02  0.1631443E+00
         -3   -1    0    0    0  501 -0.00000000000E+00  0.00000000000E+00  0.62254953585E+01  0.62261899633E+01  0.93000000000E-01 0. -1.
          3   -1    0    0  501    0  0.00000000000E+00 -0.00000000000E+00 -0.29678884807E+02  0.29679030516E+02  0.93000000000E-01 0.  1.
        -13    1    1    2    0    0  0.11652259189E+02  0.28682913114E+00 -0.24901830835E+01  0.11919295258E+02  0.10570000000E+00 0. -1.
         13    1    1    2    0    0 -0.11652259189E+02 -0.28682913114E+00 -0.20963206365E+02  0.23985925222E+02  0.10570000000E+00 0.  1.
<mgrwt>
<rscale>  0 0.27186824E+02</rscale>
<asrwt>0</asrwt>
<pdfrwt beam="2">  1        3 0.45660468E-02 0.27186824E+02</pdfrwt>
<pdfrwt beam="1">  1       -3 0.95783317E-03 0.27186824E+02</pdfrwt>
<totfact> 0.85562579E+05</totfact>
</mgrwt>
</event>
<event>
 4    1  0.1802450E-001  0.7179950E+02  0.7818608E-02  0.1354079E+00
         -3   -1    0    0    0  501 -0.00000000000E+00  0.00000000000E+00  0.51675241796E+02  0.51675325482E+02  0.93000000000E-01 0. -1.
          3   -1    0    0  501    0  0.00000000000E+00 -0.00000000000E+00 -0.24940030406E+02  0.24940203801E+02  0.93000000000E-01 0.  1.
        -13    1    1    2    0    0  0.34907771219E+02  0.57340340394E+00  0.44462178440E+01  0.35194620449E+02  0.10570000000E+00 0.  1.
         13    1    1    2    0    0 -0.34907771219E+02 -0.57340340394E+00  0.22288993545E+02  0.41420908834E+02  0.10570000000E+00 0. -1.
<mgrwt>
<rscale>  0 0.71799497E+02</rscale>
<asrwt>0</asrwt>
<pdfrwt beam="2">  1        3 0.38369475E-02 0.71799497E+02</pdfrwt>
<pdfrwt beam="1">  1       -3 0.79500570E-02 0.71799497E+02</pdfrwt>
<totfact> 0.69361105E+04</totfact>
</mgrwt>
</event>
<event>
 4    1  0.1802450E-001  0.2284003E+02  0.7818608E-02  0.1694116E+00
          3   -1    0    0  501    0  0.00000000000E+00  0.00000000000E+00  0.58495274311E+01  0.58502666749E+01  0.93000000000E-01 0.  1.
         -3   -1    0    0    0  501 -0.00000000000E+00 -0.00000000000E+00 -0.22293013106E+02  0.22293207090E+02  0.93000000000E-01 0. -1.
        -13    1    1    2    0    0  0.16749107097E+01 -0.10326950850E+02 -0.13862244867E+02  0.17367332696E+02  0.10570000000E+00 0. -1.
         13    1    1    2    0    0 -0.16749107097E+01  0.10326950850E+02 -0.25812408085E+01  0.10776141069E+02  0.10570000000E+00 0.  1.
<mgrwt>
<rscale>  0 0.22840028E+02</rscale>
<asrwt>0</asrwt>
<pdfrwt beam="1">  1        3 0.89999910E-03 0.22840028E+02</pdfrwt>
<pdfrwt beam="2">  1       -3 0.34297660E-02 0.22840028E+02</pdfrwt>
<totfact> 0.12996653E+06</totfact>
</mgrwt>
</event>
<event>
 4    1  0.1802450E-001  0.2159221E+02  0.7818608E-02  0.1715401E+00
         -3   -1    0    0    0  501 -0.00000000000E+00  0.00000000000E+00  0.28871938613E+01  0.28886912942E+01  0.93000000000E-01 0. -1.
          3   -1    0    0  501    0  0.00000000000E+00 -0.00000000000E+00 -0.40357934870E+02  0.40358042023E+02  0.93000000000E-01 0.  1.
        -13    1    1    2    0    0  0.27101297256E+01  0.97607023695E+01 -0.11260394178E+02  0.15146741016E+02  0.10570000000E+00 0.  1.
         13    1    1    2    0    0 -0.27101297256E+01 -0.97607023695E+01 -0.26210346831E+02  0.28099992302E+02  0.10570000000E+00 0. -1.
<mgrwt>
<rscale>  0 0.21592209E+02</rscale>
<asrwt>0</asrwt>
<pdfrwt beam="2">  1        3 0.62090361E-02 0.21592209E+02</pdfrwt>
<pdfrwt beam="1">  1       -3 0.44430713E-03 0.21592209E+02</pdfrwt>
<totfact> 0.14008509E+06</totfact>
</mgrwt>
</event>
<event>
 4    1  0.1802450E-001  0.2458116E+02  0.7818608E-02  0.1667092E+00
          3   -1    0    0  501    0  0.00000000000E+00  0.00000000000E+00  0.17545455457E+02  0.17545701930E+02  0.93000000000E-01 0. -1.
         -3   -1    0    0    0  501 -0.00000000000E+00 -0.00000000000E+00 -0.86089816429E+01  0.86094839525E+01  0.93000000000E-01 0.  1.
        -13    1    1    2    0    0  0.76481806510E+01  0.96191723335E+01  0.43034663990E+01  0.13021295603E+02  0.10570000000E+00 0.  1.
         13    1    1    2    0    0 -0.76481806510E+01 -0.96191723335E+01  0.46330074153E+01  0.13133890279E+02  0.10570000000E+00 0. -1.
<mgrwt>
<rscale>  0 0.24581155E+02</rscale>
<asrwt>0</asrwt>
<pdfrwt beam="1">  1        3 0.26993584E-02 0.24581155E+02</pdfrwt>
<pdfrwt beam="2">  1       -3 0.13245163E-02 0.24581155E+02</pdfrwt>
<totfact> 0.11105752E+06</totfact>
</mgrwt>
</event>
<event>
 4    1  0.1802450E-001  0.2760315E+02  0.7818608E-02  0.1626202E+00
          3   -1    0    0  501    0  0.00000000000E+00  0.00000000000E+00  0.25225107734E+01  0.25242245545E+01  0.93000000000E-01 0. -1.
         -3   -1    0    0    0  501 -0.00000000000E+00 -0.00000000000E+00 -0.75486035093E+02  0.75486092382E+02  0.93000000000E-01 0.  1.
        -13    1    1    2    0    0  0.11593488762E+02  0.37353178961E+01 -0.54821346963E+02  0.56158283777E+02  0.10570000000E+00 0. -1.
         13    1    1    2    0    0 -0.11593488762E+02 -0.37353178961E+01 -0.18142177357E+02  0.21852033160E+02  0.10570000000E+00 0.  1.
<mgrwt>
<rscale>  0 0.27603146E+02</rscale>
<asrwt>0</asrwt>
<pdfrwt beam="1">  1        3 0.38821487E-03 0.27603146E+02</pdfrwt>
<pdfrwt beam="2">  1       -3 0.11613371E-01 0.27603146E+02</pdfrwt>
<totfact> 0.73340985E+05</totfact>
</mgrwt>
</event>
<event>
 4    1  0.1802450E-001  0.2412809E+02  0.7818608E-02  0.1673851E+00
          3   -1    0    0  501    0  0.00000000000E+00  0.00000000000E+00  0.16082560395E+02  0.16082829286E+02  0.93000000000E-01 0.  1.
         -3   -1    0    0    0  501 -0.00000000000E+00 -0.00000000000E+00 -0.90490405002E+01  0.90495183835E+01  0.93000000000E-01 0. -1.
        -13    1    1    2    0    0  0.11740294291E+02 -0.11969368656E+01  0.91004276450E+00  0.11836659927E+02  0.10570000000E+00 0. -1.
         13    1    1    2    0    0 -0.11740294291E+02  0.11969368656E+01  0.61234771302E+01  0.13295687743E+02  0.10570000000E+00 0.  1.
<mgrwt>
<rscale>  0 0.24128085E+02</rscale>
<asrwt>0</asrwt>
<pdfrwt beam="1">  1        3 0.24742975E-02 0.24128085E+02</pdfrwt>
<pdfrwt beam="2">  1       -3 0.13922175E-02 0.24128085E+02</pdfrwt>
<totfact> 0.11620044E+06</totfact>
</mgrwt>
</event>
<event>
 4    1  0.1802450E-001  0.2635145E+02  0.7818608E-02  0.1642316E+00
          3   -1    0    0  501    0  0.00000000000E+00  0.00000000000E+00  0.45178095589E+01  0.45187666691E+01  0.93000000000E-01 0.  1.
         -3   -1    0    0    0  501 -0.00000000000E+00 -0.00000000000E+00 -0.38420568435E+02  0.38420680992E+02  0.93000000000E-01 0. -1.
        -13    1    1    2    0    0 -0.96121812737E+01  0.65357801827E+01 -0.27059233977E+02  0.29450361073E+02  0.10570000000E+00 0. -1.
         13    1    1    2    0    0  0.96121812737E+01 -0.65357801827E+01 -0.68435248994E+01  0.13489086588E+02  0.10570000000E+00 0.  1.
<mgrwt>
<rscale>  0 0.26351454E+02</rscale>
<asrwt>0</asrwt>
<pdfrwt beam="1">  1        3 0.69512993E-03 0.26351454E+02</pdfrwt>
<pdfrwt beam="2">  1       -3 0.59109388E-02 0.26351454E+02</pdfrwt>
<totfact> 0.89916861E+05</totfact>
</mgrwt>
</event>
<event>
 4    1  0.1802450E-001  0.2648211E+02  0.7818608E-02  0.1640583E+00
          3   -1    0    0  501    0  0.00000000000E+00  0.00000000000E+00  0.10240665552E+03  0.10240669775E+03  0.93000000000E-01 0.  1.
         -3   -1    0    0    0  501 -0.00000000000E+00 -0.00000000000E+00 -0.17107465186E+01  0.17132724976E+01  0.93000000000E-01 0. -1.
        -13    1    1    2    0    0 -0.42937685853E+01  0.11987352285E+02  0.36073469038E+02  0.38254926537E+02  0.10570000000E+00 0. -1.
         13    1    1    2    0    0  0.42937685853E+01 -0.11987352285E+02  0.64622439962E+02  0.65865043707E+02  0.10570000000E+00 0.  1.
<mgrwt>
<rscale>  0 0.26482109E+02</rscale>
<asrwt>0</asrwt>
<pdfrwt beam="1">  1        3 0.15755065E-01 0.26482109E+02</pdfrwt>
<pdfrwt beam="2">  1       -3 0.26338936E-03 0.26482109E+02</pdfrwt>
<totfact> 0.75509794E+05</totfact>
</mgrwt>
</event>
<event>
 4    1  0.1802450E-001  0.3075853E+02  0.7818608E-02  0.1589852E+00
         -3   -1    0    0    0  501 -0.00000000000E+00  0.00000000000E+00  0.31629310450E+01  0.31642979941E+01  0.93000000000E-01 0.  1.
          3   -1    0    0  501    0  0.00000000000E+00 -0.00000000000E+00 -0.74761745610E+02  0.74761803454E+02  0.93000000000E-01 0. -1.
        -13    1    1    2    0    0  0.13338654859E+02 -0.75530346581E+01 -0.32652848670E+02  0.36071980050E+02  0.10570000000E+00 0. -1.
         13    1    1    2    0    0 -0.13338654859E+02  0.75530346581E+01 -0.38945965895E+02  0.41854121398E+02  0.10570000000E+00 0.  1.
<mgrwt>
<rscale>  0 0.30758528E+02</rscale>
<asrwt>0</asrwt>
<pdfrwt beam="2">  1        3 0.11501915E-01 0.30758528E+02</pdfrwt>
<pdfrwt beam="1">  1       -3 0.48671443E-03 0.30758528E+02</pdfrwt>
<totfact> 0.57135210E+05</totfact>
</mgrwt>
</event>
<event>
 4    1  0.1802450E-001  0.2034129E+02  0.7818608E-02  0.1738625E+00
          3   -1    0    0  501    0  0.00000000000E+00  0.00000000000E+00  0.42535344876E+01  0.42545510500E+01  0.93000000000E-01 0. -1.
         -3   -1    0    0    0  501 -0.00000000000E+00 -0.00000000000E+00 -0.24315072047E+02  0.24315249899E+02  0.93000000000E-01 0.  1.
        -13    1    1    2    0    0  0.96873082593E+01  0.29783649847E+01 -0.88420686293E+01  0.13450202579E+02  0.10570000000E+00 0. -1.
         13    1    1    2    0    0 -0.96873082593E+01 -0.29783649847E+01 -0.11219468930E+02  0.15119598370E+02  0.10570000000E+00 0.  1.
<mgrwt>
<rscale>  0 0.20341294E+02</rscale>
<asrwt>0</asrwt>
<pdfrwt beam="1">  1        3 0.65448181E-03 0.20341294E+02</pdfrwt>
<pdfrwt beam="2">  1       -3 0.37408721E-02 0.20341294E+02</pdfrwt>
<totfact> 0.16729919E+06</totfact>
</mgrwt>
</event>
<event>
 4    1  0.1802450E-001  0.2450724E+02  0.7818608E-02  0.1668182E+00
         -3   -1    0    0    0  501 -0.00000000000E+00  0.00000000000E+00  0.40664528742E+01  0.40675161927E+01  0.93000000000E-01 0.  1.
          3   -1    0    0  501    0  0.00000000000E+00 -0.00000000000E+00 -0.36918407987E+02  0.36918525124E+02  0.93000000000E-01 0. -1.
        -13    1    1    2    0    0  0.21758310671E+01 -0.12044278146E+02 -0.17402736392E+02  0.21275932020E+02  0.10570000000E+00 0. -1.
         13    1    1    2    0    0 -0.21758310671E+01  0.12044278146E+02 -0.15449218721E+02  0.19710109297E+02  0.10570000000E+00 0.  1.
<mgrwt>
<rscale>  0 0.24507236E+02</rscale>
<asrwt>0</asrwt>
<pdfrwt beam="2">  1        3 0.56798456E-02 0.24507236E+02</pdfrwt>
<pdfrwt beam="1">  1       -3 0.62569896E-03 0.24507236E+02</pdfrwt>
<totfact> 0.10657476E+06</totfact>
</mgrwt>
</event>
<event>
 4    1  0.1802450E-001  0.3253779E+02  0.7818608E-02  0.1571620E+00
          3   -1    0    0  501    0  0.00000000000E+00  0.00000000000E+00  0.36820927721E+01  0.36832670529E+01  0.93000000000E-01 0. -1.
         -3   -1    0    0    0  501 -0.00000000000E+00 -0.00000000000E+00 -0.71869545810E+02  0.71869605982E+02  0.93000000000E-01 0.  1.
        -13    1    1    2    0    0  0.89054698701E+01 -0.11457848565E+02 -0.17018533303E+02  0.22365851998E+02  0.10570000000E+00 0. -1.
         13    1    1    2    0    0 -0.89054698701E+01  0.11457848565E+02 -0.51168919736E+02  0.53187021037E+02  0.10570000000E+00 0.  1.
<mgrwt>
<rscale>  0 0.32537791E+02</rscale>
<asrwt>0</asrwt>
<pdfrwt beam="1">  1        3 0.56657082E-03 0.32537791E+02</pdfrwt>
<pdfrwt beam="2">  1       -3 0.11056947E-01 0.32537791E+02</pdfrwt>
<totfact> 0.50399136E+05</totfact>
</mgrwt>
</event>
<event>
 4    1  0.1802450E-001  0.4101792E+02  0.7818608E-02  0.1500851E+00
          3   -1    0    0  501    0  0.00000000000E+00  0.00000000000E+00  0.57062360314E+02  0.57062436099E+02  0.93000000000E-01 0.  1.
         -3   -1    0    0    0  501 -0.00000000000E+00 -0.00000000000E+00 -0.73708161346E+01  0.73714028170E+01  0.93000000000E-01 0. -1.
        -13    1    1    2    0    0 -0.71759463440E+01 -0.16279637089E+02  0.40872156346E+02  0.44576508685E+02  0.10570000000E+00 0.  1.
         13    1    1    2    0    0  0.71759463440E+01  0.16279637089E+02  0.88193878330E+01  0.19857330231E+02  0.10570000000E+00 0. -1.
<mgrwt>
<rscale>  0 0.41017923E+02</rscale>
<asrwt>0</asrwt>
<pdfrwt beam="1">  1        3 0.87788755E-02 0.41017923E+02</pdfrwt>
<pdfrwt beam="2">  1       -3 0.11340227E-02 0.41017923E+02</pdfrwt>
<totfact> 0.29760550E+05</totfact>
</mgrwt>
</event>
<event>
 4    1  0.1802450E-001  0.6446651E+02  0.7818608E-02  0.1379990E+00
         -3   -1    0    0    0  501 -0.00000000000E+00  0.00000000000E+00  0.45986904091E+01  0.45996306894E+01  0.93000000000E-01 0.  1.
          3   -1    0    0  501    0  0.00000000000E+00 -0.00000000000E+00 -0.22590605340E+03  0.22590607254E+03  0.93000000000E-01 0. -1.
        -13    1    1    2    0    0  0.20067386408E+01  0.31705052760E+02 -0.13015098110E+03  0.13397211062E+03  0.10570000000E+00 0. -1.
         13    1    1    2    0    0 -0.20067386408E+01 -0.31705052760E+02 -0.91156381894E+02  0.96533592615E+02  0.10570000000E+00 0.  1.
<mgrwt>
<rscale>  0 0.64466505E+02</rscale>
<asrwt>0</asrwt>
<pdfrwt beam="2">  1        3 0.34754843E-01 0.64466505E+02</pdfrwt>
<pdfrwt beam="1">  1       -3 0.70756481E-03 0.64466505E+02</pdfrwt>
<totfact> 0.67290125E+04</totfact>
</mgrwt>
</event>
<event>
 4    1  0.1802450E-001  0.2180711E+02  0.7818608E-02  0.1711609E+00
          3   -1    0    0  501    0  0.00000000000E+00  0.00000000000E+00  0.67670779207E+02  0.67670843112E+02  0.93000000000E-01 0. -1.
         -3   -1    0    0    0  501 -0.00000000000E+00 -0.00000000000E+00 -0.17555561164E+01  0.17580177126E+01  0.93000000000E-01 0.  1.
        -13    1    1    2    0    0  0.62970732207E+01 -0.88309136570E+01  0.36500307458E+02  0.38077838492E+02  0.10570000000E+00 0. -1.
         13    1    1    2    0    0 -0.62970732207E+01  0.88309136570E+01  0.29414915633E+02  0.31351022333E+02  0.10570000000E+00 0.  1.
<mgrwt>
<rscale>  0 0.21807111E+02</rscale>
<asrwt>0</asrwt>
<pdfrwt beam="1">  1        3 0.10411081E-01 0.21807111E+02</pdfrwt>
<pdfrwt beam="2">  1       -3 0.27027988E-03 0.21807111E+02</pdfrwt>
<totfact> 0.12711445E+06</totfact>
</mgrwt>
</event>
<event>
 4    1  0.1802450E-001  0.5491360E+02  0.7818608E-02  0.1420508E+00
          3   -1    0    0  501    0  0.00000000000E+00  0.00000000000E+00  0.13534495728E+03  0.13534498923E+03  0.93000000000E-01 0.  1.
         -3   -1    0    0    0  501 -0.00000000000E+00 -0.00000000000E+00 -0.55696125001E+01  0.55703888913E+01  0.93000000000E-01 0. -1.
        -13    1    1    2    0    0 -0.18236195045E+02 -0.16547352945E+02  0.96052253208E+02  0.99158560992E+02  0.10570000000E+00 0.  1.
         13    1    1    2    0    0  0.18236195045E+02  0.16547352945E+02  0.33723091568E+02  0.41756817127E+02  0.10570000000E+00 0. -1.
<mgrwt>
<rscale>  0 0.54913602E+02</rscale>
<asrwt>0</asrwt>
<pdfrwt beam="1">  1        3 0.20822364E-01 0.54913602E+02</pdfrwt>
<pdfrwt beam="2">  1       -3 0.85692562E-03 0.54913602E+02</pdfrwt>
<totfact> 0.12047506E+05</totfact>
</mgrwt>
</event>
<event>
 4    1  0.1802450E-001  0.3049343E+02  0.7818608E-02  0.1592698E+00
         -3   -1    0    0    0  501 -0.00000000000E+00  0.00000000000E+00  0.30984613596E+01  0.30998567382E+01  0.93000000000E-01 0. -1.
          3   -1    0    0  501    0  0.00000000000E+00 -0.00000000000E+00 -0.75006783721E+02  0.75006841375E+02  0.93000000000E-01 0.  1.
        -13    1    1    2    0    0 -0.11355753197E+02  0.96299642748E+00 -0.61895573583E+02  0.62936108034E+02  0.10570000000E+00 0.  1.
         13    1    1    2    0    0  0.11355753197E+02 -0.96299642748E+00 -0.10012748778E+02  0.15170590080E+02  0.10570000000E+00 0. -1.
<mgrwt>
<rscale>  0 0.30493433E+02</rscale>
<asrwt>0</asrwt>
<pdfrwt beam="2">  1        3 0.11539616E-01 0.30493433E+02</pdfrwt>
<pdfrwt beam="1">  1       -3 0.47679819E-03 0.30493433E+02</pdfrwt>
<totfact> 0.58272492E+05</totfact>
</mgrwt>
</event>
<event>
 4    1  0.1802450E-001  0.6990593E+02  0.7818608E-02  0.1360413E+00
         -3   -1    0    0    0  501 -0.00000000000E+00  0.00000000000E+00  0.97470123092E+02  0.97470167460E+02  0.93000000000E-01 0.  1.
          3   -1    0    0  501    0  0.00000000000E+00 -0.00000000000E+00 -0.12533977515E+02  0.12534322533E+02  0.93000000000E-01 0. -1.
        -13    1    1    2    0    0 -0.32918501886E+02 -0.11054581255E+02  0.36199850478E+02  0.50162454887E+02  0.10570000000E+00 0. -1.
         13    1    1    2    0    0  0.32918501886E+02  0.11054581255E+02  0.48736295098E+02  0.59842035105E+02  0.10570000000E+00 0.  1.
<mgrwt>
<rscale>  0 0.69905930E+02</rscale>
<asrwt>0</asrwt>
<pdfrwt beam="2">  1        3 0.19283342E-02 0.69905930E+02</pdfrwt>
<pdfrwt beam="1">  1       -3 0.14995434E-01 0.69905930E+02</pdfrwt>
<totfact> 0.69029506E+04</totfact>
</mgrwt>
</event>
<event>
 4    1  0.1802450E-001  0.2741951E+02  0.7818608E-02  0.1628499E+00
          3   -1    0    0  501    0  0.00000000000E+00  0.00000000000E+00  0.92535407494E+01  0.92540080723E+01  0.93000000000E-01 0.  1.
         -3   -1    0    0    0  501 -0.00000000000E+00 -0.00000000000E+00 -0.20310850242E+02  0.20311063156E+02  0.93000000000E-01 0. -1.
        -13    1    1    2    0    0  0.78346302301E+01  0.11148222612E+02 -0.38998677937E+01  0.14173370790E+02  0.10570000000E+00 0.  1.
         13    1    1    2    0    0 -0.78346302301E+01 -0.11148222612E+02 -0.71574416986E+01  0.15391700439E+02  0.10570000000E+00 0. -1.
<mgrwt>
<rscale>  0 0.27419507E+02</rscale>
<asrwt>0</asrwt>
<pdfrwt beam="1">  1        3 0.14236740E-02 0.27419507E+02</pdfrwt>
<pdfrwt beam="2">  1       -3 0.31247985E-02 0.27419507E+02</pdfrwt>
<totfact> 0.85634148E+05</totfact>
</mgrwt>
</event>
<event>
 4    1  0.1802450E-001  0.2470885E+02  0.7818608E-02  0.1665219E+00
          3   -1    0    0  501    0  0.00000000000E+00  0.00000000000E+00  0.54556604320E+02  0.54556683586E+02  0.93000000000E-01 0. -1.
         -3   -1    0    0    0  501 -0.00000000000E+00 -0.00000000000E+00 -0.27968247642E+01  0.27983705547E+01  0.93000000000E-01 0.  1.
        -13    1    1    2    0    0 -0.11527682845E+02 -0.44054770651E+01  0.27203180046E+02  0.29871723704E+02  0.10570000000E+00 0. -1.
         13    1    1    2    0    0  0.11527682845E+02  0.44054770651E+01  0.24556599509E+02  0.27483330437E+02  0.10570000000E+00 0.  1.
<mgrwt>
<rscale>  0 0.24708854E+02</rscale>
<asrwt>0</asrwt>
<pdfrwt beam="1">  1        3 0.83934494E-02 0.24708854E+02</pdfrwt>
<pdfrwt beam="2">  1       -3 0.43040570E-03 0.24708854E+02</pdfrwt>
<totfact> 0.99682949E+05</totfact>
</mgrwt>
</event>
<event>
 4    1  0.1802450E-001  0.3538499E+02  0.7818608E-02  0.1545208E+00
         -3   -1    0    0    0  501 -0.00000000000E+00  0.00000000000E+00  0.10683719361E+02  0.10684124128E+02  0.93000000000E-01 0. -1.
          3   -1    0    0  501    0  0.00000000000E+00 -0.00000000000E+00 -0.29298156505E+02  0.29298304108E+02  0.93000000000E-01 0.  1.
        -13    1    1    2    0    0 -0.17441177564E+02 -0.52724742735E+00 -0.12609327917E+02  0.21528562137E+02  0.10570000000E+00 0.  1.
         13    1    1    2    0    0  0.17441177564E+02  0.52724742735E+00 -0.60051092272E+01  0.18453866099E+02  0.10570000000E+00 0. -1.
<mgrwt>
<rscale>  0 0.35384987E+02</rscale>
<asrwt>0</asrwt>
<pdfrwt beam="2">  1        3 0.45074511E-02 0.35384987E+02</pdfrwt>
<pdfrwt beam="1">  1       -3 0.16436916E-02 0.35384987E+02</pdfrwt>
<totfact> 0.45565433E+05</totfact>
</mgrwt>
</event>
<event>
 4    1  0.1802450E-001  0.3033606E+02  0.7818608E-02  0.1594403E+00
          3   -1    0    0  501    0  0.00000000000E+00  0.00000000000E+00  0.51516357163E+01  0.51524750900E+01  0.93000000000E-01 0. -1.
         -3   -1    0    0    0  501 -0.00000000000E+00 -0.00000000000E+00 -0.44654899594E+02  0.44654996436E+02  0.93000000000E-01 0.  1.
        -13    1    1    2    0    0 -0.11263726524E+02  0.34788555531E+01 -0.40820906613E+01  0.12475921121E+02  0.10570000000E+00 0. -1.
         13    1    1    2    0    0  0.11263726524E+02 -0.34788555531E+01 -0.35421173216E+02  0.37331550405E+02  0.10570000000E+00 0.  1.
<mgrwt>
<rscale>  0 0.30336057E+02</rscale>
<asrwt>0</asrwt>
<pdfrwt beam="1">  1        3 0.79263139E-03 0.30336057E+02</pdfrwt>
<pdfrwt beam="2">  1       -3 0.68700563E-02 0.30336057E+02</pdfrwt>
<totfact> 0.63711636E+05</totfact>
</mgrwt>
</event>
<event>
 4    1  0.1802450E-001  0.8427399E+02  0.7818608E-02  0.1317342E+00
          3   -1    0    0  501    0  0.00000000000E+00  0.00000000000E+00  0.39279637131E+02  0.39279747226E+02  0.93000000000E-01 0. -1.
         -3   -1    0    0    0  501 -0.00000000000E+00 -0.00000000000E+00 -0.45201990284E+02  0.45202085954E+02  0.93000000000E-01 0.  1.
        -13    1    1    2    0    0 -0.31589763891E+02 -0.17455016503E+02  0.18839284050E+02  0.40712658717E+02  0.10570000000E+00 0. -1.
         13    1    1    2    0    0  0.31589763891E+02  0.17455016503E+02 -0.24761637203E+02  0.43769174464E+02  0.10570000000E+00 0.  1.
<mgrwt>
<rscale>  0 0.84273993E+02</rscale>
<asrwt>0</asrwt>
<pdfrwt beam="1">  1        3 0.60430369E-02 0.84273993E+02</pdfrwt>
<pdfrwt beam="2">  1       -3 0.69541682E-02 0.84273993E+02</pdfrwt>
<totfact> 0.44392838E+04</totfact>
</mgrwt>
</event>
<event>
 4    1  0.1802450E-001  0.3735429E+02  0.7818608E-02  0.1528635E+00
         -3   -1    0    0    0  501 -0.00000000000E+00  0.00000000000E+00  0.67246432799E+02  0.67246497107E+02  0.93000000000E-01 0.  1.
          3   -1    0    0  501    0  0.00000000000E+00 -0.00000000000E+00 -0.51869401984E+01  0.51877738599E+01  0.93000000000E-01 0. -1.
        -13    1    1    2    0    0 -0.11863625209E+02  0.10907650470E+02  0.12725676803E+02  0.20534762342E+02  0.10570000000E+00 0. -1.
         13    1    1    2    0    0  0.11863625209E+02 -0.10907650470E+02  0.49333815798E+02  0.51899508625E+02  0.10570000000E+00 0.  1.
<mgrwt>
<rscale>  0 0.37354290E+02</rscale>
<asrwt>0</asrwt>
<pdfrwt beam="2">  1        3 0.79805992E-03 0.37354290E+02</pdfrwt>
<pdfrwt beam="1">  1       -3 0.10345673E-01 0.37354290E+02</pdfrwt>
<totfact> 0.36579708E+05</totfact>
</mgrwt>
</event>
<event>
 4    1  0.1802450E-001  0.4387068E+02  0.7818608E-02  0.1481517E+00
          3   -1    0    0  501    0  0.00000000000E+00  0.00000000000E+00  0.31997956698E+01  0.32011468771E+01  0.93000000000E-01 0. -1.
         -3   -1    0    0    0  501 -0.00000000000E+00 -0.00000000000E+00 -0.15033873929E+03  0.15033876806E+03  0.93000000000E-01 0.  1.
        -13    1    1    2    0    0 -0.12782840461E+02  0.17082453003E+02 -0.55745473365E+02  0.59689029009E+02  0.10570000000E+00 0. -1.
         13    1    1    2    0    0  0.12782840461E+02 -0.17082453003E+02 -0.91393470259E+02  0.93850885928E+02  0.10570000000E+00 0.  1.
<mgrwt>
<rscale>  0 0.43870682E+02</rscale>
<asrwt>0</asrwt>
<pdfrwt beam="1">  1        3 0.49238253E-03 0.43870682E+02</pdfrwt>
<pdfrwt beam="2">  1       -3 0.23129137E-01 0.43870682E+02</pdfrwt>
<totfact> 0.20545248E+05</totfact>
</mgrwt>
</event>
<event>
 4    1  0.1802450E-001  0.2469932E+02  0.7818608E-02  0.1665359E+00
          3   -1    0    0  501    0  0.00000000000E+00  0.00000000000E+00  0.44738696621E+01  0.44748361706E+01  0.93000000000E-01 0. -1.
         -3   -1    0    0    0  501 -0.00000000000E+00 -0.00000000000E+00 -0.34085250636E+02  0.34085377509E+02  0.93000000000E-01 0.  1.
        -13    1    1    2    0    0 -0.10698301465E+02 -0.31474310123E+01 -0.65236197330E+01  0.12920091452E+02  0.10570000000E+00 0. -1.
         13    1    1    2    0    0  0.10698301465E+02  0.31474310123E+01 -0.23087761241E+02  0.25640122228E+02  0.10570000000E+00 0.  1.
<mgrwt>
<rscale>  0 0.24699316E+02</rscale>
<asrwt>0</asrwt>
<pdfrwt beam="1">  1        3 0.68837177E-03 0.24699316E+02</pdfrwt>
<pdfrwt beam="2">  1       -3 0.52439686E-02 0.24699316E+02</pdfrwt>
<totfact> 0.10552262E+06</totfact>
</mgrwt>
</event>
<event>
 4    1  0.1802450E-001  0.5007054E+02  0.7818608E-02  0.1444961E+00
         -3   -1    0    0    0  501 -0.00000000000E+00  0.00000000000E+00  0.13754478794E+02  0.13754793197E+02  0.93000000000E-01 0.  1.
          3   -1    0    0  501    0  0.00000000000E+00 -0.00000000000E+00 -0.45567167919E+02  0.45567262823E+02  0.93000000000E-01 0. -1.
        -13    1    1    2    0    0  0.35303850413E+01 -0.21647217453E+02 -0.16060246804E+01  0.21992183379E+02  0.10570000000E+00 0. -1.
         13    1    1    2    0    0 -0.35303850413E+01  0.21647217453E+02 -0.30206664445E+02  0.37329872641E+02  0.10570000000E+00 0.  1.
<mgrwt>
<rscale>  0 0.50070542E+02</rscale>
<asrwt>0</asrwt>
<pdfrwt beam="2">  1        3 0.70103649E-02 0.50070542E+02</pdfrwt>
<pdfrwt beam="1">  1       -3 0.21161052E-02 0.50070542E+02</pdfrwt>
<totfact> 0.18377762E+05</totfact>
</mgrwt>
</event>
<event>
 4    1  0.1802450E-001  0.2252190E+02  0.7818608E-02  0.1699379E+00
          3   -1    0    0  501    0  0.00000000000E+00  0.00000000000E+00  0.14683667796E+01  0.14713089408E+01  0.93000000000E-01 0. -1.
         -3   -1    0    0    0  501 -0.00000000000E+00 -0.00000000000E+00 -0.86271174450E+02  0.86271224577E+02  0.93000000000E-01 0.  1.
        -13    1    1    2    0    0  0.99884972638E+01  0.51983591585E+01 -0.42671649858E+02  0.44132458459E+02  0.10570000000E+00 0.  1.
         13    1    1    2    0    0 -0.99884972638E+01 -0.51983591585E+01 -0.42131157813E+02  0.43610075059E+02  0.10570000000E+00 0. -1.
<mgrwt>
<rscale>  0 0.22521900E+02</rscale>
<asrwt>0</asrwt>
<pdfrwt beam="1">  1        3 0.22613282E-03 0.22521900E+02</pdfrwt>
<pdfrwt beam="2">  1       -3 0.13272715E-01 0.22521900E+02</pdfrwt>
<totfact> 0.11290783E+06</totfact>
</mgrwt>
</event>
<event>
 4    1  0.1802450E-001  0.8543803E+02  0.7818608E-02  0.1314291E+00
          3   -1    0    0  501    0  0.00000000000E+00  0.00000000000E+00  0.16592654174E+03  0.16592656780E+03  0.93000000000E-01 0. -1.
         -3   -1    0    0    0  501 -0.00000000000E+00 -0.00000000000E+00 -0.10998103589E+02  0.10998496786E+02  0.93000000000E-01 0.  1.
        -13    1    1    2    0    0 -0.37473179108E+02 -0.18983720685E+02  0.93542270459E+02  0.10254164197E+03  0.10570000000E+00 0. -1.
         13    1    1    2    0    0  0.37473179108E+02  0.18983720685E+02  0.61386167693E+02  0.74383422615E+02  0.10570000000E+00 0.  1.
<mgrwt>
<rscale>  0 0.85438033E+02</rscale>
<asrwt>0</asrwt>
<pdfrwt beam="1">  1        3 0.25527195E-01 0.85438033E+02</pdfrwt>
<pdfrwt beam="2">  1       -3 0.16920480E-02 0.85438033E+02</pdfrwt>
<totfact> 0.35414974E+04</totfact>
</mgrwt>
</event>
<event>
 4    1  0.1802450E-001  0.3504877E+03  0.7818608E-02  0.1062415E+00
          3   -1    0    0  501    0  0.00000000000E+00  0.00000000000E+00  0.54073834483E+03  0.54073835283E+03  0.93000000000E-01 0. -1.
         -3   -1    0    0    0  501 -0.00000000000E+00 -0.00000000000E+00 -0.56793439173E+02  0.56793515318E+02  0.93000000000E-01 0.  1.
        -13    1    1    2    0    0 -0.11736505094E+03  0.17186978775E+02  0.22049350305E+02  0.12064879794E+03  0.10570000000E+00 0.  1.
         13    1    1    2    0    0  0.11736505094E+03 -0.17186978775E+02  0.46189555535E+03  0.47688307021E+03  0.10570000000E+00 0. -1.
<mgrwt>
<rscale>  0 0.35048775E+03</rscale>
<asrwt>0</asrwt>
<pdfrwt beam="1">  1        3 0.83190522E-01 0.35048775E+03</pdfrwt>
<pdfrwt beam="2">  1       -3 0.87374585E-02 0.35048775E+03</pdfrwt>
<totfact> 0.32674565E+02</totfact>
</mgrwt>
</event>
<event>
 4    1  0.1802450E-001  0.5436564E+02  0.7818608E-02  0.1423123E+00
          3   -1    0    0  501    0  0.00000000000E+00  0.00000000000E+00  0.13646239732E+02  0.13646556629E+02  0.93000000000E-01 0. -1.
         -3   -1    0    0    0  501 -0.00000000000E+00 -0.00000000000E+00 -0.54146225370E+02  0.54146305237E+02  0.93000000000E-01 0.  1.
        -13    1    1    2    0    0 -0.94290843841E+01  0.72171146571E+01  0.10241157143E+02  0.15680779586E+02  0.10570000000E+00 0. -1.
         13    1    1    2    0    0  0.94290843841E+01 -0.72171146571E+01 -0.50741142781E+02  0.52112082279E+02  0.10570000000E+00 0.  1.
<mgrwt>
<rscale>  0 0.54365644E+02</rscale>
<asrwt>0</asrwt>
<pdfrwt beam="1">  1        3 0.20994520E-02 0.54365644E+02</pdfrwt>
<pdfrwt beam="2">  1       -3 0.83302189E-02 0.54365644E+02</pdfrwt>
<totfact> 0.14597304E+05</totfact>
</mgrwt>
</event>
<event>
 4    1  0.1802450E-001  0.2275818E+02  0.7818608E-02  0.1695460E+00
          3   -1    0    0  501    0  0.00000000000E+00  0.00000000000E+00  0.10535857738E+03  0.10535861843E+03  0.93000000000E-01 0.  1.
         -3   -1    0    0    0  501 -0.00000000000E+00 -0.00000000000E+00 -0.12271807184E+01  0.12306996042E+01  0.93000000000E-01 0. -1.
        -13    1    1    2    0    0  0.25637375360E+01 -0.11006578394E+02  0.58270392177E+02  0.59356274269E+02  0.10570000000E+00 0.  1.
         13    1    1    2    0    0 -0.25637375360E+01  0.11006578394E+02  0.45861004485E+02  0.47233043761E+02  0.10570000000E+00 0. -1.
<mgrwt>
<rscale>  0 0.22758184E+02</rscale>
<asrwt>0</asrwt>
<pdfrwt beam="1">  1        3 0.16209283E-01 0.22758184E+02</pdfrwt>
<pdfrwt beam="2">  1       -3 0.18907091E-03 0.22758184E+02</pdfrwt>
<totfact> 0.10533039E+06</totfact>
</mgrwt>
</event>
<event>
 4    1  0.1802450E-001  0.2051407E+02  0.7818608E-02  0.1735294E+00
         -3   -1    0    0    0  501 -0.00000000000E+00  0.00000000000E+00  0.12513553263E+01  0.12548064204E+01  0.93000000000E-01 0. -1.
          3   -1    0    0  501    0  0.00000000000E+00 -0.00000000000E+00 -0.83955007287E+02  0.83955058797E+02  0.93000000000E-01 0.  1.
        -13    1    1    2    0    0 -0.10125010597E+02 -0.78593003601E+00 -0.47316545283E+02  0.48394216138E+02  0.10570000000E+00 0. -1.
         13    1    1    2    0    0  0.10125010597E+02  0.78593003601E+00 -0.35387106678E+02  0.36815649079E+02  0.10570000000E+00 0.  1.
<mgrwt>
<rscale>  0 0.20514070E+02</rscale>
<asrwt>0</asrwt>
<pdfrwt beam="2">  1        3 0.12916420E-01 0.20514070E+02</pdfrwt>
<pdfrwt beam="1">  1       -3 0.19278570E-03 0.20514070E+02</pdfrwt>
<totfact> 0.13929069E+06</totfact>
</mgrwt>
</event>
<event>
 4    1  0.1802450E-001  0.2447587E+02  0.7818608E-02  0.1668646E+00
          3   -1    0    0  501    0  0.00000000000E+00  0.00000000000E+00  0.27946571746E+01  0.27962041635E+01  0.93000000000E-01 0. -1.
         -3   -1    0    0    0  501 -0.00000000000E+00 -0.00000000000E+00 -0.53574071297E+02  0.53574152017E+02  0.93000000000E-01 0.  1.
        -13    1    1    2    0    0 -0.27600921786E+01  0.10204693058E+02 -0.39587337718E+02  0.40974654963E+02  0.10570000000E+00 0.  1.
         13    1    1    2    0    0  0.27600921786E+01 -0.10204693058E+02 -0.11192076405E+02  0.15395701218E+02  0.10570000000E+00 0. -1.
<mgrwt>
<rscale>  0 0.24475869E+02</rscale>
<asrwt>0</asrwt>
<pdfrwt beam="1">  1        3 0.43007250E-03 0.24475869E+02</pdfrwt>
<pdfrwt beam="2">  1       -3 0.82422893E-02 0.24475869E+02</pdfrwt>
<totfact> 0.10212729E+06</totfact>
</mgrwt>
</event>
<event>
 4    1  0.1802450E-001  0.2669981E+02  0.7818608E-02  0.1637723E+00
          3   -1    0    0  501    0  0.00000000000E+00  0.00000000000E+00  0.36265926586E+02  0.36266045830E+02  0.93000000000E-01 0.  1.
         -3   -1    0    0    0  501 -0.00000000000E+00 -0.00000000000E+00 -0.49136855178E+01  0.49145655319E+01  0.93000000000E-01 0. -1.
        -13    1    1    2    0    0 -0.12437983639E+02 -0.32773219148E+01  0.21186560790E+02  0.24785596755E+02  0.10570000000E+00 0.  1.
         13    1    1    2    0    0  0.12437983639E+02  0.32773219148E+01  0.10165680279E+02  0.16395014607E+02  0.10570000000E+00 0. -1.
<mgrwt>
<rscale>  0 0.26699808E+02</rscale>
<asrwt>0</asrwt>
<pdfrwt beam="1">  1        3 0.55794502E-02 0.26699808E+02</pdfrwt>
<pdfrwt beam="2">  1       -3 0.75602849E-03 0.26699808E+02</pdfrwt>
<totfact> 0.87724271E+05</totfact>
</mgrwt>
</event>
<event>
 4    1  0.1802450E-001  0.6921641E+02  0.7818608E-02  0.1362778E+00
         -3   -1    0    0    0  501 -0.00000000000E+00  0.00000000000E+00  0.34142327675E+02  0.34142454336E+02  0.93000000000E-01 0.  1.
          3   -1    0    0  501    0  0.00000000000E+00 -0.00000000000E+00 -0.35080187494E+02  0.35080310769E+02  0.93000000000E-01 0. -1.
        -13    1    1    2    0    0 -0.32892494702E+02  0.63872927167E+00  0.10274148653E+02  0.34465830700E+02  0.10570000000E+00 0.  1.
         13    1    1    2    0    0  0.32892494702E+02 -0.63872927167E+00 -0.11212008472E+02  0.34756934405E+02  0.10570000000E+00 0. -1.
<mgrwt>
<rscale>  0 0.69216412E+02</rscale>
<asrwt>0</asrwt>
<pdfrwt beam="2">  1        3 0.53969712E-02 0.69216412E+02</pdfrwt>
<pdfrwt beam="1">  1       -3 0.52526850E-02 0.69216412E+02</pdfrwt>
<totfact> 0.77752975E+04</totfact>
</mgrwt>
</event>
<event>
 4    1  0.1802450E-001  0.2257726E+02  0.7818608E-02  0.1698456E+00
         -3   -1    0    0    0  501 -0.00000000000E+00  0.00000000000E+00  0.37152708073E+01  0.37164346048E+01  0.93000000000E-01 0.  1.
          3   -1    0    0  501    0  0.00000000000E+00 -0.00000000000E+00 -0.34293238788E+02  0.34293364892E+02  0.93000000000E-01 0. -1.
        -13    1    1    2    0    0 -0.10787522658E+02 -0.13418386633E+01 -0.20409512293E+02  0.23124241407E+02  0.10570000000E+00 0.  1.
         13    1    1    2    0    0  0.10787522658E+02  0.13418386633E+01 -0.10168455688E+02  0.14885558090E+02  0.10570000000E+00 0. -1.
<mgrwt>
<rscale>  0 0.22577261E+02</rscale>
<asrwt>0</asrwt>
<pdfrwt beam="2">  1        3 0.52759819E-02 0.22577261E+02</pdfrwt>
<pdfrwt beam="1">  1       -3 0.57167937E-03 0.22577261E+02</pdfrwt>
<totfact> 0.12909410E+06</totfact>
</mgrwt>
</event>
<event>
 4    1  0.1802450E-001  0.2985681E+02  0.7818608E-02  0.1599677E+00
         -3   -1    0    0    0  501 -0.00000000000E+00  0.00000000000E+00  0.10813957035E+03  0.10813961034E+03  0.93000000000E-01 0. -1.
          3   -1    0    0  501    0  0.00000000000E+00 -0.00000000000E+00 -0.20597410465E+01  0.20618395133E+01  0.93000000000E-01 0.  1.
        -13    1    1    2    0    0 -0.24738777822E+01  0.13761215996E+02  0.33735241559E+02  0.36518061730E+02  0.10570000000E+00 0. -1.
         13    1    1    2    0    0  0.24738777822E+01 -0.13761215996E+02  0.72344587742E+02  0.73683388121E+02  0.10570000000E+00 0.  1.
<mgrwt>
<rscale>  0 0.29856814E+02</rscale>
<asrwt>0</asrwt>
<pdfrwt beam="2">  1        3 0.31704778E-03 0.29856814E+02</pdfrwt>
<pdfrwt beam="1">  1       -3 0.16637019E-01 0.29856814E+02</pdfrwt>
<totfact> 0.56572495E+05</totfact>
</mgrwt>
</event>
<event>
 4    1  0.1802450E-001  0.8118539E+02  0.7818608E-02  0.1325721E+00
          3   -1    0    0  501    0  0.00000000000E+00  0.00000000000E+00  0.13568312781E+03  0.13568315968E+03  0.93000000000E-01 0. -1.
         -3   -1    0    0    0  501 -0.00000000000E+00 -0.00000000000E+00 -0.12144018495E+02  0.12144374591E+02  0.93000000000E-01 0.  1.
        -13    1    1    2    0    0 -0.29888630668E+02  0.25904231496E+02  0.78397984606E+02  0.87810105429E+02  0.10570000000E+00 0. -1.
         13    1    1    2    0    0  0.29888630668E+02 -0.25904231496E+02  0.45141124712E+02  0.60017428847E+02  0.10570000000E+00 0.  1.
<mgrwt>
<rscale>  0 0.81185395E+02</rscale>
<asrwt>0</asrwt>
<pdfrwt beam="1">  1        3 0.20874357E-01 0.81185395E+02</pdfrwt>
<pdfrwt beam="2">  1       -3 0.18683404E-02 0.81185395E+02</pdfrwt>
<totfact> 0.42946442E+04</totfact>
</mgrwt>
</event>
<event>
 4    1  0.1802450E-001  0.2212440E+02  0.7818608E-02  0.1706109E+00
         -3   -1    0    0    0  501 -0.00000000000E+00  0.00000000000E+00  0.41245698641E+02  0.41245803488E+02  0.93000000000E-01 0. -1.
          3   -1    0    0  501    0  0.00000000000E+00 -0.00000000000E+00 -0.29660719184E+01  0.29675295492E+01  0.93000000000E-01 0.  1.
        -13    1    1    2    0    0 -0.10845053776E+02 -0.18176109844E+01  0.21539700634E+02  0.24184473883E+02  0.10570000000E+00 0.  1.
         13    1    1    2    0    0  0.10845053776E+02  0.18176109844E+01  0.16739926088E+02  0.20028859154E+02  0.10570000000E+00 0. -1.
<mgrwt>
<rscale>  0 0.22124398E+02</rscale>
<asrwt>0</asrwt>
<pdfrwt beam="2">  1        3 0.45643892E-03 0.22124398E+02</pdfrwt>
<pdfrwt beam="1">  1       -3 0.63456126E-02 0.22124398E+02</pdfrwt>
<totfact> 0.13242549E+06</totfact>
</mgrwt>
</event>
<event>
 4    1  0.1802450E-001  0.2209979E+02  0.7818608E-02  0.1706532E+00
         -3   -1    0    0    0  501 -0.00000000000E+00  0.00000000000E+00  0.23901850574E+01  0.23919936472E+01  0.93000000000E-01 0. -1.
          3   -1    0    0  501    0  0.00000000000E+00 -0.00000000000E+00 -0.51062799271E+02  0.51062883961E+02  0.93000000000E-01 0.  1.
        -13    1    1    2    0    0  0.10708876938E+02  0.17841330428E+01 -0.19364052404E+02  0.22200019684E+02  0.10570000000E+00 0. -1.
         13    1    1    2    0    0 -0.10708876938E+02 -0.17841330428E+01 -0.29308561810E+02  0.31254857924E+02  0.10570000000E+00 0.  1.
<mgrwt>
<rscale>  0 0.22099787E+02</rscale>
<asrwt>0</asrwt>
<pdfrwt beam="2">  1        3 0.78559601E-02 0.22099787E+02</pdfrwt>
<pdfrwt beam="1">  1       -3 0.36786645E-03 0.22099787E+02</pdfrwt>
<totfact> 0.12911843E+06</totfact>
</mgrwt>
</event>
<event>
 4    1  0.1802450E-001  0.2743202E+02  0.7818608E-02  0.1628342E+00
          3   -1    0    0  501    0  0.00000000000E+00  0.00000000000E+00  0.81380272322E+01  0.81385586090E+01  0.93000000000E-01 0. -1.
         -3   -1    0    0    0  501 -0.00000000000E+00 -0.00000000000E+00 -0.23115877247E+02  0.23116064326E+02  0.93000000000E-01 0.  1.
        -13    1    1    2    0    0 -0.12370178455E+02  0.50148566537E+01 -0.38954426803E+01  0.13905241761E+02  0.10570000000E+00 0. -1.
         13    1    1    2    0    0  0.12370178455E+02 -0.50148566537E+01 -0.11082407335E+02  0.17349381173E+02  0.10570000000E+00 0.  1.
<mgrwt>
<rscale>  0 0.27432015E+02</rscale>
<asrwt>0</asrwt>
<pdfrwt beam="1">  1        3 0.12520595E-02 0.27432015E+02</pdfrwt>
<pdfrwt beam="2">  1       -3 0.35563441E-02 0.27432015E+02</pdfrwt>
<totfact> 0.85076009E+05</totfact>
</mgrwt>
</event>
<event>
 4    1  0.1802450E-001  0.3812166E+02  0.7818608E-02  0.1522507E+00
          3   -1    0    0  501    0  0.00000000000E+00  0.00000000000E+00  0.15748535488E+03  0.15748538234E+03  0.93000000000E-01 0. -1.
         -3   -1    0    0    0  501 -0.00000000000E+00 -0.00000000000E+00 -0.23060126257E+01  0.23078871787E+01  0.93000000000E-01 0.  1.
        -13    1    1    2    0    0 -0.58292925835E+01  0.18124675113E+02  0.81384247023E+02  0.83581644732E+02  0.10570000000E+00 0. -1.
         13    1    1    2    0    0  0.58292925835E+01 -0.18124675113E+02  0.73795095227E+02  0.76211624783E+02  0.10570000000E+00 0.  1.
<mgrwt>
<rscale>  0 0.38121657E+02</rscale>
<asrwt>0</asrwt>
<pdfrwt beam="1">  1        3 0.24228655E-01 0.38121657E+02</pdfrwt>
<pdfrwt beam="2">  1       -3 0.35491760E-03 0.38121657E+02</pdfrwt>
<totfact> 0.28512317E+05</totfact>
</mgrwt>
</event>
<event>
 4    1  0.1802450E-001  0.6500056E+02  0.7818608E-02  0.1377969E+00
          3   -1    0    0  501    0  0.00000000000E+00  0.00000000000E+00  0.43980665207E+01  0.43990496838E+01  0.93000000000E-01 0. -1.
         -3   -1    0    0    0  501 -0.00000000000E+00 -0.00000000000E+00 -0.24013864034E+03  0.24013865835E+03  0.93000000000E-01 0.  1.
        -13    1    1    2    0    0 -0.38191536867E+01  0.32273810409E+02 -0.11888102561E+03  0.12324323185E+03  0.10570000000E+00 0. -1.
         13    1    1    2    0    0  0.38191536867E+01 -0.32273810409E+02 -0.11685954821E+03  0.12129447618E+03  0.10570000000E+00 0.  1.
<mgrwt>
<rscale>  0 0.65000558E+02</rscale>
<asrwt>0</asrwt>
<pdfrwt beam="1">  1        3 0.67670282E-03 0.65000558E+02</pdfrwt>
<pdfrwt beam="2">  1       -3 0.36944473E-01 0.65000558E+02</pdfrwt>
<totfact> 0.64247505E+04</totfact>
</mgrwt>
</event>
<event>
 4    1  0.1802450E-001  0.2837504E+02  0.7818608E-02  0.1616778E+00
         -3   -1    0    0    0  501 -0.00000000000E+00  0.00000000000E+00  0.48825976841E+02  0.48826065410E+02  0.93000000000E-01 0. -1.
          3   -1    0    0  501    0  0.00000000000E+00 -0.00000000000E+00 -0.41218973049E+01  0.41229463242E+01  0.93000000000E-01 0.  1.
        -13    1    1    2    0    0  0.29374489767E+01  0.11654634554E+02  0.36417524653E+02  0.38349789927E+02  0.10570000000E+00 0. -1.
         13    1    1    2    0    0 -0.29374489767E+01 -0.11654634554E+02  0.82865548829E+01  0.14599221808E+02  0.10570000000E+00 0.  1.
<mgrwt>
<rscale>  0 0.28375044E+02</rscale>
<asrwt>0</asrwt>
<pdfrwt beam="2">  1        3 0.63422553E-03 0.28375044E+02</pdfrwt>
<pdfrwt beam="1">  1       -3 0.75117766E-02 0.28375044E+02</pdfrwt>
<totfact> 0.73711079E+05</totfact>
</mgrwt>
</event>
<event>
 4    1  0.1802450E-001  0.2479426E+02  0.7818608E-02  0.1663975E+00
          3   -1    0    0  501    0  0.00000000000E+00  0.00000000000E+00  0.13520796125E+02  0.13521115962E+02  0.93000000000E-01 0.  1.
         -3   -1    0    0    0  501 -0.00000000000E+00 -0.00000000000E+00 -0.11366199358E+02  0.11366579822E+02  0.93000000000E-01 0. -1.
        -13    1    1    2    0    0  0.11407188005E+02  0.18989814310E+01  0.55603966493E+01  0.12831962128E+02  0.10570000000E+00 0.  1.
         13    1    1    2    0    0 -0.11407188005E+02 -0.18989814310E+01 -0.34057998821E+01  0.12055733656E+02  0.10570000000E+00 0. -1.
<mgrwt>
<rscale>  0 0.24794256E+02</rscale>
<asrwt>0</asrwt>
<pdfrwt beam="1">  1        3 0.20801763E-02 0.24794256E+02</pdfrwt>
<pdfrwt beam="2">  1       -3 0.17486999E-02 0.24794256E+02</pdfrwt>
<totfact> 0.10938890E+06</totfact>
</mgrwt>
</event>
<event>
 4    1  0.1802450E-001  0.3375612E+02  0.7818608E-02  0.1559932E+00
         -3   -1    0    0    0  501 -0.00000000000E+00  0.00000000000E+00  0.27545318221E+02  0.27545475216E+02  0.93000000000E-01 0. -1.
          3   -1    0    0  501    0  0.00000000000E+00 -0.00000000000E+00 -0.10341430241E+02  0.10341848405E+02  0.93000000000E-01 0.  1.
        -13    1    1    2    0    0 -0.15080517799E+02 -0.73877666965E+01  0.10498937489E+02  0.19805049223E+02  0.10570000000E+00 0.  1.
         13    1    1    2    0    0  0.15080517799E+02  0.73877666965E+01  0.67049504907E+01  0.18082274398E+02  0.10570000000E+00 0. -1.
<mgrwt>
<rscale>  0 0.33756118E+02</rscale>
<asrwt>0</asrwt>
<pdfrwt beam="2">  1        3 0.15910335E-02 0.33756118E+02</pdfrwt>
<pdfrwt beam="1">  1       -3 0.42377855E-02 0.33756118E+02</pdfrwt>
<totfact> 0.51308367E+05</totfact>
</mgrwt>
</event>
<event>
 4    1  0.1802450E-001  0.3495413E+02  0.7818608E-02  0.1549008E+00
          3   -1    0    0  501    0  0.00000000000E+00  0.00000000000E+00  0.11285098292E+02  0.11285481490E+02  0.93000000000E-01 0.  1.
         -3   -1    0    0    0  501 -0.00000000000E+00 -0.00000000000E+00 -0.27065553435E+02  0.27065713213E+02  0.93000000000E-01 0. -1.
        -13    1    1    2    0    0  0.13475342870E+02  0.26038059844E+01 -0.19761762864E+02  0.24060405546E+02  0.10570000000E+00 0.  1.
         13    1    1    2    0    0 -0.13475342870E+02 -0.26038059844E+01  0.39813077203E+01  0.14290789157E+02  0.10570000000E+00 0. -1.
<mgrwt>
<rscale>  0 0.34954132E+02</rscale>
<asrwt>0</asrwt>
<pdfrwt beam="1">  1        3 0.17362107E-02 0.34954132E+02</pdfrwt>
<pdfrwt beam="2">  1       -3 0.41639731E-02 0.34954132E+02</pdfrwt>
<totfact> 0.47150990E+05</totfact>
</mgrwt>
</event>
<event>
 4    1  0.1802450E-001  0.4019590E+02  0.7818608E-02  0.1506775E+00
         -3   -1    0    0    0  501 -0.00000000000E+00  0.00000000000E+00  0.13556972770E+02  0.13557291753E+02  0.93000000000E-01 0. -1.
          3   -1    0    0  501    0  0.00000000000E+00 -0.00000000000E+00 -0.29794074076E+02  0.29794219222E+02  0.93000000000E-01 0.  1.
        -13    1    1    2    0    0  0.15458447971E+02  0.10410564574E+02 -0.16230526214E+02  0.24714057176E+02  0.10570000000E+00 0.  1.
         13    1    1    2    0    0 -0.15458447971E+02 -0.10410564574E+02 -0.65750916946E-02  0.18637453800E+02  0.10570000000E+00 0. -1.
<mgrwt>
<rscale>  0 0.40195896E+02</rscale>
<asrwt>0</asrwt>
<pdfrwt beam="2">  1        3 0.45837394E-02 0.40195896E+02</pdfrwt>
<pdfrwt beam="1">  1       -3 0.20857238E-02 0.40195896E+02</pdfrwt>
<totfact> 0.33129017E+05</totfact>
</mgrwt>
</event>
<event>
 4    1  0.1802450E-001  0.3744490E+02  0.7818608E-02  0.1527903E+00
         -3   -1    0    0    0  501 -0.00000000000E+00  0.00000000000E+00  0.47571169226E+02  0.47571260132E+02  0.93000000000E-01 0.  1.
          3   -1    0    0  501    0  0.00000000000E+00 -0.00000000000E+00 -0.73681517802E+01  0.73687386747E+01  0.93000000000E-01 0. -1.
        -13    1    1    2    0    0 -0.14115816949E+02  0.87796502786E+01  0.74646019007E+01  0.18222787964E+02  0.10570000000E+00 0. -1.
         13    1    1    2    0    0  0.14115816949E+02 -0.87796502786E+01  0.32738415545E+02  0.36717210842E+02  0.10570000000E+00 0.  1.
<mgrwt>
<rscale>  0 0.37444904E+02</rscale>
<asrwt>0</asrwt>
<pdfrwt beam="2">  1        3 0.11336139E-02 0.37444904E+02</pdfrwt>
<pdfrwt beam="1">  1       -3 0.73186937E-02 0.37444904E+02</pdfrwt>
<totfact> 0.38101015E+05</totfact>
</mgrwt>
</event>
<event>
 4    1  0.1802450E-001  0.3892199E+02  0.7818608E-02  0.1516298E+00
         -3   -1    0    0    0  501 -0.00000000000E+00  0.00000000000E+00  0.22329163052E+02  0.22329356722E+02  0.93000000000E-01 0.  1.
          3   -1    0    0  501    0  0.00000000000E+00 -0.00000000000E+00 -0.16960843123E+02  0.16961098091E+02  0.93000000000E-01 0. -1.
        -13    1    1    2    0    0  0.84001402311E+01  0.55496030547E+01 -0.14127589213E+02  0.17348210266E+02  0.10570000000E+00 0. -1.
         13    1    1    2    0    0 -0.84001402311E+01 -0.55496030547E+01  0.19495909142E+02  0.21942244547E+02  0.10570000000E+00 0.  1.
<mgrwt>
<rscale>  0 0.38921986E+02</rscale>
<asrwt>0</asrwt>
<pdfrwt beam="2">  1        3 0.26093950E-02 0.38921986E+02</pdfrwt>
<pdfrwt beam="1">  1       -3 0.34352904E-02 0.38921986E+02</pdfrwt>
<totfact> 0.36262092E+05</totfact>
</mgrwt>
</event>
<event>
 4    1  0.1802450E-001  0.2303230E+02  0.7818608E-02  0.1690987E+00
          3   -1    0    0  501    0  0.00000000000E+00  0.00000000000E+00  0.15377216507E+02  0.15377497733E+02  0.93000000000E-01 0.  1.
         -3   -1    0    0    0  501 -0.00000000000E+00 -0.00000000000E+00 -0.86239503139E+01  0.86244517516E+01  0.93000000000E-01 0. -1.
        -13    1    1    2    0    0 -0.98921672671E+01  0.37457107234E+01 -0.13675237063E+01  0.10666143429E+02  0.10570000000E+00 0. -1.
         13    1    1    2    0    0  0.98921672671E+01 -0.37457107234E+01  0.81207898998E+01  0.13335806056E+02  0.10570000000E+00 0.  1.
<mgrwt>
<rscale>  0 0.23032303E+02</rscale>
<asrwt>0</asrwt>
<pdfrwt beam="1">  1        3 0.23657858E-02 0.23032303E+02</pdfrwt>
<pdfrwt beam="2">  1       -3 0.13268218E-02 0.23032303E+02</pdfrwt>
<totfact> 0.12939213E+06</totfact>
</mgrwt>
</event>
<event>
 4    1  0.1802450E-001  0.3299927E+02  0.7818608E-02  0.1567121E+00
          3   -1    0    0  501    0  0.00000000000E+00  0.00000000000E+00  0.30396818711E+02  0.30396960979E+02  0.93000000000E-01 0. -1.
         -3   -1    0    0    0  501 -0.00000000000E+00 -0.00000000000E+00 -0.89557311442E+01  0.89562140064E+01  0.93000000000E-01 0.  1.
        -13    1    1    2    0    0  0.11732123998E+02  0.93653739247E+01  0.18885256931E+02  0.24125029826E+02  0.10570000000E+00 0. -1.
         13    1    1    2    0    0 -0.11732123998E+02 -0.93653739247E+01  0.25558306358E+01  0.15228145159E+02  0.10570000000E+00 0.  1.
<mgrwt>
<rscale>  0 0.32999275E+02</rscale>
<asrwt>0</asrwt>
<pdfrwt beam="1">  1        3 0.46764817E-02 0.32999275E+02</pdfrwt>
<pdfrwt beam="2">  1       -3 0.13778529E-02 0.32999275E+02</pdfrwt>
<totfact> 0.53902515E+05</totfact>
</mgrwt>
</event>
<event>
 4    1  0.1802450E-001  0.3079653E+02  0.7818608E-02  0.1589447E+00
         -3   -1    0    0    0  501 -0.00000000000E+00  0.00000000000E+00  0.16256270430E+02  0.16256536448E+02  0.93000000000E-01 0.  1.
          3   -1    0    0  501    0  0.00000000000E+00 -0.00000000000E+00 -0.14585009195E+02  0.14585305695E+02  0.93000000000E-01 0. -1.
        -13    1    1    2    0    0 -0.19177409751E+01  0.10327184590E+02 -0.10440016239E+02  0.14809915043E+02  0.10570000000E+00 0. -1.
         13    1    1    2    0    0  0.19177409751E+01 -0.10327184590E+02  0.12111277474E+02  0.16031927100E+02  0.10570000000E+00 0.  1.
<mgrwt>
<rscale>  0 0.30796528E+02</rscale>
<asrwt>0</asrwt>
<pdfrwt beam="2">  1        3 0.22438908E-02 0.30796528E+02</pdfrwt>
<pdfrwt beam="1">  1       -3 0.25010079E-02 0.30796528E+02</pdfrwt>
<totfact> 0.65133190E+05</totfact>
</mgrwt>
</event>
<event>
 4    1  0.1802450E-001  0.9896465E+02  0.7818608E-02  0.1282488E+00
         -3   -1    0    0    0  501 -0.00000000000E+00  0.00000000000E+00  0.29335101773E+02  0.29335249190E+02  0.93000000000E-01 0.  1.
          3   -1    0    0  501    0  0.00000000000E+00 -0.00000000000E+00 -0.83466189886E+02  0.83466241698E+02  0.93000000000E-01 0. -1.
        -13    1    1    2    0    0  0.32277630343E+01 -0.48900766464E+02 -0.34861904245E+02  0.60142056458E+02  0.10570000000E+00 0.  1.
         13    1    1    2    0    0 -0.32277630343E+01  0.48900766464E+02 -0.19269183868E+02  0.52659434429E+02  0.10570000000E+00 0. -1.
<mgrwt>
<rscale>  0 0.98964648E+02</rscale>
<asrwt>0</asrwt>
<pdfrwt beam="2">  1        3 0.12840968E-01 0.98964648E+02</pdfrwt>
<pdfrwt beam="1">  1       -3 0.45131079E-02 0.98964648E+02</pdfrwt>
<totfact> 0.26971209E+04</totfact>
</mgrwt>
</event>
<event>
 4    1  0.1802450E-001  0.4174872E+02  0.7818608E-02  0.1495723E+00
         -3   -1    0    0    0  501 -0.00000000000E+00  0.00000000000E+00  0.50988648984E+01  0.50997129578E+01  0.93000000000E-01 0. -1.
          3   -1    0    0  501    0  0.00000000000E+00 -0.00000000000E+00 -0.85450045045E+02  0.85450095654E+02  0.93000000000E-01 0.  1.
        -13    1    1    2    0    0  0.19694142202E+01 -0.14854557021E+02 -0.86558688128E+01  0.17305250476E+02  0.10570000000E+00 0. -1.
         13    1    1    2    0    0 -0.19694142202E+01  0.14854557021E+02 -0.71695311334E+02  0.73244558135E+02  0.10570000000E+00 0.  1.
<mgrwt>
<rscale>  0 0.41748721E+02</rscale>
<asrwt>0</asrwt>
<pdfrwt beam="2">  1        3 0.13146229E-01 0.41748721E+02</pdfrwt>
<pdfrwt beam="1">  1       -3 0.78450994E-03 0.41748721E+02</pdfrwt>
<totfact> 0.26691861E+05</totfact>
</mgrwt>
</event>
<event>
 4    1  0.1802450E-001  0.2794533E+02  0.7818608E-02  0.1621978E+00
         -3   -1    0    0    0  501 -0.00000000000E+00  0.00000000000E+00  0.36461060870E+02  0.36461179476E+02  0.93000000000E-01 0.  1.
          3   -1    0    0  501    0  0.00000000000E+00 -0.00000000000E+00 -0.53540951309E+01  0.53549027695E+01  0.93000000000E-01 0. -1.
        -13    1    1    2    0    0  0.10455791930E+02 -0.41288108327E+01  0.31370404015E+01  0.11671454869E+02  0.10570000000E+00 0. -1.
         13    1    1    2    0    0 -0.10455791930E+02  0.41288108327E+01  0.27969925337E+02  0.30144627376E+02  0.10570000000E+00 0.  1.
<mgrwt>
<rscale>  0 0.27945329E+02</rscale>
<asrwt>0</asrwt>
<pdfrwt beam="2">  1        3 0.82377818E-03 0.27945329E+02</pdfrwt>
<pdfrwt beam="1">  1       -3 0.56094653E-02 0.27945329E+02</pdfrwt>
<totfact> 0.78885128E+05</totfact>
</mgrwt>
</event>
<event>
 4    1  0.1802450E-001  0.2310342E+02  0.7818608E-02  0.1689839E+00
         -3   -1    0    0    0  501 -0.00000000000E+00  0.00000000000E+00  0.25730280012E+02  0.25730448082E+02  0.93000000000E-01 0.  1.
          3   -1    0    0  501    0  0.00000000000E+00 -0.00000000000E+00 -0.51855853209E+01  0.51864192002E+01  0.93000000000E-01 0. -1.
        -13    1    1    2    0    0 -0.65269437920E+01 -0.75963669283E+01  0.17974243904E+02  0.20576452614E+02  0.10570000000E+00 0.  1.
         13    1    1    2    0    0  0.65269437920E+01  0.75963669283E+01  0.25704507875E+01  0.10340414668E+02  0.10570000000E+00 0. -1.
<mgrwt>
<rscale>  0 0.23103424E+02</rscale>
<asrwt>0</asrwt>
<pdfrwt beam="2">  1        3 0.79785942E-03 0.23103424E+02</pdfrwt>
<pdfrwt beam="1">  1       -3 0.39585818E-02 0.23103424E+02</pdfrwt>
<totfact> 0.12553626E+06</totfact>
</mgrwt>
</event>
<event>
 4    1  0.1802450E-001  0.2766542E+02  0.7818608E-02  0.1625427E+00
         -3   -1    0    0    0  501 -0.00000000000E+00  0.00000000000E+00  0.79011993083E+01  0.79017466114E+01  0.93000000000E-01 0.  1.
          3   -1    0    0  501    0  0.00000000000E+00 -0.00000000000E+00 -0.24215585768E+02  0.24215764350E+02  0.93000000000E-01 0. -1.
        -13    1    1    2    0    0  0.12938326621E+02 -0.26313658441E+01 -0.33694069988E+01  0.13626755226E+02  0.10570000000E+00 0.  1.
         13    1    1    2    0    0 -0.12938326621E+02  0.26313658441E+01 -0.12944979461E+02  0.18490755736E+02  0.10570000000E+00 0. -1.
<mgrwt>
<rscale>  0 0.27665417E+02</rscale>
<asrwt>0</asrwt>
<pdfrwt beam="2">  1        3 0.37255305E-02 0.27665417E+02</pdfrwt>
<pdfrwt beam="1">  1       -3 0.12156250E-02 0.27665417E+02</pdfrwt>
<totfact> 0.83200569E+05</totfact>
</mgrwt>
</event>
<event>
 4    1  0.1802450E-001  0.2744047E+02  0.7818608E-02  0.1628236E+00
         -3   -1    0    0    0  501 -0.00000000000E+00  0.00000000000E+00  0.70701575219E+01  0.70707691508E+01  0.93000000000E-01 0.  1.
          3   -1    0    0  501    0  0.00000000000E+00 -0.00000000000E+00 -0.26623417482E+02  0.26623579914E+02  0.93000000000E-01 0. -1.
        -13    1    1    2    0    0  0.86702948870E+01 -0.65173011297E+01 -0.20092834347E+02  0.22833799334E+02  0.10570000000E+00 0. -1.
         13    1    1    2    0    0 -0.86702948870E+01  0.65173011297E+01  0.53957438667E+00  0.10860549731E+02  0.10570000000E+00 0.  1.
<mgrwt>
<rscale>  0 0.27440466E+02</rscale>
<asrwt>0</asrwt>
<pdfrwt beam="2">  1        3 0.40959699E-02 0.27440466E+02</pdfrwt>
<pdfrwt beam="1">  1       -3 0.10877761E-02 0.27440466E+02</pdfrwt>
<totfact> 0.84348762E+05</totfact>
</mgrwt>
</event>
<event>
 4    1  0.1802450E-001  0.4936352E+02  0.7818608E-02  0.1448805E+00
          3   -1    0    0  501    0  0.00000000000E+00  0.00000000000E+00  0.11719975345E+02  0.11720344324E+02  0.93000000000E-01 0.  1.
         -3   -1    0    0    0  501 -0.00000000000E+00 -0.00000000000E+00 -0.51977493193E+02  0.51977576393E+02  0.93000000000E-01 0. -1.
        -13    1    1    2    0    0 -0.69959368492E+01  0.92149155554E+01 -0.48261517828E+02  0.49629054762E+02  0.10570000000E+00 0. -1.
         13    1    1    2    0    0  0.69959368492E+01 -0.92149155554E+01  0.80039999792E+01  0.14068865955E+02  0.10570000000E+00 0.  1.
<mgrwt>
<rscale>  0 0.49363523E+02</rscale>
<asrwt>0</asrwt>
<pdfrwt beam="1">  1        3 0.18031080E-02 0.49363523E+02</pdfrwt>
<pdfrwt beam="2">  1       -3 0.79965720E-02 0.49363523E+02</pdfrwt>
<totfact> 0.18834384E+05</totfact>
</mgrwt>
</event>
<event>
 4    1  0.1802450E-001  0.6353231E+02  0.7818608E-02  0.1383579E+00
         -3   -1    0    0    0  501 -0.00000000000E+00  0.00000000000E+00  0.78104709657E+01  0.78110246259E+01  0.93000000000E-01 0. -1.
          3   -1    0    0  501    0  0.00000000000E+00 -0.00000000000E+00 -0.12919173417E+03  0.12919176764E+03  0.93000000000E-01 0.  1.
        -13    1    1    2    0    0 -0.22273475789E+02 -0.20619468836E+02 -0.80897529701E+02  0.86404234289E+02  0.10570000000E+00 0.  1.
         13    1    1    2    0    0  0.22273475789E+02  0.20619468836E+02 -0.40483733500E+02  0.50598557977E+02  0.10570000000E+00 0. -1.
<mgrwt>
<rscale>  0 0.63532307E+02</rscale>
<asrwt>0</asrwt>
<pdfrwt beam="2">  1        3 0.19875695E-01 0.63532307E+02</pdfrwt>
<pdfrwt beam="1">  1       -3 0.12016562E-02 0.63532307E+02</pdfrwt>
<totfact> 0.83630265E+04</totfact>
</mgrwt>
</event>
<event>
 4    1  0.1802450E-001  0.2963566E+02  0.7818608E-02  0.1602151E+00
         -3   -1    0    0    0  501 -0.00000000000E+00  0.00000000000E+00  0.55898563263E+02  0.55898640627E+02  0.93000000000E-01 0.  1.
          3   -1    0    0  501    0  0.00000000000E+00 -0.00000000000E+00 -0.39273435455E+01  0.39284445171E+01  0.93000000000E-01 0. -1.
        -13    1    1    2    0    0 -0.10948795826E+02 -0.73113529355E+01  0.12260326304E+02  0.17990519319E+02  0.10570000000E+00 0. -1.
         13    1    1    2    0    0  0.10948795826E+02  0.73113529355E+01  0.39710893414E+02  0.41836565825E+02  0.10570000000E+00 0.  1.
<mgrwt>
<rscale>  0 0.29635662E+02</rscale>
<asrwt>0</asrwt>
<pdfrwt beam="2">  1        3 0.60429737E-03 0.29635662E+02</pdfrwt>
<pdfrwt beam="1">  1       -3 0.85998692E-02 0.29635662E+02</pdfrwt>
<totfact> 0.65396827E+05</totfact>
</mgrwt>
</event>
<event>
 4    1  0.1802450E-001  0.4609266E+02  0.7818608E-02  0.1467633E+00
         -3   -1    0    0    0  501 -0.00000000000E+00  0.00000000000E+00  0.88037669787E+01  0.88042581752E+01  0.93000000000E-01 0.  1.
          3   -1    0    0  501    0  0.00000000000E+00 -0.00000000000E+00 -0.60328013121E+02  0.60328084805E+02  0.93000000000E-01 0. -1.
        -13    1    1    2    0    0 -0.18942342417E+02  0.64139235109E+01 -0.42939979196E+02  0.47368805525E+02  0.10570000000E+00 0. -1.
         13    1    1    2    0    0  0.18942342417E+02 -0.64139235109E+01 -0.85842669464E+01  0.21763537454E+02  0.10570000000E+00 0.  1.
<mgrwt>
<rscale>  0 0.46092656E+02</rscale>
<asrwt>0</asrwt>
<pdfrwt beam="2">  1        3 0.92812758E-02 0.46092656E+02</pdfrwt>
<pdfrwt beam="1">  1       -3 0.13544690E-02 0.46092656E+02</pdfrwt>
<totfact> 0.22047385E+05</totfact>
</mgrwt>
</event>
<event>
 4    1  0.1802450E-001  0.2920253E+02  0.7818608E-02  0.1607075E+00
         -3   -1    0    0    0  501 -0.00000000000E+00  0.00000000000E+00  0.63917035615E+01  0.63923801059E+01  0.93000000000E-01 0. -1.
          3   -1    0    0  501    0  0.00000000000E+00 -0.00000000000E+00 -0.33352754314E+02  0.33352883973E+02  0.93000000000E-01 0.  1.
        -13    1    1    2    0    0  0.12124409559E+02 -0.74800759676E+01 -0.91267624744E+01  0.16919273312E+02  0.10570000000E+00 0.  1.
         13    1    1    2    0    0 -0.12124409559E+02  0.74800759676E+01 -0.17834288278E+02  0.22825990767E+02  0.10570000000E+00 0. -1.
<mgrwt>
<rscale>  0 0.29202530E+02</rscale>
<asrwt>0</asrwt>
<pdfrwt beam="2">  1        3 0.51312549E-02 0.29202530E+02</pdfrwt>
<pdfrwt beam="1">  1       -3 0.98340105E-03 0.29202530E+02</pdfrwt>
<totfact> 0.71715903E+05</totfact>
</mgrwt>
</event>
<event>
 4    1  0.1802450E-001  0.2950716E+02  0.7818608E-02  0.1603601E+00
          3   -1    0    0  501    0  0.00000000000E+00  0.00000000000E+00  0.17628274565E+02  0.17628519879E+02  0.93000000000E-01 0. -1.
         -3   -1    0    0    0  501 -0.00000000000E+00 -0.00000000000E+00 -0.12347162367E+02  0.12347512605E+02  0.93000000000E-01 0.  1.
        -13    1    1    2    0    0 -0.26471259369E+01  0.13366299888E+02  0.83865511355E+01  0.16000333149E+02  0.10570000000E+00 0. -1.
         13    1    1    2    0    0  0.26471259369E+01 -0.13366299888E+02 -0.31054389378E+01  0.13975699335E+02  0.10570000000E+00 0.  1.
<mgrwt>
<rscale>  0 0.29507158E+02</rscale>
<asrwt>0</asrwt>
<pdfrwt beam="1">  1        3 0.27120881E-02 0.29507158E+02</pdfrwt>
<pdfrwt beam="2">  1       -3 0.18996092E-02 0.29507158E+02</pdfrwt>
<totfact> 0.72189639E+05</totfact>
</mgrwt>
</event>
<event>
 4    1  0.1802450E-001  0.2144598E+02  0.7818608E-02  0.1718013E+00
          3   -1    0    0  501    0  0.00000000000E+00  0.00000000000E+00  0.17354644751E+02  0.17354893933E+02  0.93000000000E-01 0. -1.
         -3   -1    0    0    0  501 -0.00000000000E+00 -0.00000000000E+00 -0.66248378048E+01  0.66254905433E+01  0.93000000000E-01 0.  1.
        -13    1    1    2    0    0  0.82876648186E+01  0.56578206394E+01  0.11401761671E+01  0.10099876074E+02  0.10570000000E+00 0. -1.
         13    1    1    2    0    0 -0.82876648186E+01 -0.56578206394E+01  0.95896307790E+01  0.13880508402E+02  0.10570000000E+00 0.  1.
<mgrwt>
<rscale>  0 0.21445981E+02</rscale>
<asrwt>0</asrwt>
<pdfrwt beam="1">  1        3 0.26700147E-02 0.21445981E+02</pdfrwt>
<pdfrwt beam="2">  1       -3 0.10192752E-02 0.21445981E+02</pdfrwt>
<totfact> 0.15146290E+06</totfact>
</mgrwt>
</event>
<event>
 4    1  0.1802450E-001  0.2178723E+02  0.7818608E-02  0.1711958E+00
          3   -1    0    0  501    0  0.00000000000E+00  0.00000000000E+00  0.59834772173E+01  0.59841999139E+01  0.93000000000E-01 0. -1.
         -3   -1    0    0    0  501 -0.00000000000E+00 -0.00000000000E+00 -0.19831056797E+02  0.19831274863E+02  0.93000000000E-01 0.  1.
        -13    1    1    2    0    0 -0.56183044062E+01  0.91995945045E+01 -0.87828836407E+01  0.13904966774E+02  0.10570000000E+00 0.  1.
         13    1    1    2    0    0  0.56183044062E+01 -0.91995945045E+01 -0.50646959395E+01  0.11910508003E+02  0.10570000000E+00 0. -1.
<mgrwt>
<rscale>  0 0.21787227E+02</rscale>
<asrwt>0</asrwt>
<pdfrwt beam="1">  1        3 0.92060733E-03 0.21787227E+02</pdfrwt>
<pdfrwt beam="2">  1       -3 0.30510041E-02 0.21787227E+02</pdfrwt>
<totfact> 0.14538106E+06</totfact>
</mgrwt>
</event>
<event>
 4    1  0.1802450E-001  0.2911984E+02  0.7818608E-02  0.1608027E+00
          3   -1    0    0  501    0  0.00000000000E+00  0.00000000000E+00  0.81874652183E+01  0.81879933867E+01  0.93000000000E-01 0.  1.
         -3   -1    0    0    0  501 -0.00000000000E+00 -0.00000000000E+00 -0.25890719578E+02  0.25890886606E+02  0.93000000000E-01 0. -1.
        -13    1    1    2    0    0  0.10408144047E+02  0.57365141842E+01  0.99161270625E+00  0.11926085935E+02  0.10570000000E+00 0.  1.
         13    1    1    2    0    0 -0.10408144047E+02 -0.57365141842E+01 -0.18694867066E+02  0.22152794058E+02  0.10570000000E+00 0. -1.
<mgrwt>
<rscale>  0 0.29119836E+02</rscale>
<asrwt>0</asrwt>
<pdfrwt beam="1">  1        3 0.12596635E-02 0.29119836E+02</pdfrwt>
<pdfrwt beam="2">  1       -3 0.39832411E-02 0.29119836E+02</pdfrwt>
<totfact> 0.73472322E+05</totfact>
</mgrwt>
</event>
<event>
 4    1  0.1802450E-001  0.2268412E+02  0.7818608E-02  0.1696682E+00
          3   -1    0    0  501    0  0.00000000000E+00  0.00000000000E+00  0.57709636364E+02  0.57709711299E+02  0.93000000000E-01 0.  1.
         -3   -1    0    0    0  501 -0.00000000000E+00 -0.00000000000E+00 -0.22280849339E+01  0.22300249938E+01  0.93000000000E-01 0. -1.
        -13    1    1    2    0    0  0.74512014267E+00  0.10470061503E+02  0.16389735029E+02  0.19463092733E+02  0.10570000000E+00 0. -1.
         13    1    1    2    0    0 -0.74512014267E+00 -0.10470061503E+02  0.39091816401E+02  0.40476643560E+02  0.10570000000E+00 0.  1.
<mgrwt>
<rscale>  0 0.22684123E+02</rscale>
<asrwt>0</asrwt>
<pdfrwt beam="1">  1        3 0.88785606E-02 0.22684123E+02</pdfrwt>
<pdfrwt beam="2">  1       -3 0.34293730E-03 0.22684123E+02</pdfrwt>
<totfact> 0.11966895E+06</totfact>
</mgrwt>
</event>
<event>
 4    1  0.1802450E-001  0.3402802E+02  0.7818608E-02  0.1557405E+00
         -3   -1    0    0    0  501 -0.00000000000E+00  0.00000000000E+00  0.12366263726E+02  0.12366613422E+02  0.93000000000E-01 0. -1.
          3   -1    0    0  501    0  0.00000000000E+00 -0.00000000000E+00 -0.23407796892E+02  0.23407981638E+02  0.93000000000E-01 0.  1.
        -13    1    1    2    0    0  0.15805171023E+02 -0.54238788191E+01 -0.21559461722E+01  0.16848773513E+02  0.10570000000E+00 0. -1.
         13    1    1    2    0    0 -0.15805171023E+02  0.54238788191E+01 -0.88855869946E+01  0.18925821547E+02  0.10570000000E+00 0.  1.
<mgrwt>
<rscale>  0 0.34028021E+02</rscale>
<asrwt>0</asrwt>
<pdfrwt beam="2">  1        3 0.36012406E-02 0.34028021E+02</pdfrwt>
<pdfrwt beam="1">  1       -3 0.19025432E-02 0.34028021E+02</pdfrwt>
<totfact> 0.50659464E+05</totfact>
</mgrwt>
</event>
<event>
 4    1  0.1802450E-001  0.2447377E+02  0.7818608E-02  0.1668677E+00
         -3   -1    0    0    0  501 -0.00000000000E+00  0.00000000000E+00  0.10703507536E+02  0.10703911555E+02  0.93000000000E-01 0. -1.
          3   -1    0    0  501    0  0.00000000000E+00 -0.00000000000E+00 -0.13989116066E+02  0.13989425196E+02  0.93000000000E-01 0.  1.
        -13    1    1    2    0    0  0.37080877418E+00  0.12202658475E+02 -0.24796233400E+01  0.12458012578E+02  0.10570000000E+00 0.  1.
         13    1    1    2    0    0 -0.37080877418E+00 -0.12202658475E+02 -0.80598518970E+00  0.12235324173E+02  0.10570000000E+00 0. -1.
<mgrwt>
<rscale>  0 0.24473775E+02</rscale>
<asrwt>0</asrwt>
<pdfrwt beam="2">  1        3 0.21522266E-02 0.24473775E+02</pdfrwt>
<pdfrwt beam="1">  1       -3 0.16467483E-02 0.24473775E+02</pdfrwt>
<totfact> 0.11272251E+06</totfact>
</mgrwt>
</event>
<event>
 4    1  0.1802450E-001  0.3293516E+02  0.7818608E-02  0.1567740E+00
          3   -1    0    0  501    0  0.00000000000E+00  0.00000000000E+00  0.22709999865E+02  0.22710190287E+02  0.93000000000E-01 0. -1.
         -3   -1    0    0    0  501 -0.00000000000E+00 -0.00000000000E+00 -0.11940629179E+02  0.11940991341E+02  0.93000000000E-01 0.  1.
        -13    1    1    2    0    0 -0.73507943260E+01  0.98683455596E+01  0.16897963557E+02  0.20903845726E+02  0.10570000000E+00 0. -1.
         13    1    1    2    0    0  0.73507943260E+01 -0.98683455596E+01 -0.61285928712E+01  0.13747335901E+02  0.10570000000E+00 0.  1.
<mgrwt>
<rscale>  0 0.32935164E+02</rscale>
<asrwt>0</asrwt>
<pdfrwt beam="1">  1        3 0.34938886E-02 0.32935164E+02</pdfrwt>
<pdfrwt beam="2">  1       -3 0.18370624E-02 0.32935164E+02</pdfrwt>
<totfact> 0.54932373E+05</totfact>
</mgrwt>
</event>
<event>
 4    1  0.1802450E-001  0.3523973E+02  0.7818608E-02  0.1546482E+00
          3   -1    0    0  501    0  0.00000000000E+00  0.00000000000E+00  0.99260022310E+01  0.99264378954E+01  0.93000000000E-01 0.  1.
         -3   -1    0    0    0  501 -0.00000000000E+00 -0.00000000000E+00 -0.31276223703E+02  0.31276361971E+02  0.93000000000E-01 0. -1.
        -13    1    1    2    0    0 -0.60769473710E+01  0.10888886824E+02  0.38792064775E+01  0.13059730510E+02  0.10570000000E+00 0.  1.
         13    1    1    2    0    0  0.60769473710E+01 -0.10888886824E+02 -0.25229427950E+02  0.28143069356E+02  0.10570000000E+00 0. -1.
<mgrwt>
<rscale>  0 0.35239733E+02</rscale>
<asrwt>0</asrwt>
<pdfrwt beam="1">  1        3 0.15271214E-02 0.35239733E+02</pdfrwt>
<pdfrwt beam="2">  1       -3 0.48117708E-02 0.35239733E+02</pdfrwt>
<totfact> 0.45852697E+05</totfact>
</mgrwt>
</event>
<event>
 4    1  0.1802450E-001  0.2924087E+02  0.7818608E-02  0.1606635E+00
          3   -1    0    0  501    0  0.00000000000E+00  0.00000000000E+00  0.28812924643E+01  0.28827929625E+01  0.93000000000E-01 0.  1.
         -3   -1    0    0    0  501 -0.00000000000E+00 -0.00000000000E+00 -0.74167077348E+02  0.74167135655E+02  0.93000000000E-01 0. -1.
        -13    1    1    2    0    0  0.11471712657E+02  0.83298588607E+01 -0.45055140750E+02  0.47233077609E+02  0.10570000000E+00 0.  1.
         13    1    1    2    0    0 -0.11471712657E+02 -0.83298588607E+01 -0.26230644133E+02  0.29816851008E+02  0.10570000000E+00 0. -1.
<mgrwt>
<rscale>  0 0.29240868E+02</rscale>
<asrwt>0</asrwt>
<pdfrwt beam="1">  1        3 0.44339573E-03 0.29240868E+02</pdfrwt>
<pdfrwt beam="2">  1       -3 0.11410438E-01 0.29240868E+02</pdfrwt>
<totfact> 0.64414380E+05</totfact>
</mgrwt>
</event>
<event>
 4    1  0.1802450E-001  0.5836094E+02  0.7818608E-02  0.1404842E+00
          3   -1    0    0  501    0  0.00000000000E+00  0.00000000000E+00  0.72653476120E+02  0.72653535642E+02  0.93000000000E-01 0.  1.
         -3   -1    0    0    0  501 -0.00000000000E+00 -0.00000000000E+00 -0.11719764395E+02  0.11720133381E+02  0.93000000000E-01 0. -1.
        -13    1    1    2    0    0 -0.25119805976E+02 -0.13294926997E+02  0.20906623968E+02  0.35282542912E+02  0.10570000000E+00 0.  1.
         13    1    1    2    0    0  0.25119805976E+02  0.13294926997E+02  0.40027087756E+02  0.49091126111E+02  0.10570000000E+00 0. -1.
<mgrwt>
<rscale>  0 0.58360936E+02</rscale>
<asrwt>0</asrwt>
<pdfrwt beam="1">  1        3 0.11177490E-01 0.58360936E+02</pdfrwt>
<pdfrwt beam="2">  1       -3 0.18030737E-02 0.58360936E+02</pdfrwt>
<totfact> 0.11691629E+05</totfact>
</mgrwt>
</event>
<event>
 4    1  0.1802450E-001  0.2532403E+02  0.7818608E-02  0.1656391E+00
          3   -1    0    0  501    0  0.00000000000E+00  0.00000000000E+00  0.97499361958E+01  0.97503797270E+01  0.93000000000E-01 0. -1.
         -3   -1    0    0    0  501 -0.00000000000E+00 -0.00000000000E+00 -0.16442913881E+02  0.16443176880E+02  0.93000000000E-01 0.  1.
        -13    1    1    2    0    0  0.66344068016E+01 -0.77114597358E+01 -0.11144139571E+02  0.15089234048E+02  0.10570000000E+00 0.  1.
         13    1    1    2    0    0 -0.66344068016E+01  0.77114597358E+01  0.44511618863E+01  0.11104322559E+02  0.10570000000E+00 0. -1.
<mgrwt>
<rscale>  0 0.25324029E+02</rscale>
<asrwt>0</asrwt>
<pdfrwt beam="1">  1        3 0.15000445E-02 0.25324029E+02</pdfrwt>
<pdfrwt beam="2">  1       -3 0.25297334E-02 0.25324029E+02</pdfrwt>
<totfact> 0.10381718E+06</totfact>
</mgrwt>
</event>
<event>
 4    1  0.1802450E-001  0.2604154E+02  0.7818608E-02  0.1646477E+00
         -3   -1    0    0    0  501 -0.00000000000E+00  0.00000000000E+00  0.22969495993E+01  0.22988315427E+01  0.93000000000E-01 0. -1.
          3   -1    0    0  501    0  0.00000000000E+00 -0.00000000000E+00 -0.73779015488E+02  0.73779074102E+02  0.93000000000E-01 0.  1.
        -13    1    1    2    0    0  0.12461811524E+02 -0.27534143993E+01 -0.43275363017E+02  0.45118136642E+02  0.10570000000E+00 0.  1.
         13    1    1    2    0    0 -0.12461811524E+02  0.27534143993E+01 -0.28206702871E+02  0.30959769002E+02  0.10570000000E+00 0. -1.
<mgrwt>
<rscale>  0 0.26041543E+02</rscale>
<asrwt>0</asrwt>
<pdfrwt beam="2">  1        3 0.11350765E-01 0.26041543E+02</pdfrwt>
<pdfrwt beam="1">  1       -3 0.35352619E-03 0.26041543E+02</pdfrwt>
<totfact> 0.84135879E+05</totfact>
</mgrwt>
</event>
<event>
 4    1  0.1802450E-001  0.5983231E+02  0.7818608E-02  0.1398537E+00
          3   -1    0    0  501    0  0.00000000000E+00  0.00000000000E+00  0.17951625095E+02  0.17951865991E+02  0.93000000000E-01 0.  1.
         -3   -1    0    0    0  501 -0.00000000000E+00 -0.00000000000E+00 -0.49854267333E+02  0.49854354076E+02  0.93000000000E-01 0. -1.
        -13    1    1    2    0    0 -0.22470451779E+02  0.19333380483E+02 -0.11380957190E+02  0.31752766228E+02  0.10570000000E+00 0.  1.
         13    1    1    2    0    0  0.22470451779E+02 -0.19333380483E+02 -0.20521685048E+02  0.36053453839E+02  0.10570000000E+00 0. -1.
<mgrwt>
<rscale>  0 0.59832306E+02</rscale>
<asrwt>0</asrwt>
<pdfrwt beam="1">  1        3 0.27618137E-02 0.59832306E+02</pdfrwt>
<pdfrwt beam="2">  1       -3 0.76699124E-02 0.59832306E+02</pdfrwt>
<totfact> 0.11413755E+05</totfact>
</mgrwt>
</event>
<event>
 4    1  0.1802450E-001  0.7916841E+02  0.7818608E-02  0.1331428E+00
         -3   -1    0    0    0  501 -0.00000000000E+00  0.00000000000E+00  0.25632098138E+02  0.25632266852E+02  0.93000000000E-01 0.  1.
          3   -1    0    0  501    0  0.00000000000E+00 -0.00000000000E+00 -0.61130342269E+02  0.61130413011E+02  0.93000000000E-01 0. -1.
        -13    1    1    2    0    0  0.56649168550E+01 -0.31734793433E+02  0.74264060416E+01  0.33080977561E+02  0.10570000000E+00 0.  1.
         13    1    1    2    0    0 -0.56649168550E+01  0.31734793433E+02 -0.42924650172E+02  0.53681702302E+02  0.10570000000E+00 0. -1.
<mgrwt>
<rscale>  0 0.79168411E+02</rscale>
<asrwt>0</asrwt>
<pdfrwt beam="2">  1        3 0.94046864E-02 0.79168411E+02</pdfrwt>
<pdfrwt beam="1">  1       -3 0.39434181E-02 0.79168411E+02</pdfrwt>
<totfact> 0.52247130E+04</totfact>
</mgrwt>
</event>
<event>
 4    1  0.1802450E-001  0.2829841E+02  0.7818608E-02  0.1617697E+00
         -3   -1    0    0    0  501 -0.00000000000E+00  0.00000000000E+00  0.75441592326E+01  0.75447324358E+01  0.93000000000E-01 0.  1.
          3   -1    0    0  501    0  0.00000000000E+00 -0.00000000000E+00 -0.26535414955E+02  0.26535577925E+02  0.93000000000E-01 0. -1.
        -13    1    1    2    0    0 -0.12364112493E+02 -0.77594223923E+00 -0.17726988430E+02  0.21627081528E+02  0.10570000000E+00 0. -1.
         13    1    1    2    0    0  0.12364112493E+02  0.77594223923E+00 -0.12642672918E+01  0.12453228833E+02  0.10570000000E+00 0.  1.
<mgrwt>
<rscale>  0 0.28298406E+02</rscale>
<asrwt>0</asrwt>
<pdfrwt beam="2">  1        3 0.40824281E-02 0.28298406E+02</pdfrwt>
<pdfrwt beam="1">  1       -3 0.11606965E-02 0.28298406E+02</pdfrwt>
<totfact> 0.78487889E+05</totfact>
</mgrwt>
</event>
<event>
 4    1  0.1802450E-001  0.3126034E+02  0.7818608E-02  0.1584561E+00
          3   -1    0    0  501    0  0.00000000000E+00  0.00000000000E+00  0.54947217669E+02  0.54947296372E+02  0.93000000000E-01 0. -1.
         -3   -1    0    0    0  501 -0.00000000000E+00 -0.00000000000E+00 -0.44455577390E+01  0.44465304015E+01  0.93000000000E-01 0.  1.
        -13    1    1    2    0    0 -0.13979405871E+02  0.32077604797E+01  0.37051725608E+02  0.39731033951E+02  0.10570000000E+00 0.  1.
         13    1    1    2    0    0  0.13979405871E+02 -0.32077604797E+01  0.13449934322E+02  0.19662792822E+02  0.10570000000E+00 0. -1.
<mgrwt>
<rscale>  0 0.31260342E+02</rscale>
<asrwt>0</asrwt>
<pdfrwt beam="1">  1        3 0.84534992E-02 0.31260342E+02</pdfrwt>
<pdfrwt beam="2">  1       -3 0.68401281E-03 0.31260342E+02</pdfrwt>
<totfact> 0.57802027E+05</totfact>
</mgrwt>
</event>
<event>
 4    1  0.1802450E-001  0.7907984E+02  0.7818608E-02  0.1331683E+00
         -3   -1    0    0    0  501 -0.00000000000E+00  0.00000000000E+00  0.11894453351E+03  0.11894456987E+03  0.93000000000E-01 0. -1.
          3   -1    0    0  501    0  0.00000000000E+00 -0.00000000000E+00 -0.13143783379E+02  0.13144112390E+02  0.93000000000E-01 0.  1.
        -13    1    1    2    0    0  0.37252628217E+02  0.70025661545E+01  0.71694257223E+02  0.81097915714E+02  0.10570000000E+00 0.  1.
         13    1    1    2    0    0 -0.37252628217E+02 -0.70025661545E+01  0.34106492911E+02  0.50990766546E+02  0.10570000000E+00 0. -1.
<mgrwt>
<rscale>  0 0.79079841E+02</rscale>
<asrwt>0</asrwt>
<pdfrwt beam="2">  1        3 0.20221487E-02 0.79079841E+02</pdfrwt>
<pdfrwt beam="1">  1       -3 0.18299186E-01 0.79079841E+02</pdfrwt>
<totfact> 0.47554853E+04</totfact>
</mgrwt>
</event>
<event>
 4    1  0.1802450E-001  0.2698872E+02  0.7818608E-02  0.1633978E+00
          3   -1    0    0  501    0  0.00000000000E+00  0.00000000000E+00  0.59771207605E+01  0.59778442256E+01  0.93000000000E-01 0. -1.
         -3   -1    0    0    0  501 -0.00000000000E+00 -0.00000000000E+00 -0.30463166415E+02  0.30463308373E+02  0.93000000000E-01 0.  1.
        -13    1    1    2    0    0 -0.11014702572E+02 -0.77690704202E+01 -0.11384276505E+02  0.17643555537E+02  0.10570000000E+00 0. -1.
         13    1    1    2    0    0  0.11014702572E+02  0.77690704202E+01 -0.13101769150E+02  0.18797597062E+02  0.10570000000E+00 0.  1.
<mgrwt>
<rscale>  0 0.26988723E+02</rscale>
<asrwt>0</asrwt>
<pdfrwt beam="1">  1        3 0.91962363E-03 0.26988723E+02</pdfrwt>
<pdfrwt beam="2">  1       -3 0.46867075E-02 0.26988723E+02</pdfrwt>
<totfact> 0.86867308E+05</totfact>
</mgrwt>
</event>
<event>
 4    1  0.1802450E-001  0.4756461E+02  0.7818608E-02  0.1458938E+00
         -3   -1    0    0    0  501 -0.00000000000E+00  0.00000000000E+00  0.69931250509E+02  0.69931312349E+02  0.93000000000E-01 0. -1.
          3   -1    0    0  501    0  0.00000000000E+00 -0.00000000000E+00 -0.80875817365E+01  0.80881164274E+01  0.93000000000E-01 0.  1.
        -13    1    1    2    0    0 -0.14056788659E+02 -0.13149411544E+02  0.53832221320E+02  0.57170093196E+02  0.10570000000E+00 0. -1.
         13    1    1    2    0    0  0.14056788659E+02  0.13149411544E+02  0.80114474531E+01  0.20849335580E+02  0.10570000000E+00 0.  1.
<mgrwt>
<rscale>  0 0.47564608E+02</rscale>
<asrwt>0</asrwt>
<pdfrwt beam="2">  1        3 0.12442892E-02 0.47564608E+02</pdfrwt>
<pdfrwt beam="1">  1       -3 0.10758700E-01 0.47564608E+02</pdfrwt>
<totfact> 0.19937819E+05</totfact>
</mgrwt>
</event>
<event>
 4    1  0.1802450E-001  0.2229844E+02  0.7818608E-02  0.1703141E+00
         -3   -1    0    0    0  501 -0.00000000000E+00  0.00000000000E+00  0.78804022845E+01  0.78809510318E+01  0.93000000000E-01 0.  1.
          3   -1    0    0  501    0  0.00000000000E+00 -0.00000000000E+00 -0.15772725136E+02  0.15772999309E+02  0.93000000000E-01 0. -1.
        -13    1    1    2    0    0 -0.10017831495E+02  0.28820394583E+01  0.24776525965E+00  0.10427639206E+02  0.10570000000E+00 0.  1.
         13    1    1    2    0    0  0.10017831495E+02 -0.28820394583E+01 -0.81400881112E+01  0.13226311135E+02  0.10570000000E+00 0. -1.
<mgrwt>
<rscale>  0 0.22298444E+02</rscale>
<asrwt>0</asrwt>
<pdfrwt beam="2">  1        3 0.24266364E-02 0.22298444E+02</pdfrwt>
<pdfrwt beam="1">  1       -3 0.12124329E-02 0.22298444E+02</pdfrwt>
<totfact> 0.13917767E+06</totfact>
</mgrwt>
</event>
<event>
 4    1  0.1802450E-001  0.4411742E+02  0.7818608E-02  0.1479928E+00
         -3   -1    0    0    0  501 -0.00000000000E+00  0.00000000000E+00  0.75865721373E+02  0.75865778375E+02  0.93000000000E-01 0.  1.
          3   -1    0    0  501    0  0.00000000000E+00 -0.00000000000E+00 -0.64133921147E+01  0.64140663714E+01  0.93000000000E-01 0. -1.
        -13    1    1    2    0    0 -0.11832835403E+02 -0.15743692811E+02  0.16197999738E+02  0.25500318135E+02  0.10570000000E+00 0. -1.
         13    1    1    2    0    0  0.11832835403E+02  0.15743692811E+02  0.53254329520E+02  0.56779526611E+02  0.10570000000E+00 0.  1.
<mgrwt>
<rscale>  0 0.44117421E+02</rscale>
<asrwt>0</asrwt>
<pdfrwt beam="2">  1        3 0.98673200E-03 0.44117421E+02</pdfrwt>
<pdfrwt beam="1">  1       -3 0.11671705E-01 0.44117421E+02</pdfrwt>
<totfact> 0.23784726E+05</totfact>
</mgrwt>
</event>
<event>
 4    1  0.1802450E-001  0.6762513E+02  0.7818608E-02  0.1368360E+00
          3   -1    0    0  501    0  0.00000000000E+00  0.00000000000E+00  0.16612360877E+02  0.16612621193E+02  0.93000000000E-01 0.  1.
         -3   -1    0    0    0  501 -0.00000000000E+00 -0.00000000000E+00 -0.68820783410E+02  0.68820846247E+02  0.93000000000E-01 0. -1.
        -13    1    1    2    0    0 -0.67105908721E+01  0.21456580130E+02  0.58025786435E+01  0.23218482986E+02  0.10570000000E+00 0.  1.
         13    1    1    2    0    0  0.67105908721E+01 -0.21456580130E+02 -0.58011001176E+02  0.62214984455E+02  0.10570000000E+00 0. -1.
<mgrwt>
<rscale>  0 0.67625128E+02</rscale>
<asrwt>0</asrwt>
<pdfrwt beam="1">  1        3 0.25557727E-02 0.67625128E+02</pdfrwt>
<pdfrwt beam="2">  1       -3 0.10587838E-01 0.67625128E+02</pdfrwt>
<totfact> 0.79564653E+04</totfact>
</mgrwt>
</event>
<event>
 4    1  0.1802450E-001  0.3926326E+02  0.7818608E-02  0.1513704E+00
          3   -1    0    0  501    0  0.00000000000E+00  0.00000000000E+00  0.11003827152E+03  0.11003831082E+03  0.93000000000E-01 0.  1.
         -3   -1    0    0    0  501 -0.00000000000E+00 -0.00000000000E+00 -0.35017682688E+01  0.35030029987E+01  0.93000000000E-01 0. -1.
        -13    1    1    2    0    0  0.11245910550E+02 -0.12927796200E+02  0.80973896093E+02  0.82767031115E+02  0.10570000000E+00 0.  1.
         13    1    1    2    0    0 -0.11245910550E+02  0.12927796200E+02  0.25562607159E+02  0.30774282704E+02  0.10570000000E+00 0. -1.
<mgrwt>
<rscale>  0 0.39263258E+02</rscale>
<asrwt>0</asrwt>
<pdfrwt beam="1">  1        3 0.16929062E-01 0.39263258E+02</pdfrwt>
<pdfrwt beam="2">  1       -3 0.53883160E-03 0.39263258E+02</pdfrwt>
<totfact> 0.29357089E+05</totfact>
</mgrwt>
</event>
<event>
 4    1  0.1802450E-001  0.2046733E+02  0.7818608E-02  0.1736191E+00
         -3   -1    0    0    0  501 -0.00000000000E+00  0.00000000000E+00  0.27806281948E+01  0.27821829842E+01  0.93000000000E-01 0.  1.
          3   -1    0    0  501    0  0.00000000000E+00 -0.00000000000E+00 -0.37651268952E+02  0.37651383808E+02  0.93000000000E-01 0. -1.
        -13    1    1    2    0    0 -0.91523283154E+01  0.43302819450E+01 -0.20365689768E+02  0.22743987063E+02  0.10570000000E+00 0.  1.
         13    1    1    2    0    0  0.91523283154E+01 -0.43302819450E+01 -0.14504950989E+02  0.17689579729E+02  0.10570000000E+00 0. -1.
<mgrwt>
<rscale>  0 0.20467333E+02</rscale>
<asrwt>0</asrwt>
<pdfrwt beam="2">  1        3 0.57926310E-02 0.20467333E+02</pdfrwt>
<pdfrwt beam="1">  1       -3 0.42791741E-03 0.20467333E+02</pdfrwt>
<totfact> 0.15877616E+06</totfact>
</mgrwt>
</event>
<event>
 4    1  0.1802450E-001  0.7086859E+02  0.7818608E-02  0.1357164E+00
          3   -1    0    0  501    0  0.00000000000E+00  0.00000000000E+00  0.16507169775E+02  0.16507431750E+02  0.93000000000E-01 0. -1.
         -3   -1    0    0    0  501 -0.00000000000E+00 -0.00000000000E+00 -0.76062366027E+02  0.76062422882E+02  0.93000000000E-01 0.  1.
        -13    1    1    2    0    0 -0.79920300875E+01 -0.19145270532E+02 -0.67299596280E+02  0.70424858968E+02  0.10570000000E+00 0.  1.
         13    1    1    2    0    0  0.79920300875E+01  0.19145270532E+02  0.77444000276E+01  0.22144995664E+02  0.10570000000E+00 0. -1.
<mgrwt>
<rscale>  0 0.70868587E+02</rscale>
<asrwt>0</asrwt>
<pdfrwt beam="1">  1        3 0.25395891E-02 0.70868587E+02</pdfrwt>
<pdfrwt beam="2">  1       -3 0.11701927E-01 0.70868587E+02</pdfrwt>
<totfact> 0.69209638E+04</totfact>
</mgrwt>
</event>
<event>
 4    1  0.1802450E-001  0.2129009E+02  0.7818608E-02  0.1720827E+00
         -3   -1    0    0    0  501 -0.00000000000E+00  0.00000000000E+00  0.18368108206E+01  0.18391636661E+01  0.93000000000E-01 0. -1.
          3   -1    0    0  501    0  0.00000000000E+00 -0.00000000000E+00 -0.61650372249E+02  0.61650442394E+02  0.93000000000E-01 0.  1.
        -13    1    1    2    0    0 -0.60054972138E+01  0.82379149091E+01 -0.39038388581E+02  0.40347691314E+02  0.10570000000E+00 0.  1.
         13    1    1    2    0    0  0.60054972138E+01 -0.82379149091E+01 -0.20775172847E+02  0.23141914747E+02  0.10570000000E+00 0. -1.
<mgrwt>
<rscale>  0 0.21290090E+02</rscale>
<asrwt>0</asrwt>
<pdfrwt beam="2">  1        3 0.94848574E-02 0.21290090E+02</pdfrwt>
<pdfrwt beam="1">  1       -3 0.28277271E-03 0.21290090E+02</pdfrwt>
<totfact> 0.13615917E+06</totfact>
</mgrwt>
</event>
<event>
 4    1  0.1802450E-001  0.2601473E+02  0.7818608E-02  0.1646841E+00
          3   -1    0    0  501    0  0.00000000000E+00  0.00000000000E+00  0.29844534130E+02  0.29844679030E+02  0.93000000000E-01 0. -1.
         -3   -1    0    0    0  501 -0.00000000000E+00 -0.00000000000E+00 -0.56685566381E+01  0.56693194794E+01  0.93000000000E-01 0.  1.
        -13    1    1    2    0    0 -0.51878001392E+01 -0.11147378323E+02  0.17880320904E+02  0.21700100504E+02  0.10570000000E+00 0. -1.
         13    1    1    2    0    0  0.51878001392E+01  0.11147378323E+02  0.62956565877E+01  0.13813898006E+02  0.10570000000E+00 0.  1.
<mgrwt>
<rscale>  0 0.26014730E+02</rscale>
<asrwt>0</asrwt>
<pdfrwt beam="1">  1        3 0.45915365E-02 0.26014730E+02</pdfrwt>
<pdfrwt beam="2">  1       -3 0.87215549E-03 0.26014730E+02</pdfrwt>
<totfact> 0.94728371E+05</totfact>
</mgrwt>
</event>
<event>
 4    1  0.1802450E-001  0.3036403E+02  0.7818608E-02  0.1594099E+00
         -3   -1    0    0    0  501 -0.00000000000E+00  0.00000000000E+00  0.12743131681E+02  0.12743471036E+02  0.93000000000E-01 0.  1.
          3   -1    0    0  501    0  0.00000000000E+00 -0.00000000000E+00 -0.18086970495E+02  0.18087209588E+02  0.93000000000E-01 0. -1.
        -13    1    1    2    0    0 -0.45847394772E+01  0.12688333484E+02 -0.97408646612E+01  0.16640590720E+02  0.10570000000E+00 0. -1.
         13    1    1    2    0    0  0.45847394772E+01 -0.12688333484E+02  0.43970258472E+01  0.14190089903E+02  0.10570000000E+00 0.  1.
<mgrwt>
<rscale>  0 0.30364029E+02</rscale>
<asrwt>0</asrwt>
<pdfrwt beam="2">  1        3 0.27826554E-02 0.30364029E+02</pdfrwt>
<pdfrwt beam="1">  1       -3 0.19605263E-02 0.30364029E+02</pdfrwt>
<totfact> 0.67332173E+05</totfact>
</mgrwt>
</event>
<event>
 4    1  0.1802450E-001  0.2838639E+02  0.7818608E-02  0.1616642E+00
          3   -1    0    0  501    0  0.00000000000E+00  0.00000000000E+00  0.96890176005E+01  0.96894639203E+01  0.93000000000E-01 0. -1.
         -3   -1    0    0    0  501 -0.00000000000E+00 -0.00000000000E+00 -0.20790220806E+02  0.20790428811E+02  0.93000000000E-01 0.  1.
        -13    1    1    2    0    0  0.10336692454E+02 -0.93522592095E+01 -0.26847440852E+01  0.14196160978E+02  0.10570000000E+00 0. -1.
         13    1    1    2    0    0 -0.10336692454E+02  0.93522592095E+01 -0.84164591201E+01  0.16283731754E+02  0.10570000000E+00 0.  1.
<mgrwt>
<rscale>  0 0.28386390E+02</rscale>
<asrwt>0</asrwt>
<pdfrwt beam="1">  1        3 0.14906684E-02 0.28386390E+02</pdfrwt>
<pdfrwt beam="2">  1       -3 0.31985458E-02 0.28386390E+02</pdfrwt>
<totfact> 0.78834196E+05</totfact>
</mgrwt>
</event>
<event>
 4    1  0.1802450E-001  0.3353582E+02  0.7818608E-02  0.1562001E+00
          3   -1    0    0  501    0  0.00000000000E+00  0.00000000000E+00  0.81561689335E+01  0.81566991284E+01  0.93000000000E-01 0. -1.
         -3   -1    0    0    0  501 -0.00000000000E+00 -0.00000000000E+00 -0.34470693119E+02  0.34470818573E+02  0.93000000000E-01 0.  1.
        -13    1    1    2    0    0  0.16372050318E+02  0.13985606355E+01 -0.89125364231E+01  0.18693434180E+02  0.10570000000E+00 0. -1.
         13    1    1    2    0    0 -0.16372050318E+02 -0.13985606355E+01 -0.17401987762E+02  0.23934083522E+02  0.10570000000E+00 0.  1.
<mgrwt>
<rscale>  0 0.33535818E+02</rscale>
<asrwt>0</asrwt>
<pdfrwt beam="1">  1        3 0.12548457E-02 0.33535818E+02</pdfrwt>
<pdfrwt beam="2">  1       -3 0.53032339E-02 0.33535818E+02</pdfrwt>
<totfact> 0.51380753E+05</totfact>
</mgrwt>
</event>
<event>
 4    1  0.1802450E-001  0.2907799E+02  0.7818608E-02  0.1608510E+00
          3   -1    0    0  501    0  0.00000000000E+00  0.00000000000E+00  0.23510246228E+01  0.23528633146E+01  0.93000000000E-01 0.  1.
         -3   -1    0    0    0  501 -0.00000000000E+00 -0.00000000000E+00 -0.89873719508E+02  0.89873767625E+02  0.93000000000E-01 0. -1.
        -13    1    1    2    0    0  0.83330255148E+01 -0.93658758268E+01 -0.67114234989E+02  0.68275110068E+02  0.10570000000E+00 0. -1.
         13    1    1    2    0    0 -0.83330255148E+01  0.93658758268E+01 -0.20408459896E+02  0.23951520872E+02  0.10570000000E+00 0.  1.
<mgrwt>
<rscale>  0 0.29077987E+02</rscale>
<asrwt>0</asrwt>
<pdfrwt beam="1">  1        3 0.36184130E-03 0.29077987E+02</pdfrwt>
<pdfrwt beam="2">  1       -3 0.13826869E-01 0.29077987E+02</pdfrwt>
<totfact> 0.62788718E+05</totfact>
</mgrwt>
</event>
<event>
 4    1  0.1802450E-001  0.2154734E+02  0.7818608E-02  0.1716200E+00
          3   -1    0    0  501    0  0.00000000000E+00  0.00000000000E+00  0.66205258743E+02  0.66205324062E+02  0.93000000000E-01 0.  1.
         -3   -1    0    0    0  501 -0.00000000000E+00 -0.00000000000E+00 -0.17519133901E+01  0.17543800975E+01  0.93000000000E-01 0. -1.
        -13    1    1    2    0    0 -0.35995960651E+01 -0.10128691639E+02  0.34486240219E+02  0.36122837971E+02  0.10570000000E+00 0.  1.
         13    1    1    2    0    0  0.35995960651E+01  0.10128691639E+02  0.29967105133E+02  0.31836866188E+02  0.10570000000E+00 0. -1.
<mgrwt>
<rscale>  0 0.21547335E+02</rscale>
<asrwt>0</asrwt>
<pdfrwt beam="1">  1        3 0.10185619E-01 0.21547335E+02</pdfrwt>
<pdfrwt beam="2">  1       -3 0.26971990E-03 0.21547335E+02</pdfrwt>
<totfact> 0.13101201E+06</totfact>
</mgrwt>
</event>
<event>
 4    1  0.1802450E-001  0.2778009E+02  0.7818608E-02  0.1624008E+00
         -3   -1    0    0    0  501 -0.00000000000E+00  0.00000000000E+00  0.83831899179E+02  0.83831950764E+02  0.93000000000E-01 0.  1.
          3   -1    0    0  501    0  0.00000000000E+00 -0.00000000000E+00 -0.23004393860E+01  0.23023184768E+01  0.93000000000E-01 0. -1.
        -13    1    1    2    0    0 -0.32185654829E+01 -0.11328312511E+02  0.17932279890E+02  0.21453849600E+02  0.10570000000E+00 0. -1.
         13    1    1    2    0    0  0.32185654829E+01  0.11328312511E+02  0.63599179902E+02  0.64680419640E+02  0.10570000000E+00 0.  1.
<mgrwt>
<rscale>  0 0.27780090E+02</rscale>
<asrwt>0</asrwt>
<pdfrwt beam="2">  1        3 0.35406221E-03 0.27780090E+02</pdfrwt>
<pdfrwt beam="1">  1       -3 0.12897366E-01 0.27780090E+02</pdfrwt>
<totfact> 0.70791002E+05</totfact>
</mgrwt>
</event>
<event>
 4    1  0.1802450E-001  0.5277474E+02  0.7818608E-02  0.1430925E+00
          3   -1    0    0  501    0  0.00000000000E+00  0.00000000000E+00  0.10925000775E+03  0.10925004734E+03  0.93000000000E-01 0. -1.
         -3   -1    0    0    0  501 -0.00000000000E+00 -0.00000000000E+00 -0.63730141251E+01  0.63736926533E+01  0.93000000000E-01 0.  1.
        -13    1    1    2    0    0  0.22116474676E+02  0.61764171404E+01  0.79919717294E+02  0.83153225828E+02  0.10570000000E+00 0. -1.
         13    1    1    2    0    0 -0.22116474676E+02 -0.61764171404E+01  0.22957276336E+02  0.32470514163E+02  0.10570000000E+00 0.  1.
<mgrwt>
<rscale>  0 0.52774742E+02</rscale>
<asrwt>0</asrwt>
<pdfrwt beam="1">  1        3 0.16807747E-01 0.52774742E+02</pdfrwt>
<pdfrwt beam="2">  1       -3 0.98051904E-03 0.52774742E+02</pdfrwt>
<totfact> 0.14067639E+05</totfact>
</mgrwt>
</event>
<event>
 4    1  0.1802450E-001  0.2568426E+02  0.7818608E-02  0.1651364E+00
          3   -1    0    0  501    0  0.00000000000E+00  0.00000000000E+00  0.76219926919E+02  0.76219983656E+02  0.93000000000E-01 0. -1.
         -3   -1    0    0    0  501 -0.00000000000E+00 -0.00000000000E+00 -0.21626852821E+01  0.21646839560E+01  0.93000000000E-01 0.  1.
        -13    1    1    2    0    0 -0.36946709639E+01 -0.11027202795E+02  0.53649139402E+02  0.54895274169E+02  0.10570000000E+00 0. -1.
         13    1    1    2    0    0  0.36946709639E+01  0.11027202795E+02  0.20408102235E+02  0.23489393443E+02  0.10570000000E+00 0.  1.
<mgrwt>
<rscale>  0 0.25684257E+02</rscale>
<asrwt>0</asrwt>
<pdfrwt beam="1">  1        3 0.11726300E-01 0.25684257E+02</pdfrwt>
<pdfrwt beam="2">  1       -3 0.33287894E-03 0.25684257E+02</pdfrwt>
<totfact> 0.86283491E+05</totfact>
</mgrwt>
</event>
<event>
 4    1  0.1802450E-001  0.4344848E+02  0.7818608E-02  0.1484267E+00
         -3   -1    0    0    0  501 -0.00000000000E+00  0.00000000000E+00  0.18406963581E+02  0.18407198517E+02  0.93000000000E-01 0. -1.
          3   -1    0    0  501    0  0.00000000000E+00 -0.00000000000E+00 -0.25638872934E+02  0.25639041603E+02  0.93000000000E-01 0.  1.
        -13    1    1    2    0    0  0.13867201779E+02 -0.68291462132E+01  0.11858220515E+02  0.19482430276E+02  0.10570000000E+00 0. -1.
         13    1    1    2    0    0 -0.13867201779E+02  0.68291462132E+01 -0.19090129868E+02  0.24563809844E+02  0.10570000000E+00 0.  1.
<mgrwt>
<rscale>  0 0.43448484E+02</rscale>
<asrwt>0</asrwt>
<pdfrwt beam="2">  1        3 0.39444730E-02 0.43448484E+02</pdfrwt>
<pdfrwt beam="1">  1       -3 0.28318716E-02 0.43448484E+02</pdfrwt>
<totfact> 0.27306646E+05</totfact>
</mgrwt>
</event>
<event>
 4    1  0.1802450E-001  0.7306055E+02  0.7818608E-02  0.1349984E+00
         -3   -1    0    0    0  501 -0.00000000000E+00  0.00000000000E+00  0.19047915249E+02  0.19048142280E+02  0.93000000000E-01 0.  1.
          3   -1    0    0  501    0  0.00000000000E+00 -0.00000000000E+00 -0.70057445607E+02  0.70057507334E+02  0.93000000000E-01 0. -1.
        -13    1    1    2    0    0 -0.15748971184E+02  0.31937739724E+02 -0.35442982706E+02  0.50242069101E+02  0.10570000000E+00 0.  1.
         13    1    1    2    0    0  0.15748971184E+02 -0.31937739724E+02 -0.15566547652E+02  0.38863580513E+02  0.10570000000E+00 0. -1.
<mgrwt>
<rscale>  0 0.73060554E+02</rscale>
<asrwt>0</asrwt>
<pdfrwt beam="2">  1        3 0.10778091E-01 0.73060554E+02</pdfrwt>
<pdfrwt beam="1">  1       -3 0.29304707E-02 0.73060554E+02</pdfrwt>
<totfact> 0.64360309E+04</totfact>
</mgrwt>
</event>
<event>
 4    1  0.1802450E-001  0.2955895E+02  0.7818608E-02  0.1603016E+00
         -3   -1    0    0    0  501 -0.00000000000E+00  0.00000000000E+00  0.47813332380E+01  0.47822376073E+01  0.93000000000E-01 0.  1.
          3   -1    0    0  501    0  0.00000000000E+00 -0.00000000000E+00 -0.45679235194E+02  0.45679329865E+02  0.93000000000E-01 0. -1.
        -13    1    1    2    0    0 -0.20587008323E+01  0.14542721064E+02 -0.23250287522E+02  0.27501200472E+02  0.10570000000E+00 0. -1.
         13    1    1    2    0    0  0.20587008323E+01 -0.14542721064E+02 -0.17647614434E+02  0.22960367000E+02  0.10570000000E+00 0.  1.
<mgrwt>
<rscale>  0 0.29558948E+02</rscale>
<asrwt>0</asrwt>
<pdfrwt beam="2">  1        3 0.70276512E-02 0.29558948E+02</pdfrwt>
<pdfrwt beam="1">  1       -3 0.73566661E-03 0.29558948E+02</pdfrwt>
<totfact> 0.67547048E+05</totfact>
</mgrwt>
</event>
<event>
 4    1  0.1802450E-001  0.2870776E+02  0.7818608E-02  0.1612828E+00
         -3   -1    0    0    0  501 -0.00000000000E+00  0.00000000000E+00  0.31454861977E+02  0.31454999460E+02  0.93000000000E-01 0. -1.
          3   -1    0    0  501    0  0.00000000000E+00 -0.00000000000E+00 -0.65496617326E+01  0.65503219624E+01  0.93000000000E-01 0.  1.
        -13    1    1    2    0    0 -0.81675841292E+01 -0.11503624528E+02  0.89550075888E+01  0.16710659508E+02  0.10570000000E+00 0.  1.
         13    1    1    2    0    0  0.81675841292E+01  0.11503624528E+02  0.15950192656E+02  0.21294661914E+02  0.10570000000E+00 0. -1.
<mgrwt>
<rscale>  0 0.28707760E+02</rscale>
<asrwt>0</asrwt>
<pdfrwt beam="2">  1        3 0.10077017E-02 0.28707760E+02</pdfrwt>
<pdfrwt beam="1">  1       -3 0.48392708E-02 0.28707760E+02</pdfrwt>
<totfact> 0.75010880E+05</totfact>
</mgrwt>
</event>
<event>
 4    1  0.1802450E-001  0.2991578E+02  0.7818608E-02  0.1599021E+00
         -3   -1    0    0    0  501 -0.00000000000E+00  0.00000000000E+00  0.78420777421E+02  0.78420832566E+02  0.93000000000E-01 0. -1.
          3   -1    0    0  501    0  0.00000000000E+00 -0.00000000000E+00 -0.28522371229E+01  0.28537528985E+01  0.93000000000E-01 0.  1.
        -13    1    1    2    0    0 -0.16962631069E+00  0.13714292819E+02  0.53997941200E+02  0.55712650511E+02  0.10570000000E+00 0. -1.
         13    1    1    2    0    0  0.16962631069E+00 -0.13714292819E+02  0.21570599097E+02  0.25561934953E+02  0.10570000000E+00 0.  1.
<mgrwt>
<rscale>  0 0.29915781E+02</rscale>
<asrwt>0</asrwt>
<pdfrwt beam="2">  1        3 0.43892660E-03 0.29915781E+02</pdfrwt>
<pdfrwt beam="1">  1       -3 0.12064855E-01 0.29915781E+02</pdfrwt>
<totfact> 0.60439064E+05</totfact>
</mgrwt>
</event>
<event>
 4    1  0.1802450E-001  0.2365510E+02  0.7818608E-02  0.1681106E+00
          3   -1    0    0  501    0  0.00000000000E+00  0.00000000000E+00  0.16287459897E+01  0.16313989392E+01  0.93000000000E-01 0.  1.
         -3   -1    0    0    0  501 -0.00000000000E+00 -0.00000000000E+00 -0.85816200377E+02  0.85816250770E+02  0.93000000000E-01 0. -1.
        -13    1    1    2    0    0  0.32318432079E+01  0.10201738726E+02 -0.23477403828E+02  0.25801549305E+02  0.10570000000E+00 0.  1.
         13    1    1    2    0    0 -0.32318432079E+01 -0.10201738726E+02 -0.60710050560E+02  0.61646100404E+02  0.10570000000E+00 0. -1.
<mgrwt>
<rscale>  0 0.23655104E+02</rscale>
<asrwt>0</asrwt>
<pdfrwt beam="1">  1        3 0.25078432E-03 0.23655104E+02</pdfrwt>
<pdfrwt beam="2">  1       -3 0.13202697E-01 0.23655104E+02</pdfrwt>
<totfact> 0.10137740E+06</totfact>
</mgrwt>
</event>
<event>
 4    1  0.1802450E-001  0.3613403E+02  0.7818608E-02  0.1538755E+00
         -3   -1    0    0    0  501 -0.00000000000E+00  0.00000000000E+00  0.10393726184E+02  0.10394142244E+02  0.93000000000E-01 0. -1.
          3   -1    0    0  501    0  0.00000000000E+00 -0.00000000000E+00 -0.31404086628E+02  0.31404224332E+02  0.93000000000E-01 0.  1.
        -13    1    1    2    0    0 -0.14142433028E+02 -0.10799029246E+02 -0.68879384266E+01  0.19080941090E+02  0.10570000000E+00 0. -1.
         13    1    1    2    0    0  0.14142433028E+02  0.10799029246E+02 -0.14122422017E+02  0.22717425487E+02  0.10570000000E+00 0.  1.
<mgrwt>
<rscale>  0 0.36134031E+02</rscale>
<asrwt>0</asrwt>
<pdfrwt beam="2">  1        3 0.48314405E-02 0.36134031E+02</pdfrwt>
<pdfrwt beam="1">  1       -3 0.15990774E-02 0.36134031E+02</pdfrwt>
<totfact> 0.43096410E+05</totfact>
</mgrwt>
</event>
<event>
 4    1  0.1802450E-001  0.2550008E+02  0.7818608E-02  0.1653921E+00
         -3   -1    0    0    0  501 -0.00000000000E+00  0.00000000000E+00  0.33598858292E+01  0.33611726801E+01  0.93000000000E-01 0.  1.
          3   -1    0    0  501    0  0.00000000000E+00 -0.00000000000E+00 -0.48373037683E+02  0.48373127082E+02  0.93000000000E-01 0. -1.
        -13    1    1    2    0    0 -0.84789262738E+01  0.86793716568E+01 -0.30449651885E+02  0.32778287868E+02  0.10570000000E+00 0.  1.
         13    1    1    2    0    0  0.84789262738E+01 -0.86793716568E+01 -0.14563499969E+02  0.18956011894E+02  0.10570000000E+00 0. -1.
<mgrwt>
<rscale>  0 0.25500077E+02</rscale>
<asrwt>0</asrwt>
<pdfrwt beam="2">  1        3 0.74421112E-02 0.25500077E+02</pdfrwt>
<pdfrwt beam="1">  1       -3 0.51701141E-03 0.25500077E+02</pdfrwt>
<totfact> 0.94359872E+05</totfact>
</mgrwt>
</event>
<event>
 4    1  0.1802450E-001  0.3641461E+02  0.7818608E-02  0.1536386E+00
         -3   -1    0    0    0  501 -0.00000000000E+00  0.00000000000E+00  0.10578740286E+02  0.10579149070E+02  0.93000000000E-01 0.  1.
          3   -1    0    0  501    0  0.00000000000E+00 -0.00000000000E+00 -0.31335911327E+02  0.31336049331E+02  0.93000000000E-01 0. -1.
        -13    1    1    2    0    0  0.11347262616E+02 -0.15461253555E+01  0.59137717127E+01  0.12889326625E+02  0.10570000000E+00 0.  1.
         13    1    1    2    0    0 -0.11347262616E+02  0.15461253555E+01 -0.26670942754E+02  0.29025871776E+02  0.10570000000E+00 0. -1.
<mgrwt>
<rscale>  0 0.36414608E+02</rscale>
<asrwt>0</asrwt>
<pdfrwt beam="2">  1        3 0.48209515E-02 0.36414608E+02</pdfrwt>
<pdfrwt beam="1">  1       -3 0.16275406E-02 0.36414608E+02</pdfrwt>
<totfact> 0.42285805E+05</totfact>
</mgrwt>
</event>
<event>
 4    1  0.1802450E-001  0.3034079E+02  0.7818608E-02  0.1594352E+00
         -3   -1    0    0    0  501 -0.00000000000E+00  0.00000000000E+00  0.80254819670E+01  0.80260207951E+01  0.93000000000E-01 0. -1.
          3   -1    0    0  501    0  0.00000000000E+00 -0.00000000000E+00 -0.28674687887E+02  0.28674838699E+02  0.93000000000E-01 0.  1.
        -13    1    1    2    0    0  0.79878883178E+01 -0.87658821747E+01 -0.21767045502E+02  0.24788353968E+02  0.10570000000E+00 0.  1.
         13    1    1    2    0    0 -0.79878883178E+01  0.87658821747E+01  0.11178395822E+01  0.11912505526E+02  0.10570000000E+00 0. -1.
<mgrwt>
<rscale>  0 0.30340787E+02</rscale>
<asrwt>0</asrwt>
<pdfrwt beam="2">  1        3 0.44115434E-02 0.30340787E+02</pdfrwt>
<pdfrwt beam="1">  1       -3 0.12347426E-02 0.30340787E+02</pdfrwt>
<totfact> 0.66219799E+05</totfact>
</mgrwt>
</event>
<event>
 4    1  0.1802450E-001  0.3213001E+02  0.7818608E-02  0.1575671E+00
         -3   -1    0    0    0  501 -0.00000000000E+00  0.00000000000E+00  0.21534039158E+02  0.21534239979E+02  0.93000000000E-01 0. -1.
          3   -1    0    0  501    0  0.00000000000E+00 -0.00000000000E+00 -0.11984512489E+02  0.11984873325E+02  0.93000000000E-01 0.  1.
        -13    1    1    2    0    0  0.51723670464E+01  0.15055354812E+02  0.25236705394E+01  0.16118224929E+02  0.10570000000E+00 0.  1.
         13    1    1    2    0    0 -0.51723670464E+01 -0.15055354812E+02  0.70258561293E+01  0.17400888374E+02  0.10570000000E+00 0. -1.
<mgrwt>
<rscale>  0 0.32130009E+02</rscale>
<asrwt>0</asrwt>
<pdfrwt beam="2">  1        3 0.18438144E-02 0.32130009E+02</pdfrwt>
<pdfrwt beam="1">  1       -3 0.33129723E-02 0.32130009E+02</pdfrwt>
<totfact> 0.58451647E+05</totfact>
</mgrwt>
</event>
<event>
 4    1  0.1802450E-001  0.2132404E+02  0.7818608E-02  0.1720211E+00
          3   -1    0    0  501    0  0.00000000000E+00  0.00000000000E+00  0.68572840092E+02  0.68572903156E+02  0.93000000000E-01 0.  1.
         -3   -1    0    0    0  501 -0.00000000000E+00 -0.00000000000E+00 -0.16564123420E+01  0.16590210507E+01  0.93000000000E-01 0. -1.
        -13    1    1    2    0    0 -0.10285634872E+02  0.13956679419E+01  0.25441012055E+02  0.27477234952E+02  0.10570000000E+00 0.  1.
         13    1    1    2    0    0  0.10285634872E+02 -0.13956679419E+01  0.41475415695E+02  0.42754689255E+02  0.10570000000E+00 0. -1.
<mgrwt>
<rscale>  0 0.21324045E+02</rscale>
<asrwt>0</asrwt>
<pdfrwt beam="1">  1        3 0.10549875E-01 0.21324045E+02</pdfrwt>
<pdfrwt beam="2">  1       -3 0.25503815E-03 0.21324045E+02</pdfrwt>
<totfact> 0.13319862E+06</totfact>
</mgrwt>
</event>
<event>
 4    1  0.1802450E-001  0.2078749E+02  0.7818608E-02  0.1730107E+00
          3   -1    0    0  501    0  0.00000000000E+00  0.00000000000E+00  0.41510133546E+01  0.41520550177E+01  0.93000000000E-01 0. -1.
         -3   -1    0    0    0  501 -0.00000000000E+00 -0.00000000000E+00 -0.26020555708E+02  0.26020721903E+02  0.93000000000E-01 0.  1.
        -13    1    1    2    0    0 -0.74909201310E+01 -0.71240032916E+01 -0.93759139246E+01  0.13956512520E+02  0.10570000000E+00 0.  1.
         13    1    1    2    0    0  0.74909201310E+01  0.71240032916E+01 -0.12493628428E+02  0.16216264400E+02  0.10570000000E+00 0. -1.
<mgrwt>
<rscale>  0 0.20787486E+02</rscale>
<asrwt>0</asrwt>
<pdfrwt beam="1">  1        3 0.63871037E-03 0.20787486E+02</pdfrwt>
<pdfrwt beam="2">  1       -3 0.40032552E-02 0.20787486E+02</pdfrwt>
<totfact> 0.15873532E+06</totfact>
</mgrwt>
</event>
<event>
 4    1  0.1802450E-001  0.5175730E+02  0.7818608E-02  0.1436087E+00
          3   -1    0    0  501    0  0.00000000000E+00  0.00000000000E+00  0.39417636680E+02  0.39417746390E+02  0.93000000000E-01 0. -1.
         -3   -1    0    0    0  501 -0.00000000000E+00 -0.00000000000E+00 -0.16989708825E+02  0.16989963359E+02  0.93000000000E-01 0.  1.
        -13    1    1    2    0    0 -0.19089338620E+02  0.17462212580E+02  0.10558644622E+02  0.27943297334E+02  0.10570000000E+00 0. -1.
         13    1    1    2    0    0  0.19089338620E+02 -0.17462212580E+02  0.11869283233E+02  0.28464412415E+02  0.10570000000E+00 0.  1.
<mgrwt>
<rscale>  0 0.51757297E+02</rscale>
<asrwt>0</asrwt>
<pdfrwt beam="1">  1        3 0.60642797E-02 0.51757297E+02</pdfrwt>
<pdfrwt beam="2">  1       -3 0.26138294E-02 0.51757297E+02</pdfrwt>
<totfact> 0.17032119E+05</totfact>
</mgrwt>
</event>
<event>
 4    1  0.1802450E-001  0.2241165E+02  0.7818608E-02  0.1701228E+00
         -3   -1    0    0    0  501 -0.00000000000E+00  0.00000000000E+00  0.18964015705E+02  0.18964243740E+02  0.93000000000E-01 0.  1.
          3   -1    0    0  501    0  0.00000000000E+00 -0.00000000000E+00 -0.66209217862E+01  0.66215749108E+01  0.93000000000E-01 0. -1.
        -13    1    1    2    0    0  0.55096641650E+01 -0.89071691870E+01  0.10718805260E+02  0.14986594705E+02  0.10570000000E+00 0. -1.
         13    1    1    2    0    0 -0.55096641650E+01  0.89071691870E+01  0.16242886579E+01  0.10599223947E+02  0.10570000000E+00 0.  1.
<mgrwt>
<rscale>  0 0.22411652E+02</rscale>
<asrwt>0</asrwt>
<pdfrwt beam="2">  1        3 0.10186711E-02 0.22411652E+02</pdfrwt>
<pdfrwt beam="1">  1       -3 0.29176087E-02 0.22411652E+02</pdfrwt>
<totfact> 0.13671488E+06</totfact>
</mgrwt>
</event>
<event>
 4    1  0.1802450E-001  0.2457775E+02  0.7818608E-02  0.1667142E+00
         -3   -1    0    0    0  501 -0.00000000000E+00  0.00000000000E+00  0.12706559662E+01  0.12740547808E+01  0.93000000000E-01 0.  1.
          3   -1    0    0  501    0  0.00000000000E+00 -0.00000000000E+00 -0.11868707985E+03  0.11868711629E+03  0.93000000000E-01 0. -1.
        -13    1    1    2    0    0 -0.10758370453E+02 -0.56948170714E+01 -0.66921803078E+02  0.68019941018E+02  0.10570000000E+00 0. -1.
         13    1    1    2    0    0  0.10758370453E+02  0.56948170714E+01 -0.50494620810E+02  0.51941230054E+02  0.10570000000E+00 0.  1.
<mgrwt>
<rscale>  0 0.24577753E+02</rscale>
<asrwt>0</asrwt>
<pdfrwt beam="2">  1        3 0.18259806E-01 0.24577753E+02</pdfrwt>
<pdfrwt beam="1">  1       -3 0.19574988E-03 0.24577753E+02</pdfrwt>
<totfact> 0.86076271E+05</totfact>
</mgrwt>
</event>
<event>
 4    1  0.1802450E-001  0.2913669E+02  0.7818608E-02  0.1607832E+00
          3   -1    0    0  501    0  0.00000000000E+00  0.00000000000E+00  0.68967228959E+02  0.68967291663E+02  0.93000000000E-01 0.  1.
         -3   -1    0    0    0  501 -0.00000000000E+00 -0.00000000000E+00 -0.30765878199E+01  0.30779931146E+01  0.93000000000E-01 0. -1.
        -13    1    1    2    0    0  0.10503260838E+02 -0.39780253650E+01  0.55886844668E+02  0.57004331006E+02  0.10570000000E+00 0.  1.
         13    1    1    2    0    0 -0.10503260838E+02  0.39780253650E+01  0.10003796472E+02  0.15040953772E+02  0.10570000000E+00 0. -1.
<mgrwt>
<rscale>  0 0.29136686E+02</rscale>
<asrwt>0</asrwt>
<pdfrwt beam="1">  1        3 0.10610455E-01 0.29136686E+02</pdfrwt>
<pdfrwt beam="2">  1       -3 0.47343417E-03 0.29136686E+02</pdfrwt>
<totfact> 0.65793433E+05</totfact>
</mgrwt>
</event>
<event>
 4    1  0.1802450E-001  0.4467912E+02  0.7818608E-02  0.1476355E+00
          3   -1    0    0  501    0  0.00000000000E+00  0.00000000000E+00  0.59690423673E+01  0.59697668114E+01  0.93000000000E-01 0. -1.
         -3   -1    0    0    0  501 -0.00000000000E+00 -0.00000000000E+00 -0.83601541157E+02  0.83601592885E+02  0.93000000000E-01 0.  1.
        -13    1    1    2    0    0  0.88448472865E+01 -0.17968113054E+02 -0.18974056386E+02  0.27588229346E+02  0.10570000000E+00 0. -1.
         13    1    1    2    0    0 -0.88448472865E+01  0.17968113054E+02 -0.58658442404E+02  0.61983130350E+02  0.10570000000E+00 0.  1.
<mgrwt>
<rscale>  0 0.44679118E+02</rscale>
<asrwt>0</asrwt>
<pdfrwt beam="1">  1        3 0.91837398E-03 0.44679118E+02</pdfrwt>
<pdfrwt beam="2">  1       -3 0.12861834E-01 0.44679118E+02</pdfrwt>
<totfact> 0.22647530E+05</totfact>
</mgrwt>
</event>
<event>
 4    1  0.1802450E-001  0.2974211E+02  0.7818608E-02  0.1600957E+00
          3   -1    0    0  501    0  0.00000000000E+00  0.00000000000E+00  0.84080211871E+01  0.84085355017E+01  0.93000000000E-01 0.  1.
         -3   -1    0    0    0  501 -0.00000000000E+00 -0.00000000000E+00 -0.26300658272E+02  0.26300822697E+02  0.93000000000E-01 0. -1.
        -13    1    1    2    0    0  0.68270844315E+01  0.93133648626E+01 -0.19880731888E+02  0.22991357502E+02  0.10570000000E+00 0. -1.
         13    1    1    2    0    0 -0.68270844315E+01 -0.93133648626E+01  0.19880948027E+01  0.11718000697E+02  0.10570000000E+00 0.  1.
<mgrwt>
<rscale>  0 0.29742110E+02</rscale>
<asrwt>0</asrwt>
<pdfrwt beam="1">  1        3 0.12935939E-02 0.29742110E+02</pdfrwt>
<pdfrwt beam="2">  1       -3 0.40463073E-02 0.29742110E+02</pdfrwt>
<totfact> 0.69811543E+05</totfact>
</mgrwt>
</event>
<event>
 4    1  0.1802450E-001  0.2332749E+02  0.7818608E-02  0.1686256E+00
         -3   -1    0    0    0  501 -0.00000000000E+00  0.00000000000E+00  0.37251700717E+02  0.37251816806E+02  0.93000000000E-01 0.  1.
          3   -1    0    0  501    0  0.00000000000E+00 -0.00000000000E+00 -0.36512796275E+01  0.36524638148E+01  0.93000000000E-01 0. -1.
        -13    1    1    2    0    0 -0.98867645116E+01 -0.51872452266E+01  0.22714448123E+02  0.25310332901E+02  0.10570000000E+00 0. -1.
         13    1    1    2    0    0  0.98867645116E+01  0.51872452266E+01  0.10885972967E+02  0.15593947719E+02  0.10570000000E+00 0.  1.
<mgrwt>
<rscale>  0 0.23327492E+02</rscale>
<asrwt>0</asrwt>
<pdfrwt beam="2">  1        3 0.56183538E-03 0.23327492E+02</pdfrwt>
<pdfrwt beam="1">  1       -3 0.57311306E-02 0.23327492E+02</pdfrwt>
<totfact> 0.11901300E+06</totfact>
</mgrwt>
</event>
<event>
 4    1  0.1802450E-001  0.2752295E+02  0.7818608E-02  0.1627202E+00
          3   -1    0    0  501    0  0.00000000000E+00  0.00000000000E+00  0.12986916333E+01  0.13020172651E+01  0.93000000000E-01 0. -1.
         -3   -1    0    0    0  501 -0.00000000000E+00 -0.00000000000E+00 -0.14563249344E+03  0.14563252313E+03  0.93000000000E-01 0.  1.
        -13    1    1    2    0    0 -0.12386527967E+02  0.58819794250E+01 -0.78354346420E+02  0.79545198048E+02  0.10570000000E+00 0. -1.
         13    1    1    2    0    0  0.12386527967E+02 -0.58819794250E+01 -0.65979455382E+02  0.67389342348E+02  0.10570000000E+00 0.  1.
<mgrwt>
<rscale>  0 0.27522951E+02</rscale>
<asrwt>0</asrwt>
<pdfrwt beam="1">  1        3 0.20005693E-03 0.27522951E+02</pdfrwt>
<pdfrwt beam="2">  1       -3 0.22405244E-01 0.27522951E+02</pdfrwt>
<totfact> 0.62800018E+05</totfact>
</mgrwt>
</event>
<event>
 4    1  0.1802450E-001  0.3106313E+02  0.7818608E-02  0.1586626E+00
         -3   -1    0    0    0  501 -0.00000000000E+00  0.00000000000E+00  0.11303471950E+03  0.11303475776E+03  0.93000000000E-01 0. -1.
          3   -1    0    0  501    0  0.00000000000E+00 -0.00000000000E+00 -0.21330670758E+01  0.21350934756E+01  0.93000000000E-01 0.  1.
        -13    1    1    2    0    0  0.67143240751E+01 -0.11987708117E+02  0.28604311529E+02  0.31733343729E+02  0.10570000000E+00 0.  1.
         13    1    1    2    0    0 -0.67143240751E+01  0.11987708117E+02  0.82297340895E+02  0.83436507505E+02  0.10570000000E+00 0. -1.
<mgrwt>
<rscale>  0 0.31063131E+02</rscale>
<asrwt>0</asrwt>
<pdfrwt beam="2">  1        3 0.32832304E-03 0.31063131E+02</pdfrwt>
<pdfrwt beam="1">  1       -3 0.17390113E-01 0.31063131E+02</pdfrwt>
<totfact> 0.51006546E+05</totfact>
</mgrwt>
</event>
<event>
 4    1  0.1802450E-001  0.3440140E+02  0.7818608E-02  0.1553981E+00
         -3   -1    0    0    0  501 -0.00000000000E+00  0.00000000000E+00  0.14799654165E+02  0.14799946365E+02  0.93000000000E-01 0.  1.
          3   -1    0    0  501    0  0.00000000000E+00 -0.00000000000E+00 -0.19990680212E+02  0.19990896536E+02  0.93000000000E-01 0. -1.
        -13    1    1    2    0    0  0.12609760435E+02 -0.11679410411E+02 -0.32649288874E+01  0.17495302767E+02  0.10570000000E+00 0. -1.
         13    1    1    2    0    0 -0.12609760435E+02  0.11679410411E+02 -0.19260971594E+01  0.17295540134E+02  0.10570000000E+00 0.  1.
<mgrwt>
<rscale>  0 0.34401395E+02</rscale>
<asrwt>0</asrwt>
<pdfrwt beam="2">  1        3 0.30755284E-02 0.34401395E+02</pdfrwt>
<pdfrwt beam="1">  1       -3 0.22769090E-02 0.34401395E+02</pdfrwt>
<totfact> 0.49508300E+05</totfact>
</mgrwt>
</event>
<event>
 4    1  0.1802450E-001  0.2879245E+02  0.7818608E-02  0.1611833E+00
         -3   -1    0    0    0  501 -0.00000000000E+00  0.00000000000E+00  0.47177411920E+02  0.47177503584E+02  0.93000000000E-01 0. -1.
          3   -1    0    0  501    0  0.00000000000E+00 -0.00000000000E+00 -0.43924311826E+01  0.43934156068E+01  0.93000000000E-01 0.  1.
        -13    1    1    2    0    0  0.18404881748E+01 -0.10664374772E+02  0.43886872206E+01  0.11678528760E+02  0.10570000000E+00 0.  1.
         13    1    1    2    0    0 -0.18404881748E+01  0.10664374772E+02  0.38396293517E+02  0.39892390431E+02  0.10570000000E+00 0. -1.
<mgrwt>
<rscale>  0 0.28792449E+02</rscale>
<asrwt>0</asrwt>
<pdfrwt beam="2">  1        3 0.67584143E-03 0.28792449E+02</pdfrwt>
<pdfrwt beam="1">  1       -3 0.72581460E-02 0.28792449E+02</pdfrwt>
<totfact> 0.71556231E+05</totfact>
</mgrwt>
</event>
<event>
 4    1  0.1802450E-001  0.2554058E+02  0.7818608E-02  0.1653357E+00
          3   -1    0    0  501    0  0.00000000000E+00  0.00000000000E+00  0.28860375076E+02  0.28860524918E+02  0.93000000000E-01 0.  1.
         -3   -1    0    0    0  501 -0.00000000000E+00 -0.00000000000E+00 -0.56501165822E+01  0.56508819128E+01  0.93000000000E-01 0. -1.
        -13    1    1    2    0    0  0.12745158699E+02 -0.37479030230E+00  0.10659682370E+02  0.16619853753E+02  0.10570000000E+00 0.  1.
         13    1    1    2    0    0 -0.12745158699E+02  0.37479030230E+00  0.12550576124E+02  0.17891553078E+02  0.10570000000E+00 0. -1.
<mgrwt>
<rscale>  0 0.25540578E+02</rscale>
<asrwt>0</asrwt>
<pdfrwt beam="1">  1        3 0.44401281E-02 0.25540578E+02</pdfrwt>
<pdfrwt beam="2">  1       -3 0.86931911E-03 0.25540578E+02</pdfrwt>
<totfact> 0.99082829E+05</totfact>
</mgrwt>
</event>
<event>
 4    1  0.1802450E-001  0.3156431E+02  0.7818608E-02  0.1581414E+00
          3   -1    0    0  501    0  0.00000000000E+00  0.00000000000E+00  0.12518451247E+03  0.12518454701E+03  0.93000000000E-01 0.  1.
         -3   -1    0    0    0  501 -0.00000000000E+00 -0.00000000000E+00 -0.19885524302E+01  0.19907259398E+01  0.93000000000E-01 0. -1.
        -13    1    1    2    0    0  0.24393540725E+00 -0.15643352198E+02  0.53251620726E+02  0.55502434676E+02  0.10570000000E+00 0. -1.
         13    1    1    2    0    0 -0.24393540725E+00  0.15643352198E+02  0.69944339310E+02  0.71672838276E+02  0.10570000000E+00 0.  1.
<mgrwt>
<rscale>  0 0.31564307E+02</rscale>
<asrwt>0</asrwt>
<pdfrwt beam="1">  1        3 0.19259330E-01 0.31564307E+02</pdfrwt>
<pdfrwt beam="2">  1       -3 0.30610092E-03 0.31564307E+02</pdfrwt>
<totfact> 0.47809364E+05</totfact>
</mgrwt>
</event>
<event>
 4    1  0.1802450E-001  0.3540696E+02  0.7818608E-02  0.1545016E+00
          3   -1    0    0  501    0  0.00000000000E+00  0.00000000000E+00  0.26432922326E+02  0.26433085929E+02  0.93000000000E-01 0.  1.
         -3   -1    0    0    0  501 -0.00000000000E+00 -0.00000000000E+00 -0.11856541932E+02  0.11856906662E+02  0.93000000000E-01 0. -1.
        -13    1    1    2    0    0 -0.11333403168E+02  0.12777669640E+02  0.12324328685E+02  0.21062172700E+02  0.10570000000E+00 0.  1.
         13    1    1    2    0    0  0.11333403168E+02 -0.12777669640E+02  0.22520517090E+01  0.17227819891E+02  0.10570000000E+00 0. -1.
<mgrwt>
<rscale>  0 0.35406958E+02</rscale>
<asrwt>0</asrwt>
<pdfrwt beam="1">  1        3 0.40666441E-02 0.35406958E+02</pdfrwt>
<pdfrwt beam="2">  1       -3 0.18241240E-02 0.35406958E+02</pdfrwt>
<totfact> 0.45728214E+05</totfact>
</mgrwt>
</event>
<event>
 4    1  0.1802450E-001  0.3497949E+02  0.7818608E-02  0.1548783E+00
         -3   -1    0    0    0  501 -0.00000000000E+00  0.00000000000E+00  0.19666384942E+02  0.19666604833E+02  0.93000000000E-01 0. -1.
          3   -1    0    0  501    0  0.00000000000E+00 -0.00000000000E+00 -0.15553562479E+02  0.15553840516E+02  0.93000000000E-01 0.  1.
        -13    1    1    2    0    0 -0.15966667748E+02  0.38352907343E+01 -0.40046908074E+01  0.16902445236E+02  0.10570000000E+00 0.  1.
         13    1    1    2    0    0  0.15966667748E+02 -0.38352907343E+01  0.81175132700E+01  0.18318000114E+02  0.10570000000E+00 0. -1.
<mgrwt>
<rscale>  0 0.34979486E+02</rscale>
<asrwt>0</asrwt>
<pdfrwt beam="2">  1        3 0.23928941E-02 0.34979486E+02</pdfrwt>
<pdfrwt beam="1">  1       -3 0.30256360E-02 0.34979486E+02</pdfrwt>
<totfact> 0.47515491E+05</totfact>
</mgrwt>
</event>
<event>
 4    1  0.1802450E-001  0.2427470E+02  0.7818608E-02  0.1671644E+00
          3   -1    0    0  501    0  0.00000000000E+00  0.00000000000E+00  0.63282138647E+02  0.63282206984E+02  0.93000000000E-01 0. -1.
         -3   -1    0    0    0  501 -0.00000000000E+00 -0.00000000000E+00 -0.23269131200E+01  0.23287708491E+01  0.93000000000E-01 0.  1.
        -13    1    1    2    0    0  0.85020491844E+01  0.76984731261E+01  0.41205161708E+02  0.42771811426E+02  0.10570000000E+00 0. -1.
         13    1    1    2    0    0 -0.85020491844E+01 -0.76984731261E+01  0.19750063819E+02  0.22839166407E+02  0.10570000000E+00 0.  1.
<mgrwt>
<rscale>  0 0.24274697E+02</rscale>
<asrwt>0</asrwt>
<pdfrwt beam="1">  1        3 0.97358623E-02 0.24274697E+02</pdfrwt>
<pdfrwt beam="2">  1       -3 0.35813477E-03 0.24274697E+02</pdfrwt>
<totfact> 0.10135528E+06</totfact>
</mgrwt>
</event>
<event>
 4    1  0.1802450E-001  0.2554717E+02  0.7818608E-02  0.1653265E+00
          3   -1    0    0  501    0  0.00000000000E+00  0.00000000000E+00  0.28588635376E+02  0.28588786642E+02  0.93000000000E-01 0.  1.
         -3   -1    0    0    0  501 -0.00000000000E+00 -0.00000000000E+00 -0.57067743851E+01  0.57075321184E+01  0.93000000000E-01 0. -1.
        -13    1    1    2    0    0 -0.12669603234E+01  0.12557782498E+02  0.14075121864E+02  0.18905642483E+02  0.10570000000E+00 0.  1.
         13    1    1    2    0    0  0.12669603234E+01 -0.12557782498E+02  0.88067391273E+01  0.15390676277E+02  0.10570000000E+00 0. -1.
<mgrwt>
<rscale>  0 0.25547170E+02</rscale>
<asrwt>0</asrwt>
<pdfrwt beam="1">  1        3 0.43983214E-02 0.25547170E+02</pdfrwt>
<pdfrwt beam="2">  1       -3 0.87803524E-03 0.25547170E+02</pdfrwt>
<totfact> 0.99093121E+05</totfact>
</mgrwt>
</event>
<event>
 4    1  0.1802450E-001  0.3092513E+02  0.7818608E-02  0.1588082E+00
         -3   -1    0    0    0  501 -0.00000000000E+00  0.00000000000E+00  0.61768233891E+02  0.61768303903E+02  0.93000000000E-01 0. -1.
          3   -1    0    0  501    0  0.00000000000E+00 -0.00000000000E+00 -0.38701429807E+01  0.38712602201E+01  0.93000000000E-01 0.  1.
        -13    1    1    2    0    0  0.79120030602E+01  0.10136741915E+02  0.47173964214E+02  0.48895269722E+02  0.10570000000E+00 0. -1.
         13    1    1    2    0    0 -0.79120030602E+01 -0.10136741915E+02  0.10724126697E+02  0.16744294401E+02  0.10570000000E+00 0.  1.
<mgrwt>
<rscale>  0 0.30925126E+02</rscale>
<asrwt>0</asrwt>
<pdfrwt beam="2">  1        3 0.59549793E-03 0.30925126E+02</pdfrwt>
<pdfrwt beam="1">  1       -3 0.95028967E-02 0.30925126E+02</pdfrwt>
<totfact> 0.58285286E+05</totfact>
</mgrwt>
</event>
<event>
 4    1  0.1802450E-001  0.2098535E+02  0.7818608E-02  0.1726415E+00
         -3   -1    0    0    0  501 -0.00000000000E+00  0.00000000000E+00  0.31850890785E+01  0.31864465221E+01  0.93000000000E-01 0. -1.
          3   -1    0    0  501    0  0.00000000000E+00 -0.00000000000E+00 -0.34557352798E+02  0.34557477938E+02  0.93000000000E-01 0.  1.
        -13    1    1    2    0    0 -0.84304792646E+01  0.59462263870E+01 -0.19124423459E+02  0.21729825908E+02  0.10570000000E+00 0. -1.
         13    1    1    2    0    0  0.84304792646E+01 -0.59462263870E+01 -0.12247840261E+02  0.16014098551E+02  0.10570000000E+00 0.  1.
<mgrwt>
<rscale>  0 0.20985350E+02</rscale>
<asrwt>0</asrwt>
<pdfrwt beam="2">  1        3 0.53166296E-02 0.20985350E+02</pdfrwt>
<pdfrwt beam="1">  1       -3 0.49012777E-03 0.20985350E+02</pdfrwt>
<totfact> 0.15167169E+06</totfact>
</mgrwt>
</event>
<event>
 4    1  0.1802450E-001  0.2193125E+02  0.7818608E-02  0.1709444E+00
          3   -1    0    0  501    0  0.00000000000E+00  0.00000000000E+00  0.77647933574E+02  0.77647989268E+02  0.93000000000E-01 0.  1.
         -3   -1    0    0    0  501 -0.00000000000E+00 -0.00000000000E+00 -0.15471396205E+01  0.15499322583E+01  0.93000000000E-01 0. -1.
        -13    1    1    2    0    0 -0.92402935051E+01  0.52806932596E+01  0.28519957896E+02  0.30441220676E+02  0.10570000000E+00 0. -1.
         13    1    1    2    0    0  0.92402935051E+01 -0.52806932596E+01  0.47580836058E+02  0.48756700851E+02  0.10570000000E+00 0.  1.
<mgrwt>
<rscale>  0 0.21931255E+02</rscale>
<asrwt>0</asrwt>
<pdfrwt beam="1">  1        3 0.11946057E-01 0.21931255E+02</pdfrwt>
<pdfrwt beam="2">  1       -3 0.23824054E-03 0.21931255E+02</pdfrwt>
<totfact> 0.12232425E+06</totfact>
</mgrwt>
</event>
<event>
 4    1  0.1802450E-001  0.2889655E+02  0.7818608E-02  0.1610616E+00
         -3   -1    0    0    0  501 -0.00000000000E+00  0.00000000000E+00  0.60923454261E+01  0.60930552099E+01  0.93000000000E-01 0.  1.
          3   -1    0    0  501    0  0.00000000000E+00 -0.00000000000E+00 -0.34261975721E+02  0.34262101939E+02  0.93000000000E-01 0. -1.
        -13    1    1    2    0    0 -0.32106837025E+01  0.10504894329E+02 -0.97815116137E+00  0.11028565042E+02  0.10570000000E+00 0.  1.
         13    1    1    2    0    0  0.32106837025E+01 -0.10504894329E+02 -0.27191479133E+02  0.29326592108E+02  0.10570000000E+00 0. -1.
<mgrwt>
<rscale>  0 0.28896551E+02</rscale>
<asrwt>0</asrwt>
<pdfrwt beam="2">  1        3 0.52711374E-02 0.28896551E+02</pdfrwt>
<pdfrwt beam="1">  1       -3 0.93734824E-03 0.28896551E+02</pdfrwt>
<totfact> 0.73347657E+05</totfact>
</mgrwt>
</event>
<event>
 4    1  0.1802450E-001  0.4083220E+02  0.7818608E-02  0.1502175E+00
         -3   -1    0    0    0  501 -0.00000000000E+00  0.00000000000E+00  0.91213081501E+01  0.91217822474E+01  0.93000000000E-01 0.  1.
          3   -1    0    0  501    0  0.00000000000E+00 -0.00000000000E+00 -0.45695360278E+02  0.45695454915E+02  0.93000000000E-01 0. -1.
        -13    1    1    2    0    0  0.12260758703E+01  0.16307762854E+02 -0.34694087910E+02  0.38355407699E+02  0.10570000000E+00 0. -1.
         13    1    1    2    0    0 -0.12260758703E+01 -0.16307762854E+02 -0.18799642174E+01  0.16461829464E+02  0.10570000000E+00 0.  1.
<mgrwt>
<rscale>  0 0.40832196E+02</rscale>
<asrwt>0</asrwt>
<pdfrwt beam="2">  1        3 0.70300991E-02 0.40832196E+02</pdfrwt>
<pdfrwt beam="1">  1       -3 0.14033219E-02 0.40832196E+02</pdfrwt>
<totfact> 0.30876443E+05</totfact>
</mgrwt>
</event>
<event>
 4    1  0.1802450E-001  0.3054019E+02  0.7818608E-02  0.1592193E+00
         -3   -1    0    0    0  501 -0.00000000000E+00  0.00000000000E+00  0.34109623206E+01  0.34122299091E+01  0.93000000000E-01 0. -1.
          3   -1    0    0  501    0  0.00000000000E+00 -0.00000000000E+00 -0.68346704310E+02  0.68346767583E+02  0.93000000000E-01 0.  1.
        -13    1    1    2    0    0 -0.15086065815E+02 -0.21990669117E+01 -0.30447528855E+02  0.34051262281E+02  0.10570000000E+00 0. -1.
         13    1    1    2    0    0  0.15086065815E+02  0.21990669117E+01 -0.34488213135E+02  0.37707735211E+02  0.10570000000E+00 0.  1.
<mgrwt>
<rscale>  0 0.30540189E+02</rscale>
<asrwt>0</asrwt>
<pdfrwt beam="2">  1        3 0.10514979E-01 0.30540189E+02</pdfrwt>
<pdfrwt beam="1">  1       -3 0.52486586E-03 0.30540189E+02</pdfrwt>
<totfact> 0.59033873E+05</totfact>
</mgrwt>
</event>
<event>
 4    1  0.1802450E-001  0.2132804E+02  0.7818608E-02  0.1720139E+00
          3   -1    0    0  501    0  0.00000000000E+00  0.00000000000E+00  0.20292540657E+02  0.20292753763E+02  0.93000000000E-01 0. -1.
         -3   -1    0    0    0  501 -0.00000000000E+00 -0.00000000000E+00 -0.56034649104E+01  0.56042366119E+01  0.93000000000E-01 0.  1.
        -13    1    1    2    0    0 -0.10130801662E+02  0.18874262982E+01  0.10673058797E+02  0.14836471175E+02  0.10570000000E+00 0. -1.
         13    1    1    2    0    0  0.10130801662E+02 -0.18874262982E+01  0.40160169488E+01  0.11060519200E+02  0.10570000000E+00 0.  1.
<mgrwt>
<rscale>  0 0.21328037E+02</rscale>
<asrwt>0</asrwt>
<pdfrwt beam="1">  1        3 0.31220051E-02 0.21328037E+02</pdfrwt>
<pdfrwt beam="2">  1       -3 0.86214728E-03 0.21328037E+02</pdfrwt>
<totfact> 0.15227987E+06</totfact>
</mgrwt>
</event>
<event>
 4    1  0.1802450E-001  0.2321315E+03  0.7818608E-02  0.1125148E+00
          3   -1    0    0  501    0  0.00000000000E+00  0.00000000000E+00  0.28434876509E+03  0.28434878030E+03  0.93000000000E-01 0.  1.
         -3   -1    0    0    0  501 -0.00000000000E+00 -0.00000000000E+00 -0.47375778631E+02  0.47375869911E+02  0.93000000000E-01 0. -1.
        -13    1    1    2    0    0  0.62800704498E+02 -0.97561227523E+02  0.11416875699E+03  0.16277787886E+03  0.10570000000E+00 0. -1.
         13    1    1    2    0    0 -0.62800704498E+02  0.97561227523E+02  0.12280422947E+03  0.16894677135E+03  0.10570000000E+00 0.  1.
<mgrwt>
<rscale>  0 0.23213153E+03</rscale>
<asrwt>0</asrwt>
<pdfrwt beam="1">  1        3 0.43745971E-01 0.23213153E+03</pdfrwt>
<pdfrwt beam="2">  1       -3 0.72885897E-02 0.23213153E+03</pdfrwt>
<totfact> 0.16159596E+03</totfact>
</mgrwt>
</event>
<event>
 4    1  0.1802450E-001  0.2239279E+02  0.7818608E-02  0.1701546E+00
          3   -1    0    0  501    0  0.00000000000E+00  0.00000000000E+00  0.23543725927E+02  0.23543909605E+02  0.93000000000E-01 0. -1.
         -3   -1    0    0    0  501 -0.00000000000E+00 -0.00000000000E+00 -0.53239182228E+01  0.53247304386E+01  0.93000000000E-01 0.  1.
        -13    1    1    2    0    0 -0.86868470135E+01  0.62376722481E+01  0.48383698745E+01  0.11738435230E+02  0.10570000000E+00 0. -1.
         13    1    1    2    0    0  0.86868470135E+01 -0.62376722481E+01  0.13381437829E+02  0.17130204814E+02  0.10570000000E+00 0.  1.
<mgrwt>
<rscale>  0 0.22392789E+02</rscale>
<asrwt>0</asrwt>
<pdfrwt beam="1">  1        3 0.36221883E-02 0.22392789E+02</pdfrwt>
<pdfrwt beam="2">  1       -3 0.81914094E-03 0.22392789E+02</pdfrwt>
<totfact> 0.13543449E+06</totfact>
</mgrwt>
</event>
<event>
 4    1  0.1802450E-001  0.2114157E+02  0.7818608E-02  0.1723535E+00
          3   -1    0    0  501    0  0.00000000000E+00  0.00000000000E+00  0.24440124801E+02  0.24440301743E+02  0.93000000000E-01 0.  1.
         -3   -1    0    0    0  501 -0.00000000000E+00 -0.00000000000E+00 -0.45713850536E+01  0.45723309491E+01  0.93000000000E-01 0. -1.
        -13    1    1    2    0    0  0.10464816749E+02 -0.74677113194E+00  0.11702607136E+02  0.15717259398E+02  0.10570000000E+00 0. -1.
         13    1    1    2    0    0 -0.10464816749E+02  0.74677113194E+00  0.81661326120E+01  0.13295373295E+02  0.10570000000E+00 0.  1.
<mgrwt>
<rscale>  0 0.21141571E+02</rscale>
<asrwt>0</asrwt>
<pdfrwt beam="1">  1        3 0.37601055E-02 0.21141571E+02</pdfrwt>
<pdfrwt beam="2">  1       -3 0.70337639E-03 0.21141571E+02</pdfrwt>
<totfact> 0.15358265E+06</totfact>
</mgrwt>
</event>
<event>
 4    1  0.1802450E-001  0.2072827E+02  0.7818608E-02  0.1731222E+00
         -3   -1    0    0    0  501 -0.00000000000E+00  0.00000000000E+00  0.48526002200E+01  0.48534913099E+01  0.93000000000E-01 0. -1.
          3   -1    0    0  501    0  0.00000000000E+00 -0.00000000000E+00 -0.22132593680E+02  0.22132789070E+02  0.93000000000E-01 0.  1.
        -13    1    1    2    0    0  0.78908153453E+01  0.64189774295E+01 -0.11222856362E+02  0.15147010116E+02  0.10570000000E+00 0.  1.
         13    1    1    2    0    0 -0.78908153453E+01 -0.64189774295E+01 -0.60571370982E+01  0.11839270263E+02  0.10570000000E+00 0. -1.
<mgrwt>
<rscale>  0 0.20728269E+02</rscale>
<asrwt>0</asrwt>
<pdfrwt beam="2">  1        3 0.34050979E-02 0.20728269E+02</pdfrwt>
<pdfrwt beam="1">  1       -3 0.74663747E-03 0.20728269E+02</pdfrwt>
<totfact> 0.16144991E+06</totfact>
</mgrwt>
</event>
<event>
 4    1  0.1802450E-001  0.5095220E+02  0.7818608E-02  0.1440272E+00
          3   -1    0    0  501    0  0.00000000000E+00  0.00000000000E+00  0.88885253662E+02  0.88885302315E+02  0.93000000000E-01 0. -1.
         -3   -1    0    0    0  501 -0.00000000000E+00 -0.00000000000E+00 -0.73015572855E+01  0.73021495324E+01  0.93000000000E-01 0.  1.
        -13    1    1    2    0    0 -0.12968023043E+02 -0.48896883998E+01  0.81145786343E+02  0.82320887313E+02  0.10570000000E+00 0. -1.
         13    1    1    2    0    0  0.12968023043E+02  0.48896883998E+01  0.43791003365E+00  0.13866564534E+02  0.10570000000E+00 0.  1.
<mgrwt>
<rscale>  0 0.50952197E+02</rscale>
<asrwt>0</asrwt>
<pdfrwt beam="1">  1        3 0.13674704E-01 0.50952197E+02</pdfrwt>
<pdfrwt beam="2">  1       -3 0.11233658E-02 0.50952197E+02</pdfrwt>
<totfact> 0.16064714E+05</totfact>
</mgrwt>
</event>
<event>
 4    1  0.1802450E-001  0.2829612E+02  0.7818608E-02  0.1617724E+00
         -3   -1    0    0    0  501 -0.00000000000E+00  0.00000000000E+00  0.17643353025E+02  0.17643598130E+02  0.93000000000E-01 0. -1.
          3   -1    0    0  501    0  0.00000000000E+00 -0.00000000000E+00 -0.11344695164E+02  0.11345076349E+02  0.93000000000E-01 0.  1.
        -13    1    1    2    0    0 -0.29776473412E+01  0.13821799696E+02  0.26393127293E+01  0.14383520943E+02  0.10570000000E+00 0. -1.
         13    1    1    2    0    0  0.29776473412E+01 -0.13821799696E+02  0.36593451312E+01  0.14605153536E+02  0.10570000000E+00 0.  1.
<mgrwt>
<rscale>  0 0.28296116E+02</rscale>
<asrwt>0</asrwt>
<pdfrwt beam="2">  1        3 0.17453859E-02 0.28296116E+02</pdfrwt>
<pdfrwt beam="1">  1       -3 0.27144102E-02 0.28296116E+02</pdfrwt>
<totfact> 0.79800791E+05</totfact>
</mgrwt>
</event>
<event>
 4    1  0.1802450E-001  0.1063667E+03  0.7818608E-02  0.1267450E+00
          3   -1    0    0  501    0  0.00000000000E+00  0.00000000000E+00  0.37954379571E+02  0.37954493511E+02  0.93000000000E-01 0.  1.
         -3   -1    0    0    0  501 -0.00000000000E+00 -0.00000000000E+00 -0.74522621416E+02  0.74522679446E+02  0.93000000000E-01 0. -1.
        -13    1    1    2    0    0  0.32222626376E+02 -0.77916305700E+01 -0.62259824866E+02  0.70535835732E+02  0.10570000000E+00 0. -1.
         13    1    1    2    0    0 -0.32222626376E+02  0.77916305700E+01  0.25691583021E+02  0.41941337224E+02  0.10570000000E+00 0.  1.
<mgrwt>
<rscale>  0 0.10636672E+03</rscale>
<asrwt>0</asrwt>
<pdfrwt beam="1">  1        3 0.58391486E-02 0.10636672E+03</pdfrwt>
<pdfrwt beam="2">  1       -3 0.11465032E-01 0.10636672E+03</pdfrwt>
<totfact> 0.22122004E+04</totfact>
</mgrwt>
</event>
<event>
 4    1  0.1802450E-001  0.3559071E+02  0.7818608E-02  0.1543417E+00
          3   -1    0    0  501    0  0.00000000000E+00  0.00000000000E+00  0.12243349185E+03  0.12243352717E+03  0.93000000000E-01 0. -1.
         -3   -1    0    0    0  501 -0.00000000000E+00 -0.00000000000E+00 -0.25856316185E+01  0.25873035900E+01  0.93000000000E-01 0.  1.
        -13    1    1    2    0    0  0.16578629781E+01 -0.16184735999E+02  0.34600702849E+02  0.38234983969E+02  0.10570000000E+00 0.  1.
         13    1    1    2    0    0 -0.16578629781E+01  0.16184735999E+02  0.85247157378E+02  0.86785846787E+02  0.10570000000E+00 0. -1.
<mgrwt>
<rscale>  0 0.35590708E+02</rscale>
<asrwt>0</asrwt>
<pdfrwt beam="1">  1        3 0.18836052E-01 0.35590708E+02</pdfrwt>
<pdfrwt beam="2">  1       -3 0.39792083E-03 0.35590708E+02</pdfrwt>
<totfact> 0.36210875E+05</totfact>
</mgrwt>
</event>
<event>
 4    1  0.1802450E-001  0.2287599E+02  0.7818608E-02  0.1693528E+00
         -3   -1    0    0    0  501 -0.00000000000E+00  0.00000000000E+00  0.14905786277E+01  0.14934770321E+01  0.93000000000E-01 0. -1.
          3   -1    0    0  501    0  0.00000000000E+00 -0.00000000000E+00 -0.87681582227E+02  0.87681631548E+02  0.93000000000E-01 0.  1.
        -13    1    1    2    0    0 -0.69081393812E+01 -0.84717238356E+01 -0.29977588669E+02  0.31908611523E+02  0.10570000000E+00 0.  1.
         13    1    1    2    0    0  0.69081393812E+01  0.84717238356E+01 -0.56213414931E+02  0.57266497057E+02  0.10570000000E+00 0. -1.
<mgrwt>
<rscale>  0 0.22875989E+02</rscale>
<asrwt>0</asrwt>
<pdfrwt beam="2">  1        3 0.13489697E-01 0.22875989E+02</pdfrwt>
<pdfrwt beam="1">  1       -3 0.22954660E-03 0.22875989E+02</pdfrwt>
<totfact> 0.10867885E+06</totfact>
</mgrwt>
</event>
<event>
 4    1  0.1802450E-001  0.2510652E+02  0.7818608E-02  0.1659477E+00
          3   -1    0    0  501    0  0.00000000000E+00  0.00000000000E+00  0.29209265804E+02  0.29209413856E+02  0.93000000000E-01 0. -1.
         -3   -1    0    0    0  501 -0.00000000000E+00 -0.00000000000E+00 -0.53944473535E+01  0.53952489516E+01  0.93000000000E-01 0.  1.
        -13    1    1    2    0    0  0.87519735688E+01 -0.70309588853E+01  0.19648293952E+02  0.22629583555E+02  0.10570000000E+00 0. -1.
         13    1    1    2    0    0 -0.87519735688E+01  0.70309588853E+01  0.41665244985E+01  0.11975079252E+02  0.10570000000E+00 0.  1.
<mgrwt>
<rscale>  0 0.25106515E+02</rscale>
<asrwt>0</asrwt>
<pdfrwt beam="1">  1        3 0.44938063E-02 0.25106515E+02</pdfrwt>
<pdfrwt beam="2">  1       -3 0.82998801E-03 0.25106515E+02</pdfrwt>
<totfact> 0.10297099E+06</totfact>
</mgrwt>
</event>
<event>
 4    1  0.1802450E-001  0.8181137E+02  0.7818608E-02  0.1323988E+00
          3   -1    0    0  501    0  0.00000000000E+00  0.00000000000E+00  0.34351948641E+02  0.34352074528E+02  0.93000000000E-01 0. -1.
         -3   -1    0    0    0  501 -0.00000000000E+00 -0.00000000000E+00 -0.48709491835E+02  0.48709580616E+02  0.93000000000E-01 0.  1.
        -13    1    1    2    0    0 -0.25524599997E+02  0.29590352677E+02  0.50960549113E+01  0.39409074141E+02  0.10570000000E+00 0. -1.
         13    1    1    2    0    0  0.25524599997E+02 -0.29590352677E+02 -0.19453598105E+02  0.43652581003E+02  0.10570000000E+00 0.  1.
<mgrwt>
<rscale>  0 0.81811365E+02</rscale>
<asrwt>0</asrwt>
<pdfrwt beam="1">  1        3 0.52849317E-02 0.81811365E+02</pdfrwt>
<pdfrwt beam="2">  1       -3 0.74937845E-02 0.81811365E+02</pdfrwt>
<totfact> 0.48239043E+04</totfact>
</mgrwt>
</event>
<event>
 4    1  0.1802450E-001  0.5661031E+02  0.7818608E-02  0.1412634E+00
         -3   -1    0    0    0  501 -0.00000000000E+00  0.00000000000E+00  0.80618180782E+01  0.80623544778E+01  0.93000000000E-01 0.  1.
          3   -1    0    0  501    0  0.00000000000E+00 -0.00000000000E+00 -0.99375934211E+02  0.99375977727E+02  0.93000000000E-01 0. -1.
        -13    1    1    2    0    0  0.20223792557E+02 -0.19802093648E+02 -0.46064035734E+02  0.54065065050E+02  0.10570000000E+00 0. -1.
         13    1    1    2    0    0 -0.20223792557E+02  0.19802093648E+02 -0.45250080398E+02  0.53373267155E+02  0.10570000000E+00 0.  1.
<mgrwt>
<rscale>  0 0.56610312E+02</rscale>
<asrwt>0</asrwt>
<pdfrwt beam="2">  1        3 0.15288649E-01 0.56610312E+02</pdfrwt>
<pdfrwt beam="1">  1       -3 0.12403244E-02 0.56610312E+02</pdfrwt>
<totfact> 0.11986836E+05</totfact>
</mgrwt>
</event>
<event>
 4    1  0.1802450E-001  0.2640259E+02  0.7818608E-02  0.1641636E+00
          3   -1    0    0  501    0  0.00000000000E+00  0.00000000000E+00  0.58343142315E+01  0.58350554027E+01  0.93000000000E-01 0. -1.
         -3   -1    0    0    0  501 -0.00000000000E+00 -0.00000000000E+00 -0.29867852962E+02  0.29867997749E+02  0.93000000000E-01 0.  1.
        -13    1    1    2    0    0 -0.91901397674E+01  0.78496531617E+01 -0.48374059765E+01  0.13018732380E+02  0.10570000000E+00 0. -1.
         13    1    1    2    0    0  0.91901397674E+01 -0.78496531617E+01 -0.19196132754E+02  0.22684320772E+02  0.10570000000E+00 0.  1.
<mgrwt>
<rscale>  0 0.26402595E+02</rscale>
<asrwt>0</asrwt>
<pdfrwt beam="1">  1        3 0.89765497E-03 0.26402595E+02</pdfrwt>
<pdfrwt beam="2">  1       -3 0.45951224E-02 0.26402595E+02</pdfrwt>
<totfact> 0.91544324E+05</totfact>
</mgrwt>
</event>
<event>
 4    1  0.1802450E-001  0.2366030E+02  0.7818608E-02  0.1681025E+00
          3   -1    0    0  501    0  0.00000000000E+00  0.00000000000E+00  0.74640247186E+01  0.74646040752E+01  0.93000000000E-01 0. -1.
         -3   -1    0    0    0  501 -0.00000000000E+00 -0.00000000000E+00 -0.18748850025E+02  0.18749080677E+02  0.93000000000E-01 0.  1.
        -13    1    1    2    0    0  0.32509176593E+01  0.10337534056E+02 -0.10898693937E+02  0.15369638187E+02  0.10570000000E+00 0.  1.
         13    1    1    2    0    0 -0.32509176593E+01 -0.10337534056E+02 -0.38613136885E+00  0.10844046565E+02  0.10570000000E+00 0. -1.
<mgrwt>
<rscale>  0 0.23660304E+02</rscale>
<asrwt>0</asrwt>
<pdfrwt beam="1">  1        3 0.11483738E-02 0.23660304E+02</pdfrwt>
<pdfrwt beam="2">  1       -3 0.28845008E-02 0.23660304E+02</pdfrwt>
<totfact> 0.12095201E+06</totfact>
</mgrwt>
</event>
<event>
 4    1  0.1802450E-001  0.2467501E+02  0.7818608E-02  0.1665714E+00
         -3   -1    0    0    0  501 -0.00000000000E+00  0.00000000000E+00  0.21817135320E+01  0.21836947900E+01  0.93000000000E-01 0.  1.
          3   -1    0    0  501    0  0.00000000000E+00 -0.00000000000E+00 -0.69734460516E+02  0.69734522530E+02  0.93000000000E-01 0. -1.
        -13    1    1    2    0    0 -0.11520689394E+02  0.11840611894E+00 -0.46634629309E+02  0.48036862172E+02  0.10570000000E+00 0. -1.
         13    1    1    2    0    0  0.11520689394E+02 -0.11840611894E+00 -0.20918117676E+02  0.23881355148E+02  0.10570000000E+00 0.  1.
<mgrwt>
<rscale>  0 0.24675015E+02</rscale>
<asrwt>0</asrwt>
<pdfrwt beam="2">  1        3 0.10728534E-01 0.24675015E+02</pdfrwt>
<pdfrwt beam="1">  1       -3 0.33580546E-03 0.24675015E+02</pdfrwt>
<totfact> 0.96055899E+05</totfact>
</mgrwt>
</event>
<event>
 4    1  0.1802450E-001  0.4110210E+02  0.7818608E-02  0.1500254E+00
          3   -1    0    0  501    0  0.00000000000E+00  0.00000000000E+00  0.61117940841E+02  0.61118011598E+02  0.93000000000E-01 0.  1.
         -3   -1    0    0    0  501 -0.00000000000E+00 -0.00000000000E+00 -0.69099494793E+01  0.69105752877E+01  0.93000000000E-01 0. -1.
        -13    1    1    2    0    0 -0.96230058123E+01 -0.94195394404E+01  0.14095057480E+01  0.13539861265E+02  0.10570000000E+00 0. -1.
         13    1    1    2    0    0  0.96230058123E+01  0.94195394404E+01  0.52798485614E+02  0.54488725620E+02  0.10570000000E+00 0.  1.
<mgrwt>
<rscale>  0 0.41102096E+02</rscale>
<asrwt>0</asrwt>
<pdfrwt beam="1">  1        3 0.94028135E-02 0.41102096E+02</pdfrwt>
<pdfrwt beam="2">  1       -3 0.10631228E-02 0.41102096E+02</pdfrwt>
<totfact> 0.29335095E+05</totfact>
</mgrwt>
</event>
<event>
 4    1  0.1802450E-001  0.2222821E+02  0.7818608E-02  0.1704335E+00
         -3   -1    0    0    0  501 -0.00000000000E+00  0.00000000000E+00  0.63224853067E+01  0.63231692570E+01  0.93000000000E-01 0.  1.
          3   -1    0    0  501    0  0.00000000000E+00 -0.00000000000E+00 -0.19535295609E+02  0.19535516976E+02  0.93000000000E-01 0. -1.
        -13    1    1    2    0    0  0.92496314674E+01 -0.61117027411E+01 -0.75101834846E+01  0.13391139651E+02  0.10570000000E+00 0.  1.
         13    1    1    2    0    0 -0.92496314674E+01  0.61117027411E+01 -0.57026268174E+01  0.12467546582E+02  0.10570000000E+00 0. -1.
<mgrwt>
<rscale>  0 0.22228210E+02</rscale>
<asrwt>0</asrwt>
<pdfrwt beam="2">  1        3 0.30054997E-02 0.22228210E+02</pdfrwt>
<pdfrwt beam="1">  1       -3 0.97275970E-03 0.22228210E+02</pdfrwt>
<totfact> 0.13907867E+06</totfact>
</mgrwt>
</event>
<event>
 4    1  0.1802450E-001  0.4221665E+02  0.7818608E-02  0.1492505E+00
          3   -1    0    0  501    0  0.00000000000E+00  0.00000000000E+00  0.51826507417E+02  0.51826590858E+02  0.93000000000E-01 0.  1.
         -3   -1    0    0    0  501 -0.00000000000E+00 -0.00000000000E+00 -0.85968317346E+01  0.85973347540E+01  0.93000000000E-01 0. -1.
        -13    1    1    2    0    0  0.13456077017E+02 -0.41615766778E+01 -0.88705837611E+00  0.14113212753E+02  0.10570000000E+00 0. -1.
         13    1    1    2    0    0 -0.13456077017E+02  0.41615766778E+01  0.44116734058E+02  0.46310712860E+02  0.10570000000E+00 0.  1.
<mgrwt>
<rscale>  0 0.42216655E+02</rscale>
<asrwt>0</asrwt>
<pdfrwt beam="1">  1        3 0.79733541E-02 0.42216655E+02</pdfrwt>
<pdfrwt beam="2">  1       -3 0.13226346E-02 0.42216655E+02</pdfrwt>
<totfact> 0.28029022E+05</totfact>
</mgrwt>
</event>
<event>
 4    1  0.1802450E-001  0.2114038E+02  0.7818608E-02  0.1723557E+00
          3   -1    0    0  501    0  0.00000000000E+00  0.00000000000E+00  0.35440176324E+01  0.35452376477E+01  0.93000000000E-01 0. -1.
         -3   -1    0    0    0  501 -0.00000000000E+00 -0.00000000000E+00 -0.31519345229E+02  0.31519482430E+02  0.93000000000E-01 0.  1.
        -13    1    1    2    0    0  0.97408978521E+01  0.23515014715E+01 -0.84112352479E+01  0.13083374986E+02  0.10570000000E+00 0. -1.
         13    1    1    2    0    0 -0.97408978521E+01 -0.23515014715E+01 -0.19564092349E+02  0.21981345092E+02  0.10570000000E+00 0.  1.
<mgrwt>
<rscale>  0 0.21140379E+02</rscale>
<asrwt>0</asrwt>
<pdfrwt beam="1">  1        3 0.54533791E-03 0.21140379E+02</pdfrwt>
<pdfrwt beam="2">  1       -3 0.48492342E-02 0.21140379E+02</pdfrwt>
<totfact> 0.15056697E+06</totfact>
</mgrwt>
</event>
<event>
 4    1  0.1802450E-001  0.3175371E+02  0.7818608E-02  0.1579475E+00
         -3   -1    0    0    0  501 -0.00000000000E+00  0.00000000000E+00  0.32455013304E+02  0.32455146550E+02  0.93000000000E-01 0. -1.
          3   -1    0    0  501    0  0.00000000000E+00 -0.00000000000E+00 -0.77664642387E+01  0.77670210358E+01  0.93000000000E-01 0.  1.
        -13    1    1    2    0    0  0.88225711607E+01 -0.83502695796E+01  0.25292977631E+02  0.28059056540E+02  0.10570000000E+00 0. -1.
         13    1    1    2    0    0 -0.88225711607E+01  0.83502695796E+01 -0.60442856600E+00  0.12163111046E+02  0.10570000000E+00 0.  1.
<mgrwt>
<rscale>  0 0.31753713E+02</rscale>
<asrwt>0</asrwt>
<pdfrwt beam="2">  1        3 0.11948937E-02 0.31753713E+02</pdfrwt>
<pdfrwt beam="1">  1       -3 0.49931320E-02 0.31753713E+02</pdfrwt>
<totfact> 0.58879205E+05</totfact>
</mgrwt>
</event>
<event>
 4    1  0.1802450E-001  0.2228790E+02  0.7818608E-02  0.1703320E+00
         -3   -1    0    0    0  501 -0.00000000000E+00  0.00000000000E+00  0.18406021116E+01  0.18429501169E+01  0.93000000000E-01 0.  1.
          3   -1    0    0  501    0  0.00000000000E+00 -0.00000000000E+00 -0.67425802218E+02  0.67425866355E+02  0.93000000000E-01 0. -1.
        -13    1    1    2    0    0  0.47192051840E+01  0.91684692193E+01 -0.19663847331E+02  0.22203823764E+02  0.10570000000E+00 0.  1.
         13    1    1    2    0    0 -0.47192051840E+01 -0.91684692193E+01 -0.45921352775E+02  0.47064992708E+02  0.10570000000E+00 0. -1.
<mgrwt>
<rscale>  0 0.22287899E+02</rscale>
<asrwt>0</asrwt>
<pdfrwt beam="2">  1        3 0.10373384E-01 0.22287899E+02</pdfrwt>
<pdfrwt beam="1">  1       -3 0.28335516E-03 0.22287899E+02</pdfrwt>
<totfact> 0.12123081E+06</totfact>
</mgrwt>
</event>
<event>
 4    1  0.1802450E-001  0.4532374E+02  0.7818608E-02  0.1472331E+00
          3   -1    0    0  501    0  0.00000000000E+00  0.00000000000E+00  0.16588448353E+02  0.16588709045E+02  0.93000000000E-01 0.  1.
         -3   -1    0    0    0  501 -0.00000000000E+00 -0.00000000000E+00 -0.30958346173E+02  0.30958485861E+02  0.93000000000E-01 0. -1.
        -13    1    1    2    0    0  0.37717439737E+01 -0.22338292960E+02 -0.65879187759E+01  0.23593160688E+02  0.10570000000E+00 0. -1.
         13    1    1    2    0    0 -0.37717439737E+01  0.22338292960E+02 -0.77819790442E+01  0.23954034218E+02  0.10570000000E+00 0.  1.
<mgrwt>
<rscale>  0 0.45323744E+02</rscale>
<asrwt>0</asrwt>
<pdfrwt beam="1">  1        3 0.25520998E-02 0.45323744E+02</pdfrwt>
<pdfrwt beam="2">  1       -3 0.47628533E-02 0.45323744E+02</pdfrwt>
<totfact> 0.24344705E+05</totfact>
</mgrwt>
</event>
<event>
 4    1  0.1802450E-001  0.2879523E+02  0.7818608E-02  0.1611801E+00
          3   -1    0    0  501    0  0.00000000000E+00  0.00000000000E+00  0.13353837001E+02  0.13354160836E+02  0.93000000000E-01 0. -1.
         -3   -1    0    0    0  501 -0.00000000000E+00 -0.00000000000E+00 -0.15522329956E+02  0.15522608552E+02  0.93000000000E-01 0.  1.
        -13    1    1    2    0    0  0.68633309390E+01  0.10620748193E+02 -0.79866559547E+01  0.14956719212E+02  0.10570000000E+00 0.  1.
         13    1    1    2    0    0 -0.68633309390E+01 -0.10620748193E+02  0.58181629992E+01  0.13920050177E+02  0.10570000000E+00 0. -1.
<mgrwt>
<rscale>  0 0.28795233E+02</rscale>
<asrwt>0</asrwt>
<pdfrwt beam="1">  1        3 0.20544828E-02 0.28795233E+02</pdfrwt>
<pdfrwt beam="2">  1       -3 0.23880971E-02 0.28795233E+02</pdfrwt>
<totfact> 0.76668953E+05</totfact>
</mgrwt>
</event>
<event>
 4    1  0.1802450E-001  0.2399975E+02  0.7818608E-02  0.1675799E+00
         -3   -1    0    0    0  501 -0.00000000000E+00  0.00000000000E+00  0.62650195309E+01  0.62657097541E+01  0.93000000000E-01 0. -1.
          3   -1    0    0  501    0  0.00000000000E+00 -0.00000000000E+00 -0.22982236576E+02  0.22982424742E+02  0.93000000000E-01 0.  1.
        -13    1    1    2    0    0  0.10740001112E+02 -0.40150516031E+01 -0.12670337652E+02  0.17088501747E+02  0.10570000000E+00 0. -1.
         13    1    1    2    0    0 -0.10740001112E+02  0.40150516031E+01 -0.40468793928E+01  0.12159632749E+02  0.10570000000E+00 0.  1.
<mgrwt>
<rscale>  0 0.23999751E+02</rscale>
<asrwt>0</asrwt>
<pdfrwt beam="2">  1        3 0.35357962E-02 0.23999751E+02</pdfrwt>
<pdfrwt beam="1">  1       -3 0.96391674E-03 0.23999751E+02</pdfrwt>
<totfact> 0.11596615E+06</totfact>
</mgrwt>
</event>
<event>
 4    1  0.1802450E-001  0.4433506E+02  0.7818608E-02  0.1478536E+00
          3   -1    0    0  501    0  0.00000000000E+00  0.00000000000E+00  0.19442872272E+02  0.19443094691E+02  0.93000000000E-01 0.  1.
         -3   -1    0    0    0  501 -0.00000000000E+00 -0.00000000000E+00 -0.25273562989E+02  0.25273734096E+02  0.93000000000E-01 0. -1.
        -13    1    1    2    0    0  0.15739297669E+02  0.13442067431E+02 -0.10919269772E+02  0.23402057448E+02  0.10570000000E+00 0. -1.
         13    1    1    2    0    0 -0.15739297669E+02 -0.13442067431E+02  0.50885790551E+01  0.21314771339E+02  0.10570000000E+00 0.  1.
<mgrwt>
<rscale>  0 0.44335063E+02</rscale>
<asrwt>0</asrwt>
<pdfrwt beam="1">  1        3 0.29912414E-02 0.44335063E+02</pdfrwt>
<pdfrwt beam="2">  1       -3 0.38882707E-02 0.44335063E+02</pdfrwt>
<totfact> 0.25921977E+05</totfact>
</mgrwt>
</event>
<event>
 4    1  0.1802450E-001  0.4736542E+02  0.7818608E-02  0.1460093E+00
          3   -1    0    0  501    0  0.00000000000E+00  0.00000000000E+00  0.44051951841E+01  0.44061767566E+01  0.93000000000E-01 0.  1.
         -3   -1    0    0    0  501 -0.00000000000E+00 -0.00000000000E+00 -0.12730510350E+03  0.12730513747E+03  0.93000000000E-01 0. -1.
        -13    1    1    2    0    0 -0.10366061029E+02 -0.20186287110E+02 -0.80293116473E+02  0.83438223459E+02  0.10570000000E+00 0. -1.
         13    1    1    2    0    0  0.10366061029E+02  0.20186287110E+02 -0.42606791839E+02  0.48273090763E+02  0.10570000000E+00 0.  1.
<mgrwt>
<rscale>  0 0.47365418E+02</rscale>
<asrwt>0</asrwt>
<pdfrwt beam="1">  1        3 0.67780055E-03 0.47365418E+02</pdfrwt>
<pdfrwt beam="2">  1       -3 0.19585476E-01 0.47365418E+02</pdfrwt>
<totfact> 0.17806265E+05</totfact>
</mgrwt>
</event>
<event>
 4    1  0.1802450E-001  0.3013623E+02  0.7818608E-02  0.1596588E+00
         -3   -1    0    0    0  501 -0.00000000000E+00  0.00000000000E+00  0.83369659691E+02  0.83369711563E+02  0.93000000000E-01 0.  1.
          3   -1    0    0  501    0  0.00000000000E+00 -0.00000000000E+00 -0.27225439533E+01  0.27241318944E+01  0.93000000000E-01 0. -1.
        -13    1    1    2    0    0 -0.12388788963E+02  0.14764671893E+01  0.16188076371E+02  0.20438371668E+02  0.10570000000E+00 0. -1.
         13    1    1    2    0    0  0.12388788963E+02 -0.14764671893E+01  0.64459039366E+02  0.65655471789E+02  0.10570000000E+00 0.  1.
<mgrwt>
<rscale>  0 0.30136234E+02</rscale>
<asrwt>0</asrwt>
<pdfrwt beam="2">  1        3 0.41897901E-03 0.30136234E+02</pdfrwt>
<pdfrwt beam="1">  1       -3 0.12826229E-01 0.30136234E+02</pdfrwt>
<totfact> 0.58696395E+05</totfact>
</mgrwt>
</event>
<event>
 4    1  0.1802450E-001  0.4589410E+02  0.7818608E-02  0.1468836E+00
          3   -1    0    0  501    0  0.00000000000E+00  0.00000000000E+00  0.28171075607E+02  0.28171229115E+02  0.93000000000E-01 0.  1.
         -3   -1    0    0    0  501 -0.00000000000E+00 -0.00000000000E+00 -0.18691440537E+02  0.18691671899E+02  0.93000000000E-01 0. -1.
        -13    1    1    2    0    0  0.10101784392E+02 -0.98405779677E+01  0.23223672620E+02  0.27170446538E+02  0.10570000000E+00 0.  1.
         13    1    1    2    0    0 -0.10101784392E+02  0.98405779677E+01 -0.13744037550E+02  0.19692454476E+02  0.10570000000E+00 0. -1.
<mgrwt>
<rscale>  0 0.45894096E+02</rscale>
<asrwt>0</asrwt>
<pdfrwt beam="1">  1        3 0.43340412E-02 0.45894096E+02</pdfrwt>
<pdfrwt beam="2">  1       -3 0.28756358E-02 0.45894096E+02</pdfrwt>
<totfact> 0.23641179E+05</totfact>
</mgrwt>
</event>
<event>
 4    1  0.1802450E-001  0.3719084E+02  0.7818608E-02  0.1529964E+00
         -3   -1    0    0    0  501 -0.00000000000E+00  0.00000000000E+00  0.35800114697E+01  0.35812192230E+01  0.93000000000E-01 0.  1.
          3   -1    0    0  501    0  0.00000000000E+00 -0.00000000000E+00 -0.96571464521E+02  0.96571509301E+02  0.93000000000E-01 0. -1.
        -13    1    1    2    0    0 -0.14987026798E+02  0.63857246897E+01 -0.70640766278E+02  0.72494947995E+02  0.10570000000E+00 0. -1.
         13    1    1    2    0    0  0.14987026798E+02 -0.63857246897E+01 -0.22350686773E+02  0.27657780529E+02  0.10570000000E+00 0.  1.
<mgrwt>
<rscale>  0 0.37190841E+02</rscale>
<asrwt>0</asrwt>
<pdfrwt beam="2">  1        3 0.14857243E-01 0.37190841E+02</pdfrwt>
<pdfrwt beam="1">  1       -3 0.55086742E-03 0.37190841E+02</pdfrwt>
<totfact> 0.34514008E+05</totfact>
</mgrwt>
</event>
<event>
 4    1  0.1802450E-001  0.2528987E+02  0.7818608E-02  0.1656873E+00
         -3   -1    0    0    0  501 -0.00000000000E+00  0.00000000000E+00  0.19614374371E+01  0.19636409600E+01  0.93000000000E-01 0. -1.
          3   -1    0    0  501    0  0.00000000000E+00 -0.00000000000E+00 -0.81471014440E+02  0.81471067520E+02  0.93000000000E-01 0.  1.
        -13    1    1    2    0    0 -0.75721032525E+01  0.88241704727E+01 -0.23364849628E+02  0.26098469358E+02  0.10570000000E+00 0. -1.
         13    1    1    2    0    0  0.75721032525E+01 -0.88241704727E+01 -0.56144727375E+02  0.57336239122E+02  0.10570000000E+00 0.  1.
<mgrwt>
<rscale>  0 0.25289874E+02</rscale>
<asrwt>0</asrwt>
<pdfrwt beam="2">  1        3 0.12534173E-01 0.25289874E+02</pdfrwt>
<pdfrwt beam="1">  1       -3 0.30193325E-03 0.25289874E+02</pdfrwt>
<totfact> 0.88190824E+05</totfact>
</mgrwt>
</event>
<event>
 4    1  0.1802450E-001  0.3030264E+02  0.7818608E-02  0.1594767E+00
         -3   -1    0    0    0  501 -0.00000000000E+00  0.00000000000E+00  0.60426867922E+01  0.60434024083E+01  0.93000000000E-01 0. -1.
          3   -1    0    0  501    0  0.00000000000E+00 -0.00000000000E+00 -0.37987105915E+02  0.37987219756E+02  0.93000000000E-01 0.  1.
        -13    1    1    2    0    0 -0.14276701984E+02 -0.32816447008E+01 -0.10352561266E+02  0.17938230368E+02  0.10570000000E+00 0.  1.
         13    1    1    2    0    0  0.14276701984E+02  0.32816447008E+01 -0.21591857857E+02  0.26092391796E+02  0.10570000000E+00 0. -1.
<mgrwt>
<rscale>  0 0.30302636E+02</rscale>
<asrwt>0</asrwt>
<pdfrwt beam="2">  1        3 0.58442338E-02 0.30302636E+02</pdfrwt>
<pdfrwt beam="1">  1       -3 0.92970795E-03 0.30302636E+02</pdfrwt>
<totfact> 0.64958286E+05</totfact>
</mgrwt>
</event>
<event>
 4    1  0.1802450E-001  0.2064427E+02  0.7818608E-02  0.1732811E+00
          3   -1    0    0  501    0  0.00000000000E+00  0.00000000000E+00  0.27904857505E+01  0.27920350506E+01  0.93000000000E-01 0. -1.
         -3   -1    0    0    0  501 -0.00000000000E+00 -0.00000000000E+00 -0.38169839406E+02  0.38169952702E+02  0.93000000000E-01 0.  1.
        -13    1    1    2    0    0 -0.97627651789E+01  0.25169079519E+01 -0.13302497067E+02  0.16691734789E+02  0.10570000000E+00 0. -1.
         13    1    1    2    0    0  0.97627651789E+01 -0.25169079519E+01 -0.22076856588E+02  0.24270252963E+02  0.10570000000E+00 0.  1.
<mgrwt>
<rscale>  0 0.20644267E+02</rscale>
<asrwt>0</asrwt>
<pdfrwt beam="1">  1        3 0.42943342E-03 0.20644267E+02</pdfrwt>
<pdfrwt beam="2">  1       -3 0.58724105E-02 0.20644267E+02</pdfrwt>
<totfact> 0.15560304E+06</totfact>
</mgrwt>
</event>
<event>
 4    1  0.1802450E-001  0.2336746E+02  0.7818608E-02  0.1685622E+00
          3   -1    0    0  501    0  0.00000000000E+00  0.00000000000E+00  0.19602618597E+02  0.19602839204E+02  0.93000000000E-01 0.  1.
         -3   -1    0    0    0  501 -0.00000000000E+00 -0.00000000000E+00 -0.69632740485E+01  0.69638950649E+01  0.93000000000E-01 0. -1.
        -13    1    1    2    0    0  0.11249023034E+02 -0.31556129430E+01  0.63197746953E+01  0.13283415862E+02  0.10570000000E+00 0. -1.
         13    1    1    2    0    0 -0.11249023034E+02  0.31556129430E+01  0.63195698529E+01  0.13283318407E+02  0.10570000000E+00 0.  1.
<mgrwt>
<rscale>  0 0.23367463E+02</rscale>
<asrwt>0</asrwt>
<pdfrwt beam="1">  1        3 0.30158522E-02 0.23367463E+02</pdfrwt>
<pdfrwt beam="2">  1       -3 0.10713377E-02 0.23367463E+02</pdfrwt>
<totfact> 0.12419849E+06</totfact>
</mgrwt>
</event>
<event>
 4    1  0.1802450E-001  0.2494351E+02  0.7818608E-02  0.1661815E+00
         -3   -1    0    0    0  501 -0.00000000000E+00  0.00000000000E+00  0.52548570476E+02  0.52548652771E+02  0.93000000000E-01 0.  1.
          3   -1    0    0  501    0  0.00000000000E+00 -0.00000000000E+00 -0.29592024954E+01  0.29606635082E+01  0.93000000000E-01 0. -1.
        -13    1    1    2    0    0  0.11321710589E+02 -0.52209308363E+01  0.25477966656E+02  0.28365070190E+02  0.10570000000E+00 0.  1.
         13    1    1    2    0    0 -0.11321710589E+02  0.52209308363E+01  0.24111401325E+02  0.27144246090E+02  0.10570000000E+00 0. -1.
<mgrwt>
<rscale>  0 0.24943512E+02</rscale>
<asrwt>0</asrwt>
<pdfrwt beam="2">  1        3 0.45538065E-03 0.24943512E+02</pdfrwt>
<pdfrwt beam="1">  1       -3 0.80845139E-02 0.24943512E+02</pdfrwt>
<totfact> 0.98116170E+05</totfact>
</mgrwt>
</event>
<event>
 4    1  0.1802450E-001  0.2339181E+02  0.7818608E-02  0.1685237E+00
         -3   -1    0    0    0  501 -0.00000000000E+00  0.00000000000E+00  0.19505966164E+01  0.19528123719E+01  0.93000000000E-01 0. -1.
          3   -1    0    0  501    0  0.00000000000E+00 -0.00000000000E+00 -0.70087334744E+02  0.70087396446E+02  0.93000000000E-01 0.  1.
        -13    1    1    2    0    0  0.47133927982E+01 -0.95216822753E+01 -0.19010941104E+02  0.21778557325E+02  0.10570000000E+00 0. -1.
         13    1    1    2    0    0 -0.47133927982E+01  0.95216822753E+01 -0.49125797024E+02  0.50261651492E+02  0.10570000000E+00 0.  1.
<mgrwt>
<rscale>  0 0.23391806E+02</rscale>
<asrwt>0</asrwt>
<pdfrwt beam="2">  1        3 0.10782840E-01 0.23391806E+02</pdfrwt>
<pdfrwt beam="1">  1       -3 0.30026703E-03 0.23391806E+02</pdfrwt>
<totfact> 0.10815398E+06</totfact>
</mgrwt>
</event>
<event>
 4    1  0.1802450E-001  0.5136128E+02  0.7818608E-02  0.1438134E+00
         -3   -1    0    0    0  501 -0.00000000000E+00  0.00000000000E+00  0.10148896987E+03  0.10148901248E+03  0.93000000000E-01 0. -1.
          3   -1    0    0  501    0  0.00000000000E+00 -0.00000000000E+00 -0.64978203895E+01  0.64984858863E+01  0.93000000000E-01 0.  1.
        -13    1    1    2    0    0  0.12366736103E+02 -0.22223856702E+02  0.54972995361E+02  0.60571258531E+02  0.10570000000E+00 0.  1.
         13    1    1    2    0    0 -0.12366736103E+02  0.22223856702E+02  0.40018154120E+02  0.47416239836E+02  0.10570000000E+00 0. -1.
<mgrwt>
<rscale>  0 0.51361282E+02</rscale>
<asrwt>0</asrwt>
<pdfrwt beam="2">  1        3 0.99971917E-03 0.51361282E+02</pdfrwt>
<pdfrwt beam="1">  1       -3 0.15613742E-01 0.51361282E+02</pdfrwt>
<totfact> 0.15326222E+05</totfact>
</mgrwt>
</event>
<event>
 4    1  0.1802450E-001  0.5287516E+02  0.7818608E-02  0.1430423E+00
         -3   -1    0    0    0  501 -0.00000000000E+00  0.00000000000E+00  0.38538485425E+02  0.38538597637E+02  0.93000000000E-01 0. -1.
          3   -1    0    0  501    0  0.00000000000E+00 -0.00000000000E+00 -0.18136041439E+02  0.18136279885E+02  0.93000000000E-01 0.  1.
        -13    1    1    2    0    0 -0.23746085812E+02  0.32657859365E+01 -0.17533995404E+01  0.24033882991E+02  0.10570000000E+00 0.  1.
         13    1    1    2    0    0  0.23746085812E+02 -0.32657859365E+01  0.22155843526E+02  0.32640994532E+02  0.10570000000E+00 0. -1.
<mgrwt>
<rscale>  0 0.52875155E+02</rscale>
<asrwt>0</asrwt>
<pdfrwt beam="2">  1        3 0.27901872E-02 0.52875155E+02</pdfrwt>
<pdfrwt beam="1">  1       -3 0.59290247E-02 0.52875155E+02</pdfrwt>
<totfact> 0.16120299E+05</totfact>
</mgrwt>
</event>
<event>
 4    1  0.1802450E-001  0.5755952E+02  0.7818608E-02  0.1408368E+00
          3   -1    0    0  501    0  0.00000000000E+00  0.00000000000E+00  0.11873237842E+02  0.11873602058E+02  0.93000000000E-01 0. -1.
         -3   -1    0    0    0  501 -0.00000000000E+00 -0.00000000000E+00 -0.69758318103E+02  0.69758380095E+02  0.93000000000E-01 0.  1.
        -13    1    1    2    0    0  0.65116889681E+01  0.27380725503E+02 -0.20414680992E+02  0.34768902697E+02  0.10570000000E+00 0. -1.
         13    1    1    2    0    0 -0.65116889681E+01 -0.27380725503E+02 -0.37470399269E+02  0.46863079457E+02  0.10570000000E+00 0.  1.
<mgrwt>
<rscale>  0 0.57559517E+02</rscale>
<asrwt>0</asrwt>
<pdfrwt beam="1">  1        3 0.18266848E-02 0.57559517E+02</pdfrwt>
<pdfrwt beam="2">  1       -3 0.10732081E-01 0.57559517E+02</pdfrwt>
<totfact> 0.12194277E+05</totfact>
</mgrwt>
</event>
<event>
 4    1  0.1802450E-001  0.3877330E+02  0.7818608E-02  0.1517438E+00
          3   -1    0    0  501    0  0.00000000000E+00  0.00000000000E+00  0.46564701897E+01  0.46573988048E+01  0.93000000000E-01 0. -1.
         -3   -1    0    0    0  501 -0.00000000000E+00 -0.00000000000E+00 -0.80704976408E+02  0.80705029992E+02  0.93000000000E-01 0.  1.
        -13    1    1    2    0    0  0.13873638530E+02  0.10240437240E+02 -0.57528622427E+02  0.60057455589E+02  0.10570000000E+00 0.  1.
         13    1    1    2    0    0 -0.13873638530E+02 -0.10240437240E+02 -0.18519883792E+02  0.25304973208E+02  0.10570000000E+00 0. -1.
<mgrwt>
<rscale>  0 0.38773302E+02</rscale>
<asrwt>0</asrwt>
<pdfrwt beam="1">  1        3 0.71645564E-03 0.38773302E+02</pdfrwt>
<pdfrwt beam="2">  1       -3 0.12416225E-01 0.38773302E+02</pdfrwt>
<totfact> 0.32358106E+05</totfact>
</mgrwt>
</event>
<event>
 4    1  0.1802450E-001  0.2145755E+02  0.7818608E-02  0.1717806E+00
         -3   -1    0    0    0  501 -0.00000000000E+00  0.00000000000E+00  0.12884083901E+01  0.12917604962E+01  0.93000000000E-01 0.  1.
          3   -1    0    0  501    0  0.00000000000E+00 -0.00000000000E+00 -0.89220749645E+02  0.89220798115E+02  0.93000000000E-01 0. -1.
        -13    1    1    2    0    0  0.10198541433E+02  0.86848795447E+00 -0.57524278555E+02  0.58427889868E+02  0.10570000000E+00 0. -1.
         13    1    1    2    0    0 -0.10198541433E+02 -0.86848795447E+00 -0.30408062700E+02  0.32084668743E+02  0.10570000000E+00 0.  1.
<mgrwt>
<rscale>  0 0.21457554E+02</rscale>
<asrwt>0</asrwt>
<pdfrwt beam="2">  1        3 0.13726526E-01 0.21457554E+02</pdfrwt>
<pdfrwt beam="1">  1       -3 0.19847833E-03 0.21457554E+02</pdfrwt>
<totfact> 0.12464181E+06</totfact>
</mgrwt>
</event>
<event>
 4    1  0.1802450E-001  0.4052943E+02  0.7818608E-02  0.1504351E+00
         -3   -1    0    0    0  501 -0.00000000000E+00  0.00000000000E+00  0.11546118388E+02  0.11546492923E+02  0.93000000000E-01 0.  1.
          3   -1    0    0  501    0  0.00000000000E+00 -0.00000000000E+00 -0.35565798241E+02  0.35565919832E+02  0.93000000000E-01 0. -1.
        -13    1    1    2    0    0  0.17455950834E+02 -0.39851614527E+01 -0.23040982321E+02  0.29180297636E+02  0.10570000000E+00 0. -1.
         13    1    1    2    0    0 -0.17455950834E+02  0.39851614527E+01 -0.97869753183E+00  0.17932115119E+02  0.10570000000E+00 0.  1.
<mgrwt>
<rscale>  0 0.40529427E+02</rscale>
<asrwt>0</asrwt>
<pdfrwt beam="2">  1        3 0.54716994E-02 0.40529427E+02</pdfrwt>
<pdfrwt beam="1">  1       -3 0.17763641E-02 0.40529427E+02</pdfrwt>
<totfact> 0.32121308E+05</totfact>
</mgrwt>
</event>
<event>
 4    1  0.1802450E-001  0.6880331E+02  0.7818608E-02  0.1364210E+00
          3   -1    0    0  501    0  0.00000000000E+00  0.00000000000E+00  0.28986471917E+03  0.28986473409E+03  0.93000000000E-01 0.  1.
         -3   -1    0    0    0  501 -0.00000000000E+00 -0.00000000000E+00 -0.40823046494E+01  0.40833638401E+01  0.93000000000E-01 0. -1.
        -13    1    1    2    0    0  0.28770761258E+02  0.18540714265E+02  0.15765877018E+03  0.16133137877E+03  0.10570000000E+00 0.  1.
         13    1    1    2    0    0 -0.28770761258E+02 -0.18540714265E+02  0.12812364434E+03  0.13261671916E+03  0.10570000000E+00 0. -1.
<mgrwt>
<rscale>  0 0.68803313E+02</rscale>
<asrwt>0</asrwt>
<pdfrwt beam="1">  1        3 0.44594660E-01 0.68803313E+02</pdfrwt>
<pdfrwt beam="2">  1       -3 0.62812942E-03 0.68803313E+02</pdfrwt>
<totfact> 0.50999244E+04</totfact>
</mgrwt>
</event>
<event>
 4    1  0.1802450E-001  0.3021040E+02  0.7818608E-02  0.1595775E+00
         -3   -1    0    0    0  501 -0.00000000000E+00  0.00000000000E+00  0.26136295047E+02  0.26136460506E+02  0.93000000000E-01 0. -1.
          3   -1    0    0  501    0  0.00000000000E+00 -0.00000000000E+00 -0.87294540181E+01  0.87299493959E+01  0.93000000000E-01 0.  1.
        -13    1    1    2    0    0 -0.65491092961E+01 -0.93660867605E+01 -0.26950210754E+01  0.11742602985E+02  0.10570000000E+00 0.  1.
         13    1    1    2    0    0  0.65491092961E+01  0.93660867605E+01  0.20101862104E+02  0.23123806917E+02  0.10570000000E+00 0. -1.
<mgrwt>
<rscale>  0 0.30210403E+02</rscale>
<asrwt>0</asrwt>
<pdfrwt beam="2">  1        3 0.13430438E-02 0.30210403E+02</pdfrwt>
<pdfrwt beam="1">  1       -3 0.40210193E-02 0.30210403E+02</pdfrwt>
<totfact> 0.67276610E+05</totfact>
</mgrwt>
</event>
<event>
 4    1  0.1802450E-001  0.2136442E+02  0.7818608E-02  0.1719482E+00
         -3   -1    0    0    0  501 -0.00000000000E+00  0.00000000000E+00  0.24913663802E+01  0.24931015704E+01  0.93000000000E-01 0. -1.
          3   -1    0    0  501    0  0.00000000000E+00 -0.00000000000E+00 -0.45784293609E+02  0.45784388063E+02  0.93000000000E-01 0.  1.
        -13    1    1    2    0    0  0.39053447001E+01  0.92664754946E+01 -0.13505481522E+02  0.16838304219E+02  0.10570000000E+00 0.  1.
         13    1    1    2    0    0 -0.39053447001E+01 -0.92664754946E+01 -0.29787445707E+02  0.31439185415E+02  0.10570000000E+00 0. -1.
<mgrwt>
<rscale>  0 0.21364420E+02</rscale>
<asrwt>0</asrwt>
<pdfrwt beam="2">  1        3 0.70438776E-02 0.21364420E+02</pdfrwt>
<pdfrwt beam="1">  1       -3 0.38342791E-03 0.21364420E+02</pdfrwt>
<totfact> 0.14119178E+06</totfact>
</mgrwt>
</event>
<event>
 4    1  0.1802450E-001  0.3625952E+02  0.7818608E-02  0.1537692E+00
         -3   -1    0    0    0  501 -0.00000000000E+00  0.00000000000E+00  0.10941759835E+02  0.10942155057E+02  0.93000000000E-01 0. -1.
          3   -1    0    0  501    0  0.00000000000E+00 -0.00000000000E+00 -0.30038786656E+02  0.30038930619E+02  0.93000000000E-01 0.  1.
        -13    1    1    2    0    0 -0.17553727625E+02 -0.10625230807E+01 -0.45685362320E+01  0.18169892808E+02  0.10570000000E+00 0. -1.
         13    1    1    2    0    0  0.17553727625E+02  0.10625230807E+01 -0.14528490588E+02  0.22811192869E+02  0.10570000000E+00 0.  1.
<mgrwt>
<rscale>  0 0.36259522E+02</rscale>
<asrwt>0</asrwt>
<pdfrwt beam="2">  1        3 0.46213932E-02 0.36259522E+02</pdfrwt>
<pdfrwt beam="1">  1       -3 0.16833892E-02 0.36259522E+02</pdfrwt>
<totfact> 0.42840670E+05</totfact>
</mgrwt>
</event>
<event>
 4    1  0.1802450E-001  0.2572903E+02  0.7818608E-02  0.1650746E+00
          3   -1    0    0  501    0  0.00000000000E+00  0.00000000000E+00  0.95418496396E+02  0.95418541717E+02  0.93000000000E-01 0. -1.
         -3   -1    0    0    0  501 -0.00000000000E+00 -0.00000000000E+00 -0.17331272402E+01  0.17356206471E+01  0.93000000000E-01 0.  1.
        -13    1    1    2    0    0  0.71853539529E+01  0.96806339501E+01  0.63788942342E+02  0.64918289586E+02  0.10570000000E+00 0. -1.
         13    1    1    2    0    0 -0.71853539529E+01 -0.96806339501E+01  0.29896426813E+02  0.32235872779E+02  0.10570000000E+00 0.  1.
<mgrwt>
<rscale>  0 0.25729028E+02</rscale>
<asrwt>0</asrwt>
<pdfrwt beam="1">  1        3 0.14679963E-01 0.25729028E+02</pdfrwt>
<pdfrwt beam="2">  1       -3 0.26683027E-03 0.25729028E+02</pdfrwt>
<totfact> 0.81970990E+05</totfact>
</mgrwt>
</event>
<event>
 4    1  0.1802450E-001  0.3749346E+02  0.7818608E-02  0.1527511E+00
         -3   -1    0    0    0  501 -0.00000000000E+00  0.00000000000E+00  0.35482614930E+02  0.35482736806E+02  0.93000000000E-01 0. -1.
          3   -1    0    0  501    0  0.00000000000E+00 -0.00000000000E+00 -0.99042063311E+01  0.99046429541E+01  0.93000000000E-01 0.  1.
        -13    1    1    2    0    0 -0.27092043682E+01  0.11743075581E+02 -0.45933026726E+01  0.12897643751E+02  0.10570000000E+00 0.  1.
         13    1    1    2    0    0  0.27092043682E+01 -0.11743075581E+02  0.30171711272E+02  0.32489736009E+02  0.10570000000E+00 0. -1.
<mgrwt>
<rscale>  0 0.37493456E+02</rscale>
<asrwt>0</asrwt>
<pdfrwt beam="2">  1        3 0.15237670E-02 0.37493456E+02</pdfrwt>
<pdfrwt beam="1">  1       -3 0.54589068E-02 0.37493456E+02</pdfrwt>
<totfact> 0.39014172E+05</totfact>
</mgrwt>
</event>
<event>
 4    1  0.1802450E-001  0.3867507E+02  0.7818608E-02  0.1518194E+00
          3   -1    0    0  501    0  0.00000000000E+00  0.00000000000E+00  0.27314400220E+02  0.27314558542E+02  0.93000000000E-01 0. -1.
         -3   -1    0    0    0  501 -0.00000000000E+00 -0.00000000000E+00 -0.13689867984E+02  0.13690183871E+02  0.93000000000E-01 0.  1.
        -13    1    1    2    0    0  0.14024881511E+02  0.65546454732E+00  0.20909916970E+02  0.25186558625E+02  0.10570000000E+00 0. -1.
         13    1    1    2    0    0 -0.14024881511E+02 -0.65546454732E+00 -0.72853847344E+01  0.15818183789E+02  0.10570000000E+00 0.  1.
<mgrwt>
<rscale>  0 0.38675070E+02</rscale>
<asrwt>0</asrwt>
<pdfrwt beam="1">  1        3 0.42022519E-02 0.38675070E+02</pdfrwt>
<pdfrwt beam="2">  1       -3 0.21061700E-02 0.38675070E+02</pdfrwt>
<totfact> 0.36643921E+05</totfact>
</mgrwt>
</event>
<event>
 4    1  0.1802450E-001  0.3095730E+02  0.7818608E-02  0.1587742E+00
          3   -1    0    0  501    0  0.00000000000E+00  0.00000000000E+00  0.80029800952E+02  0.80029854988E+02  0.93000000000E-01 0.  1.
         -3   -1    0    0    0  501 -0.00000000000E+00 -0.00000000000E+00 -0.29929659011E+01  0.29944104403E+01  0.93000000000E-01 0. -1.
        -13    1    1    2    0    0 -0.26695807152E+01 -0.14610568262E+02  0.26833801769E+02  0.30670172089E+02  0.10570000000E+00 0.  1.
         13    1    1    2    0    0  0.26695807152E+01  0.14610568262E+02  0.50203033283E+02  0.52354093340E+02  0.10570000000E+00 0. -1.
<mgrwt>
<rscale>  0 0.30957304E+02</rscale>
<asrwt>0</asrwt>
<pdfrwt beam="1">  1        3 0.12312392E-01 0.30957304E+02</pdfrwt>
<pdfrwt beam="2">  1       -3 0.46057156E-03 0.30957304E+02</pdfrwt>
<totfact> 0.55554869E+05</totfact>
</mgrwt>
</event>
<event>
 4    1  0.1802450E-001  0.4895246E+02  0.7818608E-02  0.1451075E+00
         -3   -1    0    0    0  501 -0.00000000000E+00  0.00000000000E+00  0.82568919155E+02  0.82568971529E+02  0.93000000000E-01 0. -1.
          3   -1    0    0  501    0  0.00000000000E+00 -0.00000000000E+00 -0.72552338567E+01  0.72558298847E+01  0.93000000000E-01 0.  1.
        -13    1    1    2    0    0 -0.16228152553E+00 -0.14983051172E+02  0.21444087005E+01  0.15136968616E+02  0.10570000000E+00 0.  1.
         13    1    1    2    0    0  0.16228152553E+00  0.14983051172E+02  0.73169276597E+02  0.74687832798E+02  0.10570000000E+00 0. -1.
<mgrwt>
<rscale>  0 0.48952464E+02</rscale>
<asrwt>0</asrwt>
<pdfrwt beam="2">  1        3 0.11162398E-02 0.48952464E+02</pdfrwt>
<pdfrwt beam="1">  1       -3 0.12702960E-01 0.48952464E+02</pdfrwt>
<totfact> 0.18031875E+05</totfact>
</mgrwt>
</event>
<event>
 4    1  0.1802450E-001  0.8051533E+02  0.7818608E-02  0.1327595E+00
         -3   -1    0    0    0  501 -0.00000000000E+00  0.00000000000E+00  0.57273687023E+02  0.57273762529E+02  0.93000000000E-01 0.  1.
          3   -1    0    0  501    0  0.00000000000E+00 -0.00000000000E+00 -0.28296937643E+02  0.28297090468E+02  0.93000000000E-01 0. -1.
        -13    1    1    2    0    0 -0.39814212930E+02 -0.41948701784E+01  0.18984873776E+02  0.44308070279E+02  0.10570000000E+00 0.  1.
         13    1    1    2    0    0  0.39814212930E+02  0.41948701784E+01  0.99918756048E+01  0.41262782718E+02  0.10570000000E+00 0. -1.
<mgrwt>
<rscale>  0 0.80515333E+02</rscale>
<asrwt>0</asrwt>
<pdfrwt beam="2">  1        3 0.43533926E-02 0.80515333E+02</pdfrwt>
<pdfrwt beam="1">  1       -3 0.88113540E-02 0.80515333E+02</pdfrwt>
<totfact> 0.50072535E+04</totfact>
</mgrwt>
</event>
<event>
 4    1  0.1802450E-001  0.3512374E+02  0.7818608E-02  0.1547504E+00
         -3   -1    0    0    0  501 -0.00000000000E+00  0.00000000000E+00  0.10612869403E+02  0.10613276872E+02  0.93000000000E-01 0. -1.
          3   -1    0    0  501    0  0.00000000000E+00 -0.00000000000E+00 -0.29059833811E+02  0.29059982624E+02  0.93000000000E-01 0.  1.
        -13    1    1    2    0    0  0.43756406542E+01  0.17004744366E+02 -0.95816000883E+01  0.20003144624E+02  0.10570000000E+00 0.  1.
         13    1    1    2    0    0 -0.43756406542E+01 -0.17004744366E+02 -0.88653643198E+01  0.19670114873E+02  0.10570000000E+00 0. -1.
<mgrwt>
<rscale>  0 0.35123739E+02</rscale>
<asrwt>0</asrwt>
<pdfrwt beam="2">  1        3 0.44707864E-02 0.35123739E+02</pdfrwt>
<pdfrwt beam="1">  1       -3 0.16327919E-02 0.35123739E+02</pdfrwt>
<totfact> 0.46422589E+05</totfact>
</mgrwt>
</event>
<event>
 4    1  0.1802450E-001  0.2470775E+02  0.7818608E-02  0.1665235E+00
          3   -1    0    0  501    0  0.00000000000E+00  0.00000000000E+00  0.75557545919E+02  0.75557603153E+02  0.93000000000E-01 0.  1.
         -3   -1    0    0    0  501 -0.00000000000E+00 -0.00000000000E+00 -0.20187648324E+01  0.20209058485E+01  0.93000000000E-01 0. -1.
        -13    1    1    2    0    0  0.87820661563E+01 -0.81386084081E+01  0.27222308803E+02  0.29739315759E+02  0.10570000000E+00 0. -1.
         13    1    1    2    0    0 -0.87820661563E+01  0.81386084081E+01  0.46316472284E+02  0.47839193243E+02  0.10570000000E+00 0.  1.
<mgrwt>
<rscale>  0 0.24707746E+02</rscale>
<asrwt>0</asrwt>
<pdfrwt beam="1">  1        3 0.11624408E-01 0.24707746E+02</pdfrwt>
<pdfrwt beam="2">  1       -3 0.31074827E-03 0.24707746E+02</pdfrwt>
<totfact> 0.94347894E+05</totfact>
</mgrwt>
</event>
<event>
 4    1  0.1802450E-001  0.2461594E+02  0.7818608E-02  0.1666580E+00
          3   -1    0    0  501    0  0.00000000000E+00  0.00000000000E+00  0.18561934910E+02  0.18562167886E+02  0.93000000000E-01 0. -1.
         -3   -1    0    0    0  501 -0.00000000000E+00 -0.00000000000E+00 -0.81605709727E+01  0.81611008817E+01  0.93000000000E-01 0.  1.
        -13    1    1    2    0    0 -0.73949292626E+01  0.97544460879E+01  0.65912822554E+01  0.13902890762E+02  0.10570000000E+00 0. -1.
         13    1    1    2    0    0  0.73949292626E+01 -0.97544460879E+01  0.38100816821E+01  0.12820378005E+02  0.10570000000E+00 0.  1.
<mgrwt>
<rscale>  0 0.24615944E+02</rscale>
<asrwt>0</asrwt>
<pdfrwt beam="1">  1        3 0.28557409E-02 0.24615944E+02</pdfrwt>
<pdfrwt beam="2">  1       -3 0.12555312E-02 0.24615944E+02</pdfrwt>
<totfact> 0.11049054E+06</totfact>
</mgrwt>
</event>
<event>
 4    1  0.1802450E-001  0.2677185E+02  0.7818608E-02  0.1636783E+00
          3   -1    0    0  501    0  0.00000000000E+00  0.00000000000E+00  0.56134782011E+02  0.56134859049E+02  0.93000000000E-01 0. -1.
         -3   -1    0    0    0  501 -0.00000000000E+00 -0.00000000000E+00 -0.31912571722E+01  0.31926119932E+01  0.93000000000E-01 0.  1.
        -13    1    1    2    0    0  0.80326018396E+00 -0.10175719844E+02  0.45660835490E+02  0.46787963958E+02  0.10570000000E+00 0. -1.
         13    1    1    2    0    0 -0.80326018396E+00  0.10175719844E+02  0.72826893494E+01  0.12539507084E+02  0.10570000000E+00 0.  1.
<mgrwt>
<rscale>  0 0.26771851E+02</rscale>
<asrwt>0</asrwt>
<pdfrwt beam="1">  1        3 0.86362300E-02 0.26771851E+02</pdfrwt>
<pdfrwt beam="2">  1       -3 0.49107281E-03 0.26771851E+02</pdfrwt>
<totfact> 0.82686057E+05</totfact>
</mgrwt>
</event>
<event>
 4    1  0.1802450E-001  0.2527361E+02  0.7818608E-02  0.1657103E+00
          3   -1    0    0  501    0  0.00000000000E+00  0.00000000000E+00  0.91666221572E+01  0.91670939110E+01  0.93000000000E-01 0.  1.
         -3   -1    0    0    0  501 -0.00000000000E+00 -0.00000000000E+00 -0.17419635947E+02  0.17419884200E+02  0.93000000000E-01 0. -1.
        -13    1    1    2    0    0  0.76378543490E+01  0.10036986870E+02 -0.33118644645E+01  0.13040611305E+02  0.10570000000E+00 0. -1.
         13    1    1    2    0    0 -0.76378543490E+01 -0.10036986870E+02 -0.49411493254E+01  0.13546366806E+02  0.10570000000E+00 0.  1.
<mgrwt>
<rscale>  0 0.25273606E+02</rscale>
<asrwt>0</asrwt>
<pdfrwt beam="1">  1        3 0.14103050E-02 0.25273606E+02</pdfrwt>
<pdfrwt beam="2">  1       -3 0.26799994E-02 0.25273606E+02</pdfrwt>
<totfact> 0.10414947E+06</totfact>
</mgrwt>
</event>
<event>
 4    1  0.1802450E-001  0.3546455E+02  0.7818608E-02  0.1544514E+00
          3   -1    0    0  501    0  0.00000000000E+00  0.00000000000E+00  0.19746485998E+01  0.19768373966E+01  0.93000000000E-01 0. -1.
         -3   -1    0    0    0  501 -0.00000000000E+00 -0.00000000000E+00 -0.15914477414E+03  0.15914480132E+03  0.93000000000E-01 0.  1.
        -13    1    1    2    0    0 -0.16850284083E+02  0.25536267712E+01 -0.56342396542E+02  0.58863655204E+02  0.10570000000E+00 0. -1.
         13    1    1    2    0    0  0.16850284083E+02 -0.25536267712E+01 -0.10082772900E+03  0.10225798351E+03  0.10570000000E+00 0.  1.
<mgrwt>
<rscale>  0 0.35464547E+02</rscale>
<asrwt>0</asrwt>
<pdfrwt beam="1">  1        3 0.30396268E-03 0.35464547E+02</pdfrwt>
<pdfrwt beam="2">  1       -3 0.24483972E-01 0.35464547E+02</pdfrwt>
<totfact> 0.33795720E+05</totfact>
</mgrwt>
</event>
<event>
 4    1  0.1802450E-001  0.2915759E+02  0.7818608E-02  0.1607591E+00
         -3   -1    0    0    0  501 -0.00000000000E+00  0.00000000000E+00  0.47015966151E+01  0.47025163191E+01  0.93000000000E-01 0. -1.
          3   -1    0    0  501    0  0.00000000000E+00 -0.00000000000E+00 -0.45200802911E+02  0.45200898584E+02  0.93000000000E-01 0.  1.
        -13    1    1    2    0    0  0.61468476046E+01  0.11255544369E+02 -0.83846398564E+01  0.15322675110E+02  0.10570000000E+00 0. -1.
         13    1    1    2    0    0 -0.61468476046E+01 -0.11255544369E+02 -0.32114566439E+02  0.34580739793E+02  0.10570000000E+00 0.  1.
<mgrwt>
<rscale>  0 0.29157591E+02</rscale>
<asrwt>0</asrwt>
<pdfrwt beam="2">  1        3 0.69540475E-02 0.29157591E+02</pdfrwt>
<pdfrwt beam="1">  1       -3 0.72340069E-03 0.29157591E+02</pdfrwt>
<totfact> 0.69831732E+05</totfact>
</mgrwt>
</event>
<event>
 4    1  0.1802450E-001  0.6650927E+02  0.7818608E-02  0.1372382E+00
          3   -1    0    0  501    0  0.00000000000E+00  0.00000000000E+00  0.64473567523E+02  0.64473634597E+02  0.93000000000E-01 0. -1.
         -3   -1    0    0    0  501 -0.00000000000E+00 -0.00000000000E+00 -0.17152111863E+02  0.17152363987E+02  0.93000000000E-01 0.  1.
        -13    1    1    2    0    0 -0.49374865987E+01 -0.29273324374E+02  0.42051760821E+02  0.51474926464E+02  0.10570000000E+00 0. -1.
         13    1    1    2    0    0  0.49374865987E+01  0.29273324374E+02  0.52696948392E+01  0.30151072121E+02  0.10570000000E+00 0.  1.
<mgrwt>
<rscale>  0 0.66509274E+02</rscale>
<asrwt>0</asrwt>
<pdfrwt beam="1">  1        3 0.99190352E-02 0.66509274E+02</pdfrwt>
<pdfrwt beam="2">  1       -3 0.26388109E-02 0.66509274E+02</pdfrwt>
<totfact> 0.83844251E+04</totfact>
</mgrwt>
</event>
<event>
 4    1  0.1802450E-001  0.2283180E+02  0.7818608E-02  0.1694251E+00
          3   -1    0    0  501    0  0.00000000000E+00  0.00000000000E+00  0.54887808132E+02  0.54887886920E+02  0.93000000000E-01 0.  1.
         -3   -1    0    0    0  501 -0.00000000000E+00 -0.00000000000E+00 -0.23733562864E+01  0.23751776906E+01  0.93000000000E-01 0. -1.
        -13    1    1    2    0    0  0.75029240788E+01 -0.79856139962E+01  0.18228497372E+02  0.21268596323E+02  0.10570000000E+00 0. -1.
         13    1    1    2    0    0 -0.75029240788E+01  0.79856139962E+01  0.34285954474E+02  0.35994468288E+02  0.10570000000E+00 0.  1.
<mgrwt>
<rscale>  0 0.22831796E+02</rscale>
<asrwt>0</asrwt>
<pdfrwt beam="1">  1        3 0.84444240E-02 0.22831796E+02</pdfrwt>
<pdfrwt beam="2">  1       -3 0.36527792E-03 0.22831796E+02</pdfrwt>
<totfact> 0.11886656E+06</totfact>
</mgrwt>
</event>
<event>
 4    1  0.1802450E-001  0.2609368E+02  0.7818608E-02  0.1645772E+00
         -3   -1    0    0    0  501 -0.00000000000E+00  0.00000000000E+00  0.53364633229E+01  0.53372736295E+01  0.93000000000E-01 0. -1.
          3   -1    0    0  501    0  0.00000000000E+00 -0.00000000000E+00 -0.31894227131E+02  0.31894362720E+02  0.93000000000E-01 0.  1.
        -13    1    1    2    0    0  0.41504919378E+00 -0.13015712290E+02 -0.14409405273E+02  0.19422233781E+02  0.10570000000E+00 0.  1.
         13    1    1    2    0    0 -0.41504919378E+00  0.13015712290E+02 -0.12148358535E+02  0.17809402568E+02  0.10570000000E+00 0. -1.
<mgrwt>
<rscale>  0 0.26093676E+02</rscale>
<asrwt>0</asrwt>
<pdfrwt beam="2">  1        3 0.49068768E-02 0.26093676E+02</pdfrwt>
<pdfrwt beam="1">  1       -3 0.82106714E-03 0.26093676E+02</pdfrwt>
<totfact> 0.93569853E+05</totfact>
</mgrwt>
</event>
<event>
 4    1  0.1802450E-001  0.2135909E+02  0.7818608E-02  0.1719578E+00
          3   -1    0    0  501    0  0.00000000000E+00  0.00000000000E+00  0.16469419144E+02  0.16469681720E+02  0.93000000000E-01 0. -1.
         -3   -1    0    0    0  501 -0.00000000000E+00 -0.00000000000E+00 -0.69244858824E+01  0.69251103771E+01  0.93000000000E-01 0.  1.
        -13    1    1    2    0    0 -0.10082258224E+02  0.83345665011E+00  0.85181794219E+01  0.13225624145E+02  0.10570000000E+00 0. -1.
         13    1    1    2    0    0  0.10082258224E+02 -0.83345665011E+00  0.10267538399E+01  0.10169167951E+02  0.10570000000E+00 0.  1.
<mgrwt>
<rscale>  0 0.21359086E+02</rscale>
<asrwt>0</asrwt>
<pdfrwt beam="1">  1        3 0.25338250E-02 0.21359086E+02</pdfrwt>
<pdfrwt beam="2">  1       -3 0.10653738E-02 0.21359086E+02</pdfrwt>
<totfact> 0.15313193E+06</totfact>
</mgrwt>
</event>
<event>
 4    1  0.1802450E-001  0.2103094E+02  0.7818608E-02  0.1725571E+00
          3   -1    0    0  501    0  0.00000000000E+00  0.00000000000E+00  0.32030794193E+02  0.32030929204E+02  0.93000000000E-01 0.  1.
         -3   -1    0    0    0  501 -0.00000000000E+00 -0.00000000000E+00 -0.34513801509E+01  0.34526329005E+01  0.93000000000E-01 0. -1.
        -13    1    1    2    0    0  0.10293472108E+02 -0.15869596236E+01  0.16728809152E+02  0.19706299425E+02  0.10570000000E+00 0.  1.
         13    1    1    2    0    0 -0.10293472108E+02  0.15869596236E+01  0.11850604890E+02  0.15777262679E+02  0.10570000000E+00 0. -1.
<mgrwt>
<rscale>  0 0.21030936E+02</rscale>
<asrwt>0</asrwt>
<pdfrwt beam="1">  1        3 0.49279212E-02 0.21030936E+02</pdfrwt>
<pdfrwt beam="2">  1       -3 0.53108831E-03 0.21030936E+02</pdfrwt>
<totfact> 0.15205691E+06</totfact>
</mgrwt>
</event>
<event>
 4    1  0.1802450E-001  0.3979182E+02  0.7818608E-02  0.1509749E+00
          3   -1    0    0  501    0  0.00000000000E+00  0.00000000000E+00  0.75653306825E+01  0.75659022816E+01  0.93000000000E-01 0. -1.
         -3   -1    0    0    0  501 -0.00000000000E+00 -0.00000000000E+00 -0.52321258186E+02  0.52321340838E+02  0.93000000000E-01 0.  1.
        -13    1    1    2    0    0 -0.10253462564E+02  0.76623100989E+01 -0.45301235969E+02  0.47075021439E+02  0.10570000000E+00 0. -1.
         13    1    1    2    0    0  0.10253462564E+02 -0.76623100989E+01  0.54530846621E+00  0.12812221681E+02  0.10570000000E+00 0.  1.
<mgrwt>
<rscale>  0 0.39791819E+02</rscale>
<asrwt>0</asrwt>
<pdfrwt beam="1">  1        3 0.11639474E-02 0.39791819E+02</pdfrwt>
<pdfrwt beam="2">  1       -3 0.80494744E-02 0.39791819E+02</pdfrwt>
<totfact> 0.32438936E+05</totfact>
</mgrwt>
</event>
<event>
 4    1  0.1802450E-001  0.3506355E+02  0.7818608E-02  0.1548037E+00
          3   -1    0    0  501    0  0.00000000000E+00  0.00000000000E+00  0.13353542821E+02  0.13353866664E+02  0.93000000000E-01 0.  1.
         -3   -1    0    0    0  501 -0.00000000000E+00 -0.00000000000E+00 -0.23016651603E+02  0.23016839488E+02  0.93000000000E-01 0. -1.
        -13    1    1    2    0    0  0.17128073847E+02  0.57123808224E+00 -0.86645445842E+01  0.19203716619E+02  0.10570000000E+00 0. -1.
         13    1    1    2    0    0 -0.17128073847E+02 -0.57123808224E+00 -0.99856419739E+00  0.17166989532E+02  0.10570000000E+00 0.  1.
<mgrwt>
<rscale>  0 0.35063551E+02</rscale>
<asrwt>0</asrwt>
<pdfrwt beam="1">  1        3 0.20544306E-02 0.35063551E+02</pdfrwt>
<pdfrwt beam="2">  1       -3 0.35410627E-02 0.35063551E+02</pdfrwt>
<totfact> 0.47079435E+05</totfact>
</mgrwt>
</event>
<event>
 4    1  0.1802450E-001  0.3187915E+02  0.7818608E-02  0.1578200E+00
         -3   -1    0    0    0  501 -0.00000000000E+00  0.00000000000E+00  0.11055988440E+02  0.11056379578E+02  0.93000000000E-01 0.  1.
          3   -1    0    0  501    0  0.00000000000E+00 -0.00000000000E+00 -0.22979417932E+02  0.22979606121E+02  0.93000000000E-01 0. -1.
        -13    1    1    2    0    0  0.49066739441E+01 -0.95397497402E+01 -0.18548141074E+02  0.21427248636E+02  0.10570000000E+00 0. -1.
         13    1    1    2    0    0 -0.49066739441E+01  0.95397497402E+01  0.66247115825E+01  0.12608737064E+02  0.10570000000E+00 0.  1.
<mgrwt>
<rscale>  0 0.31879149E+02</rscale>
<asrwt>0</asrwt>
<pdfrwt beam="2">  1        3 0.35353396E-02 0.31879149E+02</pdfrwt>
<pdfrwt beam="1">  1       -3 0.17009659E-02 0.31879149E+02</pdfrwt>
<totfact> 0.59444866E+05</totfact>
</mgrwt>
</event>
<event>
 4    1  0.1802450E-001  0.2964357E+02  0.7818608E-02  0.1602062E+00
          3   -1    0    0  501    0  0.00000000000E+00  0.00000000000E+00  0.51258109962E+01  0.51266545981E+01  0.93000000000E-01 0.  1.
         -3   -1    0    0    0  501 -0.00000000000E+00 -0.00000000000E+00 -0.42854221239E+02  0.42854322151E+02  0.93000000000E-01 0. -1.
        -13    1    1    2    0    0  0.14470312808E+02  0.11047495157E+01 -0.13991261641E+02  0.20158794583E+02  0.10570000000E+00 0.  1.
         13    1    1    2    0    0 -0.14470312808E+02 -0.11047495157E+01 -0.23737148602E+02  0.27822182166E+02  0.10570000000E+00 0. -1.
<mgrwt>
<rscale>  0 0.29643569E+02</rscale>
<asrwt>0</asrwt>
<pdfrwt beam="1">  1        3 0.78865899E-03 0.29643569E+02</pdfrwt>
<pdfrwt beam="2">  1       -3 0.65930295E-02 0.29643569E+02</pdfrwt>
<totfact> 0.67592354E+05</totfact>
</mgrwt>
</event>
<event>
 4    1  0.1802450E-001  0.4052651E+02  0.7818608E-02  0.1504372E+00
          3   -1    0    0  501    0  0.00000000000E+00  0.00000000000E+00  0.35889500901E+02  0.35889621396E+02  0.93000000000E-01 0.  1.
         -3   -1    0    0    0  501 -0.00000000000E+00 -0.00000000000E+00 -0.11440329693E+02  0.11440707691E+02  0.93000000000E-01 0. -1.
        -13    1    1    2    0    0 -0.87211150734E+01 -0.17774547847E+02  0.17260860998E+02  0.26266725989E+02  0.10570000000E+00 0. -1.
         13    1    1    2    0    0  0.87211150734E+01  0.17774547847E+02  0.71883102103E+01  0.21063603098E+02  0.10570000000E+00 0.  1.
<mgrwt>
<rscale>  0 0.40526511E+02</rscale>
<asrwt>0</asrwt>
<pdfrwt beam="1">  1        3 0.55215000E-02 0.40526511E+02</pdfrwt>
<pdfrwt beam="2">  1       -3 0.17600891E-02 0.40526511E+02</pdfrwt>
<totfact> 0.32107282E+05</totfact>
</mgrwt>
</event>
<event>
 4    1  0.1802450E-001  0.2228760E+02  0.7818608E-02  0.1703325E+00
         -3   -1    0    0    0  501 -0.00000000000E+00  0.00000000000E+00  0.41717915863E+02  0.41718019524E+02  0.93000000000E-01 0. -1.
          3   -1    0    0  501    0  0.00000000000E+00 -0.00000000000E+00 -0.29759276851E+01  0.29773804908E+01  0.93000000000E-01 0.  1.
        -13    1    1    2    0    0 -0.73387813612E+01  0.68162614950E+01  0.95765469587E+01  0.13857869850E+02  0.10570000000E+00 0.  1.
         13    1    1    2    0    0  0.73387813612E+01 -0.68162614950E+01  0.29165441220E+02  0.30837530165E+02  0.10570000000E+00 0. -1.
<mgrwt>
<rscale>  0 0.22287600E+02</rscale>
<asrwt>0</asrwt>
<pdfrwt beam="2">  1        3 0.45795474E-03 0.22287600E+02</pdfrwt>
<pdfrwt beam="1">  1       -3 0.64182609E-02 0.22287600E+02</pdfrwt>
<totfact> 0.13011040E+06</totfact>
</mgrwt>
</event>
<event>
 4    1  0.1802450E-001  0.2280469E+02  0.7818608E-02  0.1694696E+00
         -3   -1    0    0    0  501 -0.00000000000E+00  0.00000000000E+00  0.17360063322E+02  0.17360312426E+02  0.93000000000E-01 0.  1.
          3   -1    0    0  501    0  0.00000000000E+00 -0.00000000000E+00 -0.74886367390E+01  0.74892141916E+01  0.93000000000E-01 0. -1.
        -13    1    1    2    0    0  0.60146583696E+01 -0.94808103571E+01  0.27726687783E+01  0.11565498043E+02  0.10570000000E+00 0. -1.
         13    1    1    2    0    0 -0.60146583696E+01  0.94808103571E+01  0.70987578045E+01  0.13284028575E+02  0.10570000000E+00 0.  1.
<mgrwt>
<rscale>  0 0.22804691E+02</rscale>
<asrwt>0</asrwt>
<pdfrwt beam="2">  1        3 0.11521615E-02 0.22804691E+02</pdfrwt>
<pdfrwt beam="1">  1       -3 0.26708425E-02 0.22804691E+02</pdfrwt>
<totfact> 0.13188964E+06</totfact>
</mgrwt>
</event>
<event>
 4    1  0.1802450E-001  0.2446084E+02  0.7818608E-02  0.1668869E+00
         -3   -1    0    0    0  501 -0.00000000000E+00  0.00000000000E+00  0.39593505111E+02  0.39593614334E+02  0.93000000000E-01 0. -1.
          3   -1    0    0  501    0  0.00000000000E+00 -0.00000000000E+00 -0.37772846777E+01  0.37784293743E+01  0.93000000000E-01 0.  1.
        -13    1    1    2    0    0  0.20553237659E+01 -0.11453534860E+02  0.24581303973E+02  0.27196681674E+02  0.10570000000E+00 0. -1.
         13    1    1    2    0    0 -0.20553237659E+01  0.11453534860E+02  0.11234916461E+02  0.16175362034E+02  0.10570000000E+00 0.  1.
<mgrwt>
<rscale>  0 0.24460837E+02</rscale>
<asrwt>0</asrwt>
<pdfrwt beam="2">  1        3 0.58121715E-03 0.24460837E+02</pdfrwt>
<pdfrwt beam="1">  1       -3 0.60914052E-02 0.24460837E+02</pdfrwt>
<totfact> 0.10626251E+06</totfact>
</mgrwt>
</event>
<event>
 4    1  0.1802450E-001  0.3864127E+02  0.7818608E-02  0.1518455E+00
         -3   -1    0    0    0  501 -0.00000000000E+00  0.00000000000E+00  0.12877173730E+02  0.12877509552E+02  0.93000000000E-01 0.  1.
          3   -1    0    0  501    0  0.00000000000E+00 -0.00000000000E+00 -0.28987481419E+02  0.28987630604E+02  0.93000000000E-01 0. -1.
        -13    1    1    2    0    0 -0.12428409381E+02  0.13701522031E+02 -0.14095097528E+02  0.23256827224E+02  0.10570000000E+00 0. -1.
         13    1    1    2    0    0  0.12428409381E+02 -0.13701522031E+02 -0.20152101605E+01  0.18608312932E+02  0.10570000000E+00 0.  1.
<mgrwt>
<rscale>  0 0.38641273E+02</rscale>
<asrwt>0</asrwt>
<pdfrwt beam="2">  1        3 0.44596498E-02 0.38641273E+02</pdfrwt>
<pdfrwt beam="1">  1       -3 0.19811410E-02 0.38641273E+02</pdfrwt>
<totfact> 0.36630060E+05</totfact>
</mgrwt>
</event>
<event>
 4    1  0.1802450E-001  0.2453573E+02  0.7818608E-02  0.1667761E+00
          3   -1    0    0  501    0  0.00000000000E+00  0.00000000000E+00  0.12995720016E+02  0.12996052776E+02  0.93000000000E-01 0.  1.
         -3   -1    0    0    0  501 -0.00000000000E+00 -0.00000000000E+00 -0.11580106967E+02  0.11580480403E+02  0.93000000000E-01 0. -1.
        -13    1    1    2    0    0  0.76819699455E+01 -0.87804378357E+01  0.45062868578E+01  0.12507059789E+02  0.10570000000E+00 0.  1.
         13    1    1    2    0    0 -0.76819699455E+01  0.87804378357E+01 -0.30906738085E+01  0.12069473390E+02  0.10570000000E+00 0. -1.
<mgrwt>
<rscale>  0 0.24535730E+02</rscale>
<asrwt>0</asrwt>
<pdfrwt beam="1">  1        3 0.19993958E-02 0.24535730E+02</pdfrwt>
<pdfrwt beam="2">  1       -3 0.17816093E-02 0.24535730E+02</pdfrwt>
<totfact> 0.11212803E+06</totfact>
</mgrwt>
</event>
<event>
 4    1  0.1802450E-001  0.4323000E+02  0.7818608E-02  0.1485704E+00
         -3   -1    0    0    0  501 -0.00000000000E+00  0.00000000000E+00  0.12094779146E+02  0.12095136691E+02  0.93000000000E-01 0. -1.
          3   -1    0    0  501    0  0.00000000000E+00 -0.00000000000E+00 -0.38627933564E+02  0.38628045516E+02  0.93000000000E-01 0.  1.
        -13    1    1    2    0    0  0.14406652825E+02  0.37668311310E+01 -0.31649240437E+02  0.34977510705E+02  0.10570000000E+00 0.  1.
         13    1    1    2    0    0 -0.14406652825E+02 -0.37668311310E+01  0.51160860191E+01  0.15745671502E+02  0.10570000000E+00 0. -1.
<mgrwt>
<rscale>  0 0.43230000E+02</rscale>
<asrwt>0</asrwt>
<pdfrwt beam="2">  1        3 0.59427951E-02 0.43230000E+02</pdfrwt>
<pdfrwt beam="1">  1       -3 0.18607714E-02 0.43230000E+02</pdfrwt>
<totfact> 0.27140795E+05</totfact>
</mgrwt>
</event>
<event>
 4    1  0.1802450E-001  0.4807779E+02  0.7818608E-02  0.1455994E+00
         -3   -1    0    0    0  501 -0.00000000000E+00  0.00000000000E+00  0.59995980575E+02  0.59996052655E+02  0.93000000000E-01 0.  1.
          3   -1    0    0  501    0  0.00000000000E+00 -0.00000000000E+00 -0.96314830375E+01  0.96319320233E+01  0.93000000000E-01 0. -1.
        -13    1    1    2    0    0  0.16057224338E+02 -0.97208967532E+01  0.34332846928E+01  0.19082161916E+02  0.10570000000E+00 0. -1.
         13    1    1    2    0    0 -0.16057224338E+02  0.97208967532E+01  0.46931212845E+02  0.50545822762E+02  0.10570000000E+00 0.  1.
<mgrwt>
<rscale>  0 0.48077787E+02</rscale>
<asrwt>0</asrwt>
<pdfrwt beam="2">  1        3 0.14818067E-02 0.48077787E+02</pdfrwt>
<pdfrwt beam="1">  1       -3 0.92301911E-02 0.48077787E+02</pdfrwt>
<totfact> 0.19821652E+05</totfact>
</mgrwt>
</event>
<event>
 4    1  0.1802450E-001  0.3298305E+02  0.7818608E-02  0.1567277E+00
          3   -1    0    0  501    0  0.00000000000E+00  0.00000000000E+00  0.18216885575E+03  0.18216887949E+03  0.93000000000E-01 0.  1.
         -3   -1    0    0    0  501 -0.00000000000E+00 -0.00000000000E+00 -0.14914856584E+01  0.14943823035E+01  0.93000000000E-01 0. -1.
        -13    1    1    2    0    0 -0.16343952200E+02 -0.18403134339E+01  0.83638706523E+02  0.85240576771E+02  0.10570000000E+00 0.  1.
         13    1    1    2    0    0  0.16343952200E+02  0.18403134339E+01  0.97038663571E+02  0.98422685023E+02  0.10570000000E+00 0. -1.
<mgrwt>
<rscale>  0 0.32983051E+02</rscale>
<asrwt>0</asrwt>
<pdfrwt beam="1">  1        3 0.28026184E-01 0.32983051E+02</pdfrwt>
<pdfrwt beam="2">  1       -3 0.22968413E-03 0.32983051E+02</pdfrwt>
<totfact> 0.38304114E+05</totfact>
</mgrwt>
</event>
<event>
 4    1  0.1802450E-001  0.3017985E+02  0.7818608E-02  0.1596109E+00
         -3   -1    0    0    0  501 -0.00000000000E+00  0.00000000000E+00  0.83362478296E+01  0.83367665721E+01  0.93000000000E-01 0. -1.
          3   -1    0    0  501    0  0.00000000000E+00 -0.00000000000E+00 -0.27313700950E+02  0.27313859276E+02  0.93000000000E-01 0.  1.
        -13    1    1    2    0    0 -0.27420623456E+00  0.14371526806E+02 -0.40653216438E+01  0.14938339411E+02  0.10570000000E+00 0. -1.
         13    1    1    2    0    0  0.27420623456E+00 -0.14371526806E+02 -0.14912131476E+02  0.20712286437E+02  0.10570000000E+00 0.  1.
<mgrwt>
<rscale>  0 0.30179851E+02</rscale>
<asrwt>0</asrwt>
<pdfrwt beam="2">  1        3 0.42021599E-02 0.30179851E+02</pdfrwt>
<pdfrwt beam="1">  1       -3 0.12825518E-02 0.30179851E+02</pdfrwt>
<totfact> 0.67267506E+05</totfact>
</mgrwt>
</event>
<event>
 4    1  0.1802450E-001  0.2796735E+02  0.7818608E-02  0.1621709E+00
         -3   -1    0    0    0  501 -0.00000000000E+00  0.00000000000E+00  0.25094684236E+02  0.25094856563E+02  0.93000000000E-01 0. -1.
          3   -1    0    0  501    0  0.00000000000E+00 -0.00000000000E+00 -0.77917390400E+01  0.77922940311E+01  0.93000000000E-01 0.  1.
        -13    1    1    2    0    0 -0.79336257060E+01 -0.86283383342E+01 -0.31491618346E+00  0.11726081355E+02  0.10570000000E+00 0.  1.
         13    1    1    2    0    0  0.79336257060E+01  0.86283383342E+01  0.17617861380E+02  0.21161069239E+02  0.10570000000E+00 0. -1.
<mgrwt>
<rscale>  0 0.27967352E+02</rscale>
<asrwt>0</asrwt>
<pdfrwt beam="2">  1        3 0.11987850E-02 0.27967352E+02</pdfrwt>
<pdfrwt beam="1">  1       -3 0.38607767E-02 0.27967352E+02</pdfrwt>
<totfact> 0.80955260E+05</totfact>
</mgrwt>
</event>
<event>
 4    1  0.1802450E-001  0.2182939E+02  0.7818608E-02  0.1711219E+00
          3   -1    0    0  501    0  0.00000000000E+00  0.00000000000E+00  0.11723282437E+03  0.11723286126E+03  0.93000000000E-01 0.  1.
         -3   -1    0    0    0  501 -0.00000000000E+00 -0.00000000000E+00 -0.10140230913E+01  0.10182788565E+01  0.93000000000E-01 0. -1.
        -13    1    1    2    0    0  0.88306923816E+01 -0.64136409262E+01  0.57788850476E+02  0.58810529072E+02  0.10570000000E+00 0. -1.
         13    1    1    2    0    0 -0.88306923816E+01  0.64136409262E+01  0.58429950807E+02  0.59440611047E+02  0.10570000000E+00 0.  1.
<mgrwt>
<rscale>  0 0.21829392E+02</rscale>
<asrwt>0</asrwt>
<pdfrwt beam="1">  1        3 0.18036159E-01 0.21829392E+02</pdfrwt>
<pdfrwt beam="2">  1       -3 0.15633367E-03 0.21829392E+02</pdfrwt>
<totfact> 0.11229872E+06</totfact>
</mgrwt>
</event>
<event>
 4    1  0.1802450E-001  0.5998587E+02  0.7818608E-02  0.1397891E+00
         -3   -1    0    0    0  501 -0.00000000000E+00  0.00000000000E+00  0.46487251882E+02  0.46487344908E+02  0.93000000000E-01 0.  1.
          3   -1    0    0  501    0  0.00000000000E+00 -0.00000000000E+00 -0.19350807821E+02  0.19351031299E+02  0.93000000000E-01 0. -1.
        -13    1    1    2    0    0  0.99848555598E+01 -0.15727032902E+02 -0.12231043699E+02  0.22285567233E+02  0.10570000000E+00 0. -1.
         13    1    1    2    0    0 -0.99848555598E+01  0.15727032902E+02  0.39367487760E+02  0.43552808973E+02  0.10570000000E+00 0.  1.
<mgrwt>
<rscale>  0 0.59985875E+02</rscale>
<asrwt>0</asrwt>
<pdfrwt beam="2">  1        3 0.29770717E-02 0.59985875E+02</pdfrwt>
<pdfrwt beam="1">  1       -3 0.71519092E-02 0.59985875E+02</pdfrwt>
<totfact> 0.11393739E+05</totfact>
</mgrwt>
</event>
<event>
 4    1  0.1802450E-001  0.4622493E+02  0.7818608E-02  0.1466836E+00
          3   -1    0    0  501    0  0.00000000000E+00  0.00000000000E+00  0.16903836559E+02  0.16904092386E+02  0.93000000000E-01 0. -1.
         -3   -1    0    0    0  501 -0.00000000000E+00 -0.00000000000E+00 -0.31600907867E+02  0.31601044714E+02  0.93000000000E-01 0.  1.
        -13    1    1    2    0    0 -0.23018070948E+02  0.19711507175E+01 -0.80586040524E+01  0.24467719491E+02  0.10570000000E+00 0. -1.
         13    1    1    2    0    0  0.23018070948E+02 -0.19711507175E+01 -0.66384672554E+01  0.24037417609E+02  0.10570000000E+00 0.  1.
<mgrwt>
<rscale>  0 0.46224933E+02</rscale>
<asrwt>0</asrwt>
<pdfrwt beam="1">  1        3 0.26006204E-02 0.46224933E+02</pdfrwt>
<pdfrwt beam="2">  1       -3 0.48617083E-02 0.46224933E+02</pdfrwt>
<totfact> 0.23116502E+05</totfact>
</mgrwt>
</event>
<event>
 4    1  0.1802450E-001  0.2037058E+02  0.7818608E-02  0.1738058E+00
         -3   -1    0    0    0  501 -0.00000000000E+00  0.00000000000E+00  0.20844915032E+01  0.20865650785E+01  0.93000000000E-01 0.  1.
          3   -1    0    0  501    0  0.00000000000E+00 -0.00000000000E+00 -0.49740730514E+02  0.49740817455E+02  0.93000000000E-01 0. -1.
        -13    1    1    2    0    0 -0.96909480808E+01 -0.25310098818E+01 -0.28525274262E+02  0.30232812141E+02  0.10570000000E+00 0. -1.
         13    1    1    2    0    0  0.96909480808E+01  0.25310098818E+01 -0.19130964749E+02  0.21594570392E+02  0.10570000000E+00 0.  1.
<mgrwt>
<rscale>  0 0.20370578E+02</rscale>
<asrwt>0</asrwt>
<pdfrwt beam="2">  1        3 0.76525854E-02 0.20370578E+02</pdfrwt>
<pdfrwt beam="1">  1       -3 0.32085723E-03 0.20370578E+02</pdfrwt>
<totfact> 0.15494467E+06</totfact>
</mgrwt>
</event>
<event>
 4    1  0.1802450E-001  0.2048830E+02  0.7818608E-02  0.1735788E+00
         -3   -1    0    0    0  501 -0.00000000000E+00  0.00000000000E+00  0.27150729412E+02  0.27150888689E+02  0.93000000000E-01 0. -1.
          3   -1    0    0  501    0  0.00000000000E+00 -0.00000000000E+00 -0.38644545025E+01  0.38655733859E+01  0.93000000000E-01 0.  1.
        -13    1    1    2    0    0  0.96562578964E+01  0.31214479950E+01  0.95320437695E+01  0.13923282122E+02  0.10570000000E+00 0. -1.
         13    1    1    2    0    0 -0.96562578964E+01 -0.31214479950E+01  0.13754231140E+02  0.17093179953E+02  0.10570000000E+00 0.  1.
<mgrwt>
<rscale>  0 0.20488297E+02</rscale>
<asrwt>0</asrwt>
<pdfrwt beam="2">  1        3 0.59462976E-03 0.20488297E+02</pdfrwt>
<pdfrwt beam="1">  1       -3 0.41771337E-02 0.20488297E+02</pdfrwt>
<totfact> 0.16335275E+06</totfact>
</mgrwt>
</event>
<event>
 4    1  0.1802450E-001  0.3739999E+02  0.7818608E-02  0.1528266E+00
          3   -1    0    0  501    0  0.00000000000E+00  0.00000000000E+00  0.11788832188E+03  0.11788835857E+03  0.93000000000E-01 0. -1.
         -3   -1    0    0    0  501 -0.00000000000E+00 -0.00000000000E+00 -0.29655135887E+01  0.29669714938E+01  0.93000000000E-01 0.  1.
        -13    1    1    2    0    0 -0.74795745174E+01 -0.14432720910E+02  0.87329143703E+02  0.88829263085E+02  0.10570000000E+00 0. -1.
         13    1    1    2    0    0  0.74795745174E+01  0.14432720910E+02  0.27593664591E+02  0.32026066975E+02  0.10570000000E+00 0.  1.
<mgrwt>
<rscale>  0 0.37399986E+02</rscale>
<asrwt>0</asrwt>
<pdfrwt beam="1">  1        3 0.18136781E-01 0.37399986E+02</pdfrwt>
<pdfrwt beam="2">  1       -3 0.45634779E-03 0.37399986E+02</pdfrwt>
<totfact> 0.32463007E+05</totfact>
</mgrwt>
</event>
<event>
 4    1  0.1802450E-001  0.2599739E+02  0.7818608E-02  0.1647076E+00
         -3   -1    0    0    0  501 -0.00000000000E+00  0.00000000000E+00  0.16936544453E+02  0.16936799787E+02  0.93000000000E-01 0. -1.
          3   -1    0    0  501    0  0.00000000000E+00 -0.00000000000E+00 -0.99758741840E+01  0.99763076705E+01  0.93000000000E-01 0.  1.
        -13    1    1    2    0    0  0.12679653568E+02 -0.10620134721E+01  0.73095543001E+00  0.12745468039E+02  0.10570000000E+00 0.  1.
         13    1    1    2    0    0 -0.12679653568E+02  0.10620134721E+01  0.62297148393E+01  0.14167639418E+02  0.10570000000E+00 0. -1.
<mgrwt>
<rscale>  0 0.25997393E+02</rscale>
<asrwt>0</asrwt>
<pdfrwt beam="2">  1        3 0.15348029E-02 0.25997393E+02</pdfrwt>
<pdfrwt beam="1">  1       -3 0.26056752E-02 0.25997393E+02</pdfrwt>
<totfact> 0.97572434E+05</totfact>
</mgrwt>
</event>
<event>
 4    1  0.1802450E-001  0.4607759E+02  0.7818608E-02  0.1467724E+00
          3   -1    0    0  501    0  0.00000000000E+00  0.00000000000E+00  0.65824997889E+02  0.65825063586E+02  0.93000000000E-01 0.  1.
         -3   -1    0    0    0  501 -0.00000000000E+00 -0.00000000000E+00 -0.80632571243E+01  0.80637934282E+01  0.93000000000E-01 0. -1.
        -13    1    1    2    0    0  0.30892168573E+01 -0.20820919330E+02  0.43899869123E+02  0.48685353280E+02  0.10570000000E+00 0.  1.
         13    1    1    2    0    0 -0.30892168573E+01  0.20820919330E+02  0.13861871642E+02  0.25203503734E+02  0.10570000000E+00 0. -1.
<mgrwt>
<rscale>  0 0.46077592E+02</rscale>
<asrwt>0</asrwt>
<pdfrwt beam="1">  1        3 0.10126969E-01 0.46077592E+02</pdfrwt>
<pdfrwt beam="2">  1       -3 0.12405474E-02 0.46077592E+02</pdfrwt>
<totfact> 0.21801051E+05</totfact>
</mgrwt>
</event>
<event>
 4    1  0.1802450E-001  0.2409319E+02  0.7818608E-02  0.1674379E+00
          3   -1    0    0  501    0  0.00000000000E+00  0.00000000000E+00  0.25941564692E+01  0.25958229498E+01  0.93000000000E-01 0.  1.
         -3   -1    0    0    0  501 -0.00000000000E+00 -0.00000000000E+00 -0.55921614214E+02  0.55921691546E+02  0.93000000000E-01 0. -1.
        -13    1    1    2    0    0 -0.24607926571E+01  0.10378237244E+02 -0.13065499833E+02  0.16866587301E+02  0.10570000000E+00 0. -1.
         13    1    1    2    0    0  0.24607926571E+01 -0.10378237244E+02 -0.40261957912E+02  0.41650927195E+02  0.10570000000E+00 0.  1.
<mgrwt>
<rscale>  0 0.24093189E+02</rscale>
<asrwt>0</asrwt>
<pdfrwt beam="1">  1        3 0.39923518E-03 0.24093189E+02</pdfrwt>
<pdfrwt beam="2">  1       -3 0.86034585E-02 0.24093189E+02</pdfrwt>
<totfact> 0.10514140E+06</totfact>
</mgrwt>
</event>
<event>
 4    1  0.1802450E-001  0.2354403E+02  0.7818608E-02  0.1682840E+00
         -3   -1    0    0    0  501 -0.00000000000E+00  0.00000000000E+00  0.12455266050E+02  0.12455613248E+02  0.93000000000E-01 0. -1.
          3   -1    0    0  501    0  0.00000000000E+00 -0.00000000000E+00 -0.11125544256E+02  0.11125932949E+02  0.93000000000E-01 0.  1.
        -13    1    1    2    0    0 -0.99859600216E+01  0.55377254860E+01 -0.22003475743E+01  0.11629209047E+02  0.10570000000E+00 0. -1.
         13    1    1    2    0    0  0.99859600216E+01 -0.55377254860E+01  0.35300693685E+01  0.11952337150E+02  0.10570000000E+00 0.  1.
<mgrwt>
<rscale>  0 0.23544026E+02</rscale>
<asrwt>0</asrwt>
<pdfrwt beam="2">  1        3 0.17116788E-02 0.23544026E+02</pdfrwt>
<pdfrwt beam="1">  1       -3 0.19162514E-02 0.23544026E+02</pdfrwt>
<totfact> 0.12340143E+06</totfact>
</mgrwt>
</event>
<event>
 4    1  0.1802450E-001  0.2745445E+02  0.7818608E-02  0.1628060E+00
          3   -1    0    0  501    0  0.00000000000E+00  0.00000000000E+00  0.20224031885E+01  0.20245403570E+01  0.93000000000E-01 0. -1.
         -3   -1    0    0    0  501 -0.00000000000E+00 -0.00000000000E+00 -0.93123268434E+02  0.93123314873E+02  0.93000000000E-01 0.  1.
        -13    1    1    2    0    0  0.25963454314E+01 -0.12182579575E+02 -0.25560662926E+02  0.28434396713E+02  0.10570000000E+00 0. -1.
         13    1    1    2    0    0 -0.25963454314E+01  0.12182579575E+02 -0.65540202320E+02  0.66713458517E+02  0.10570000000E+00 0.  1.
<mgrwt>
<rscale>  0 0.27454448E+02</rscale>
<asrwt>0</asrwt>
<pdfrwt beam="1">  1        3 0.31130699E-03 0.27454448E+02</pdfrwt>
<pdfrwt beam="2">  1       -3 0.14326821E-01 0.27454448E+02</pdfrwt>
<totfact> 0.71108121E+05</totfact>
</mgrwt>
</event>
<event>
 4    1  0.1802450E-001  0.3531598E+02  0.7818608E-02  0.1545812E+00
          3   -1    0    0  501    0  0.00000000000E+00  0.00000000000E+00  0.44685520809E+01  0.44695197392E+01  0.93000000000E-01 0.  1.
         -3   -1    0    0    0  501 -0.00000000000E+00 -0.00000000000E+00 -0.69769004852E+02  0.69769066835E+02  0.93000000000E-01 0. -1.
        -13    1    1    2    0    0 -0.12648542851E+02  0.74726579579E+01 -0.12057214322E+02  0.19005626612E+02  0.10570000000E+00 0.  1.
         13    1    1    2    0    0  0.12648542851E+02 -0.74726579579E+01 -0.53243238449E+02  0.55232959963E+02  0.10570000000E+00 0. -1.
<mgrwt>
<rscale>  0 0.35315982E+02</rscale>
<asrwt>0</asrwt>
<pdfrwt beam="1">  1        3 0.68754880E-03 0.35315982E+02</pdfrwt>
<pdfrwt beam="2">  1       -3 0.10733771E-01 0.35315982E+02</pdfrwt>
<totfact> 0.41656653E+05</totfact>
</mgrwt>
</event>
<event>
 4    1  0.1802450E-001  0.2390518E+02  0.7818608E-02  0.1677244E+00
          3   -1    0    0  501    0  0.00000000000E+00  0.00000000000E+00  0.46355005051E+02  0.46355098342E+02  0.93000000000E-01 0.  1.
         -3   -1    0    0    0  501 -0.00000000000E+00 -0.00000000000E+00 -0.30811645223E+01  0.30825677306E+01  0.93000000000E-01 0. -1.
        -13    1    1    2    0    0  0.96291881137E+01 -0.60686792444E+01  0.14093954431E+02  0.18116314623E+02  0.10570000000E+00 0.  1.
         13    1    1    2    0    0 -0.96291881137E+01  0.60686792444E+01  0.29179886097E+02  0.31321351450E+02  0.10570000000E+00 0. -1.
<mgrwt>
<rscale>  0 0.23905178E+02</rscale>
<asrwt>0</asrwt>
<pdfrwt beam="1">  1        3 0.71316540E-02 0.23905178E+02</pdfrwt>
<pdfrwt beam="2">  1       -3 0.47414045E-03 0.23905178E+02</pdfrwt>
<totfact> 0.10982308E+06</totfact>
</mgrwt>
</event>
<event>
 4    1  0.1802450E-001  0.2107555E+02  0.7818608E-02  0.1724748E+00
         -3   -1    0    0    0  501 -0.00000000000E+00  0.00000000000E+00  0.43344566972E+01  0.43354542853E+01  0.93000000000E-01 0.  1.
          3   -1    0    0  501    0  0.00000000000E+00 -0.00000000000E+00 -0.25615034337E+02  0.25615203164E+02  0.93000000000E-01 0. -1.
        -13    1    1    2    0    0  0.71257953469E+01 -0.70691026366E+01 -0.60828959994E+01  0.11737204422E+02  0.10570000000E+00 0.  1.
         13    1    1    2    0    0 -0.71257953469E+01  0.70691026366E+01 -0.15197681641E+02  0.18213453027E+02  0.10570000000E+00 0. -1.
<mgrwt>
<rscale>  0 0.21075552E+02</rscale>
<asrwt>0</asrwt>
<pdfrwt beam="2">  1        3 0.39408642E-02 0.21075552E+02</pdfrwt>
<pdfrwt beam="1">  1       -3 0.66692923E-03 0.21075552E+02</pdfrwt>
<totfact> 0.15414663E+06</totfact>
</mgrwt>
</event>
<event>
 4    1  0.1802450E-001  0.2804389E+02  0.7818608E-02  0.1620775E+00
         -3   -1    0    0    0  501 -0.00000000000E+00  0.00000000000E+00  0.10146952943E+02  0.10147379121E+02  0.93000000000E-01 0. -1.
          3   -1    0    0  501    0  0.00000000000E+00 -0.00000000000E+00 -0.19375795990E+02  0.19376019179E+02  0.93000000000E-01 0.  1.
        -13    1    1    2    0    0 -0.10006907837E+02  0.97422359571E+01 -0.59269260619E+01  0.15171980455E+02  0.10570000000E+00 0.  1.
         13    1    1    2    0    0  0.10006907837E+02 -0.97422359571E+01 -0.33019169847E+01  0.14351417845E+02  0.10570000000E+00 0. -1.
<mgrwt>
<rscale>  0 0.28043885E+02</rscale>
<asrwt>0</asrwt>
<pdfrwt beam="2">  1        3 0.29809416E-02 0.28043885E+02</pdfrwt>
<pdfrwt beam="1">  1       -3 0.15611196E-02 0.28043885E+02</pdfrwt>
<totfact> 0.81321108E+05</totfact>
</mgrwt>
</event>
<event>
 4    1  0.1802450E-001  0.8494479E+02  0.7818608E-02  0.1315577E+00
          3   -1    0    0  501    0  0.00000000000E+00  0.00000000000E+00  0.18952925768E+02  0.18953153937E+02  0.93000000000E-01 0. -1.
         -3   -1    0    0    0  501 -0.00000000000E+00 -0.00000000000E+00 -0.95177326457E+02  0.95177371893E+02  0.93000000000E-01 0.  1.
        -13    1    1    2    0    0 -0.18456503458E+02  0.59104159072E+00 -0.89501486912E+02  0.91386646629E+02  0.10570000000E+00 0.  1.
         13    1    1    2    0    0  0.18456503458E+02 -0.59104159072E+00  0.13277086223E+02  0.22743879201E+02  0.10570000000E+00 0. -1.
<mgrwt>
<rscale>  0 0.84944792E+02</rscale>
<asrwt>0</asrwt>
<pdfrwt beam="1">  1        3 0.29158558E-02 0.84944792E+02</pdfrwt>
<pdfrwt beam="2">  1       -3 0.14642686E-01 0.84944792E+02</pdfrwt>
<totfact> 0.40750759E+04</totfact>
</mgrwt>
</event>
<event>
 4    1  0.1802450E-001  0.3099867E+02  0.7818608E-02  0.1587305E+00
          3   -1    0    0  501    0  0.00000000000E+00  0.00000000000E+00  0.38715594538E+02  0.38715706237E+02  0.93000000000E-01 0. -1.
         -3   -1    0    0    0  501 -0.00000000000E+00 -0.00000000000E+00 -0.62045098780E+01  0.62052068319E+01  0.93000000000E-01 0.  1.
        -13    1    1    2    0    0  0.47369332552E+01 -0.14463595459E+02  0.20501288896E+02  0.25533275332E+02  0.10570000000E+00 0. -1.
         13    1    1    2    0    0 -0.47369332552E+01  0.14463595459E+02  0.12009795764E+02  0.19387637738E+02  0.10570000000E+00 0.  1.
<mgrwt>
<rscale>  0 0.30998674E+02</rscale>
<asrwt>0</asrwt>
<pdfrwt beam="1">  1        3 0.59563076E-02 0.30998674E+02</pdfrwt>
<pdfrwt beam="2">  1       -3 0.95460218E-03 0.30998674E+02</pdfrwt>
<totfact> 0.61434426E+05</totfact>
</mgrwt>
</event>
<event>
 4    1  0.1802450E-001  0.2473913E+02  0.7818608E-02  0.1664777E+00
         -3   -1    0    0    0  501 -0.00000000000E+00  0.00000000000E+00  0.21397065979E+01  0.21417267158E+01  0.93000000000E-01 0. -1.
          3   -1    0    0  501    0  0.00000000000E+00 -0.00000000000E+00 -0.71472195457E+02  0.71472255963E+02  0.93000000000E-01 0.  1.
        -13    1    1    2    0    0 -0.50392259088E+01  0.10847981129E+02 -0.25293101112E+02  0.27979003354E+02  0.10570000000E+00 0. -1.
         13    1    1    2    0    0  0.50392259088E+01 -0.10847981129E+02 -0.44039387747E+02  0.45634979325E+02  0.10570000000E+00 0.  1.
<mgrwt>
<rscale>  0 0.24739128E+02</rscale>
<asrwt>0</asrwt>
<pdfrwt beam="2">  1        3 0.10995881E-01 0.24739128E+02</pdfrwt>
<pdfrwt beam="1">  1       -3 0.32934573E-03 0.24739128E+02</pdfrwt>
<totfact> 0.95067592E+05</totfact>
</mgrwt>
</event>
<event>
 4    1  0.1802450E-001  0.6046297E+02  0.7818608E-02  0.1395899E+00
         -3   -1    0    0    0  501 -0.00000000000E+00  0.00000000000E+00  0.27959182162E+02  0.27959336833E+02  0.93000000000E-01 0.  1.
          3   -1    0    0  501    0  0.00000000000E+00 -0.00000000000E+00 -0.32688149778E+02  0.32688282074E+02  0.93000000000E-01 0. -1.
        -13    1    1    2    0    0  0.21991924366E+01 -0.24332669687E+02 -0.20223807940E+02  0.31716381280E+02  0.10570000000E+00 0. -1.
         13    1    1    2    0    0 -0.21991924366E+01  0.24332669687E+02  0.15494840323E+02  0.28931237626E+02  0.10570000000E+00 0.  1.
<mgrwt>
<rscale>  0 0.60462968E+02</rscale>
<asrwt>0</asrwt>
<pdfrwt beam="2">  1        3 0.50289682E-02 0.60462968E+02</pdfrwt>
<pdfrwt beam="1">  1       -3 0.43014347E-02 0.60462968E+02</pdfrwt>
<totfact> 0.11308000E+05</totfact>
</mgrwt>
</event>
<event>
 4    1  0.1802450E-001  0.8235498E+02  0.7818608E-02  0.1322498E+00
          3   -1    0    0  501    0  0.00000000000E+00  0.00000000000E+00  0.17560419851E+02  0.17560666113E+02  0.93000000000E-01 0. -1.
         -3   -1    0    0    0  501 -0.00000000000E+00 -0.00000000000E+00 -0.96556302647E+02  0.96556347434E+02  0.93000000000E-01 0.  1.
        -13    1    1    2    0    0  0.10894679807E+02  0.29120478180E+02 -0.20879128764E+01  0.31161945546E+02  0.10570000000E+00 0. -1.
         13    1    1    2    0    0 -0.10894679807E+02 -0.29120478180E+02 -0.76907969920E+02  0.82955068002E+02  0.10570000000E+00 0.  1.
<mgrwt>
<rscale>  0 0.82354983E+02</rscale>
<asrwt>0</asrwt>
<pdfrwt beam="1">  1        3 0.27016255E-02 0.82354983E+02</pdfrwt>
<pdfrwt beam="2">  1       -3 0.14854838E-01 0.82354983E+02</pdfrwt>
<totfact> 0.44287124E+04</totfact>
</mgrwt>
</event>
<event>
 4    1  0.1802450E-001  0.3144182E+02  0.7818608E-02  0.1582677E+00
          3   -1    0    0  501    0  0.00000000000E+00  0.00000000000E+00  0.10769886365E+03  0.10769890380E+03  0.93000000000E-01 0.  1.
         -3   -1    0    0    0  501 -0.00000000000E+00 -0.00000000000E+00 -0.22938142857E+01  0.22956987994E+01  0.93000000000E-01 0. -1.
        -13    1    1    2    0    0 -0.12025911789E+01 -0.13837674942E+02  0.78459623945E+02  0.79679678936E+02  0.10570000000E+00 0.  1.
         13    1    1    2    0    0  0.12025911789E+01  0.13837674942E+02  0.26945425415E+02  0.30314923662E+02  0.10570000000E+00 0. -1.
<mgrwt>
<rscale>  0 0.31441822E+02</rscale>
<asrwt>0</asrwt>
<pdfrwt beam="1">  1        3 0.16569202E-01 0.31441822E+02</pdfrwt>
<pdfrwt beam="2">  1       -3 0.35304261E-03 0.31441822E+02</pdfrwt>
<totfact> 0.50176315E+05</totfact>
</mgrwt>
</event>
<event>
 4    1  0.1802450E-001  0.4496387E+02  0.7818608E-02  0.1474567E+00
         -3   -1    0    0    0  501 -0.00000000000E+00  0.00000000000E+00  0.22554250344E+02  0.22554442081E+02  0.93000000000E-01 0. -1.
          3   -1    0    0  501    0  0.00000000000E+00 -0.00000000000E+00 -0.22409471597E+02  0.22409664573E+02  0.93000000000E-01 0.  1.
        -13    1    1    2    0    0 -0.12716034446E+02 -0.13465239463E+02 -0.12671934348E+02  0.22441018213E+02  0.10570000000E+00 0.  1.
         13    1    1    2    0    0  0.12716034446E+02  0.13465239463E+02  0.12816713095E+02  0.22523088440E+02  0.10570000000E+00 0. -1.
<mgrwt>
<rscale>  0 0.44963874E+02</rscale>
<asrwt>0</asrwt>
<pdfrwt beam="2">  1        3 0.34476406E-02 0.44963874E+02</pdfrwt>
<pdfrwt beam="1">  1       -3 0.34699143E-02 0.44963874E+02</pdfrwt>
<totfact> 0.25011191E+05</totfact>
</mgrwt>
</event>
<event>
 4    1  0.1802450E-001  0.3958649E+02  0.7818608E-02  0.1511277E+00
         -3   -1    0    0    0  501 -0.00000000000E+00  0.00000000000E+00  0.14596080293E+02  0.14596376569E+02  0.93000000000E-01 0.  1.
          3   -1    0    0  501    0  0.00000000000E+00 -0.00000000000E+00 -0.26840293417E+02  0.26840454537E+02  0.93000000000E-01 0. -1.
        -13    1    1    2    0    0  0.72511530506E+01 -0.10120587086E+02 -0.22228189115E+02  0.25477618950E+02  0.10570000000E+00 0. -1.
         13    1    1    2    0    0 -0.72511530506E+01  0.10120587086E+02  0.99839759916E+01  0.15959212155E+02  0.10570000000E+00 0.  1.
<mgrwt>
<rscale>  0 0.39586490E+02</rscale>
<asrwt>0</asrwt>
<pdfrwt beam="2">  1        3 0.41293111E-02 0.39586490E+02</pdfrwt>
<pdfrwt beam="1">  1       -3 0.22455860E-02 0.39586490E+02</pdfrwt>
<totfact> 0.34578646E+05</totfact>
</mgrwt>
</event>
<event>
 4    1  0.1802450E-001  0.2501093E+02  0.7818608E-02  0.1660845E+00
          3   -1    0    0  501    0  0.00000000000E+00  0.00000000000E+00  0.53467824114E+02  0.53467904994E+02  0.93000000000E-01 0. -1.
         -3   -1    0    0    0  501 -0.00000000000E+00 -0.00000000000E+00 -0.29240506280E+01  0.29255291957E+01  0.93000000000E-01 0.  1.
        -13    1    1    2    0    0 -0.94845967921E+01  0.80106159498E+01  0.28652420054E+02  0.31226589497E+02  0.10570000000E+00 0.  1.
         13    1    1    2    0    0  0.94845967921E+01 -0.80106159498E+01  0.21891353432E+02  0.25166844692E+02  0.10570000000E+00 0. -1.
<mgrwt>
<rscale>  0 0.25010925E+02</rscale>
<asrwt>0</asrwt>
<pdfrwt beam="1">  1        3 0.82259395E-02 0.25010925E+02</pdfrwt>
<pdfrwt beam="2">  1       -3 0.44997388E-03 0.25010925E+02</pdfrwt>
<totfact> 0.97261383E+05</totfact>
</mgrwt>
</event>
<event>
 4    1  0.1802450E-001  0.2501972E+02  0.7818608E-02  0.1660719E+00
         -3   -1    0    0    0  501 -0.00000000000E+00  0.00000000000E+00  0.10767629869E+02  0.10768031482E+02  0.93000000000E-01 0. -1.
          3   -1    0    0  501    0  0.00000000000E+00 -0.00000000000E+00 -0.14533161129E+02  0.14533458687E+02  0.93000000000E-01 0.  1.
        -13    1    1    2    0    0 -0.76763525108E+01 -0.84623806206E+01 -0.70339622781E+01  0.13417379456E+02  0.10570000000E+00 0.  1.
         13    1    1    2    0    0  0.76763525108E+01  0.84623806206E+01  0.32684310182E+01  0.11884110713E+02  0.10570000000E+00 0. -1.
<mgrwt>
<rscale>  0 0.25019716E+02</rscale>
<asrwt>0</asrwt>
<pdfrwt beam="2">  1        3 0.22359247E-02 0.25019716E+02</pdfrwt>
<pdfrwt beam="1">  1       -3 0.16566122E-02 0.25019716E+02</pdfrwt>
<totfact> 0.10702043E+06</totfact>
</mgrwt>
</event>
<event>
 4    1  0.1802450E-001  0.2615939E+02  0.7818608E-02  0.1644887E+00
         -3   -1    0    0    0  501 -0.00000000000E+00  0.00000000000E+00  0.43275755113E+02  0.43275855042E+02  0.93000000000E-01 0.  1.
          3   -1    0    0  501    0  0.00000000000E+00 -0.00000000000E+00 -0.39525642950E+01  0.39536582435E+01  0.93000000000E-01 0. -1.
        -13    1    1    2    0    0 -0.10770937108E+02 -0.72129333045E+01  0.16520041011E+02  0.20999105232E+02  0.10570000000E+00 0. -1.
         13    1    1    2    0    0  0.10770937108E+02  0.72129333045E+01  0.22803149807E+02  0.26230408054E+02  0.10570000000E+00 0.  1.
<mgrwt>
<rscale>  0 0.26159388E+02</rscale>
<asrwt>0</asrwt>
<pdfrwt beam="2">  1        3 0.60817865E-03 0.26159388E+02</pdfrwt>
<pdfrwt beam="1">  1       -3 0.66579004E-02 0.26159388E+02</pdfrwt>
<totfact> 0.90256132E+05</totfact>
</mgrwt>
</event>
<event>
 4    1  0.1802450E-001  0.1110420E+03  0.7818608E-02  0.1258652E+00
         -3   -1    0    0    0  501 -0.00000000000E+00  0.00000000000E+00  0.32107270728E+03  0.32107272075E+03  0.93000000000E-01 0.  1.
          3   -1    0    0  501    0  0.00000000000E+00 -0.00000000000E+00 -0.96006499221E+01  0.96011003498E+01  0.93000000000E-01 0. -1.
        -13    1    1    2    0    0  0.42013855439E+02  0.24322299661E+02  0.75507094811E+02  0.89766758040E+02  0.10570000000E+00 0. -1.
         13    1    1    2    0    0 -0.42013855439E+02 -0.24322299661E+02  0.23596496255E+03  0.24090706306E+03  0.10570000000E+00 0.  1.
<mgrwt>
<rscale>  0 0.11104203E+03</rscale>
<asrwt>0</asrwt>
<pdfrwt beam="2">  1        3 0.14770588E-02 0.11104203E+03</pdfrwt>
<pdfrwt beam="1">  1       -3 0.49395836E-01 0.11104203E+03</pdfrwt>
<totfact> 0.13404826E+04</totfact>
</mgrwt>
</event>
<event>
 4    1  0.1802450E-001  0.2402786E+02  0.7818608E-02  0.1675371E+00
         -3   -1    0    0    0  501 -0.00000000000E+00  0.00000000000E+00  0.41770945391E+01  0.41781296999E+01  0.93000000000E-01 0.  1.
          3   -1    0    0  501    0  0.00000000000E+00 -0.00000000000E+00 -0.34548440657E+02  0.34548565828E+02  0.93000000000E-01 0. -1.
        -13    1    1    2    0    0  0.24398420636E+01  0.10205129426E+02 -0.57565193658E+01  0.11968549770E+02  0.10570000000E+00 0. -1.
         13    1    1    2    0    0 -0.24398420636E+01 -0.10205129426E+02 -0.24614826752E+02  0.26758145758E+02  0.10570000000E+00 0.  1.
<mgrwt>
<rscale>  0 0.24027865E+02</rscale>
<asrwt>0</asrwt>
<pdfrwt beam="2">  1        3 0.53152338E-02 0.24027865E+02</pdfrwt>
<pdfrwt beam="1">  1       -3 0.64271921E-03 0.24027865E+02</pdfrwt>
<totfact> 0.11217539E+06</totfact>
</mgrwt>
</event>
<event>
 4    1  0.1802450E-001  0.5977742E+02  0.7818608E-02  0.1398768E+00
          3   -1    0    0  501    0  0.00000000000E+00  0.00000000000E+00  0.18407411924E+02  0.18407646855E+02  0.93000000000E-01 0.  1.
         -3   -1    0    0    0  501 -0.00000000000E+00 -0.00000000000E+00 -0.48530670235E+02  0.48530759343E+02  0.93000000000E-01 0. -1.
        -13    1    1    2    0    0  0.16981460315E+02  0.17748588272E+02  0.40058504018E+01  0.24888559420E+02  0.10570000000E+00 0.  1.
         13    1    1    2    0    0 -0.16981460315E+02 -0.17748588272E+02 -0.34129108713E+02  0.42049846778E+02  0.10570000000E+00 0. -1.
<mgrwt>
<rscale>  0 0.59777417E+02</rscale>
<asrwt>0</asrwt>
<pdfrwt beam="1">  1        3 0.28319345E-02 0.59777417E+02</pdfrwt>
<pdfrwt beam="2">  1       -3 0.74662818E-02 0.59777417E+02</pdfrwt>
<totfact> 0.11465377E+05</totfact>
</mgrwt>
</event>
<event>
 4    1  0.1802450E-001  0.2578859E+02  0.7818608E-02  0.1649927E+00
          3   -1    0    0  501    0  0.00000000000E+00  0.00000000000E+00  0.10863213562E+02  0.10863611642E+02  0.93000000000E-01 0.  1.
         -3   -1    0    0    0  501 -0.00000000000E+00 -0.00000000000E+00 -0.15304304765E+02  0.15304587330E+02  0.93000000000E-01 0. -1.
        -13    1    1    2    0    0 -0.12025299834E+02 -0.22474958004E+01 -0.63539066637E+01  0.13785585800E+02  0.10570000000E+00 0.  1.
         13    1    1    2    0    0  0.12025299834E+02  0.22474958004E+01  0.19128154613E+01  0.12382613171E+02  0.10570000000E+00 0. -1.
<mgrwt>
<rscale>  0 0.25788589E+02</rscale>
<asrwt>0</asrwt>
<pdfrwt beam="1">  1        3 0.16713160E-02 0.25788589E+02</pdfrwt>
<pdfrwt beam="2">  1       -3 0.23545608E-02 0.25788589E+02</pdfrwt>
<totfact> 0.99627847E+05</totfact>
</mgrwt>
</event>
<event>
 4    1  0.1802450E-001  0.3297207E+02  0.7818608E-02  0.1567383E+00
          3   -1    0    0  501    0  0.00000000000E+00  0.00000000000E+00  0.57923784513E+02  0.57923859171E+02  0.93000000000E-01 0. -1.
         -3   -1    0    0    0  501 -0.00000000000E+00 -0.00000000000E+00 -0.46916508606E+01  0.46925725139E+01  0.93000000000E-01 0.  1.
        -13    1    1    2    0    0 -0.36170390667E+01  0.93956981172E+01  0.51407256780E+02  0.52383960683E+02  0.10570000000E+00 0. -1.
         13    1    1    2    0    0  0.36170390667E+01 -0.93956981172E+01  0.18248768724E+01  0.10232471002E+02  0.10570000000E+00 0.  1.
<mgrwt>
<rscale>  0 0.32972071E+02</rscale>
<asrwt>0</asrwt>
<pdfrwt beam="1">  1        3 0.89114275E-02 0.32972071E+02</pdfrwt>
<pdfrwt beam="2">  1       -3 0.72186913E-03 0.32972071E+02</pdfrwt>
<totfact> 0.50544908E+05</totfact>
</mgrwt>
</event>
<event>
 4    1  0.1802450E-001  0.2584323E+02  0.7818608E-02  0.1649178E+00
          3   -1    0    0  501    0  0.00000000000E+00  0.00000000000E+00  0.28463631348E+01  0.28478820367E+01  0.93000000000E-01 0. -1.
         -3   -1    0    0    0  501 -0.00000000000E+00 -0.00000000000E+00 -0.58642957640E+02  0.58643031383E+02  0.93000000000E-01 0.  1.
        -13    1    1    2    0    0  0.87422827579E+01 -0.80821807448E+01 -0.15952047722E+02  0.19905480462E+02  0.10570000000E+00 0. -1.
         13    1    1    2    0    0 -0.87422827579E+01  0.80821807448E+01 -0.39844546784E+02  0.41585432958E+02  0.10570000000E+00 0.  1.
<mgrwt>
<rscale>  0 0.25843229E+02</rscale>
<asrwt>0</asrwt>
<pdfrwt beam="1">  1        3 0.43802457E-03 0.25843229E+02</pdfrwt>
<pdfrwt beam="2">  1       -3 0.90221151E-02 0.25843229E+02</pdfrwt>
<totfact> 0.89059811E+05</totfact>
</mgrwt>
</event>
<event>
 4    1  0.1802450E-001  0.2589257E+02  0.7818608E-02  0.1648503E+00
          3   -1    0    0  501    0  0.00000000000E+00  0.00000000000E+00  0.84511091843E+02  0.84511143014E+02  0.93000000000E-01 0.  1.
         -3   -1    0    0    0  501 -0.00000000000E+00 -0.00000000000E+00 -0.19821041791E+01  0.19842847520E+01  0.93000000000E-01 0. -1.
        -13    1    1    2    0    0 -0.32083330673E+01  0.11872160065E+02  0.54773517340E+02  0.56137251091E+02  0.10570000000E+00 0.  1.
         13    1    1    2    0    0  0.32083330673E+01 -0.11872160065E+02  0.27755470324E+02  0.30358176676E+02  0.10570000000E+00 0. -1.
<mgrwt>
<rscale>  0 0.25892571E+02</rscale>
<asrwt>0</asrwt>
<pdfrwt beam="1">  1        3 0.13001877E-01 0.25892571E+02</pdfrwt>
<pdfrwt beam="2">  1       -3 0.30511080E-03 0.25892571E+02</pdfrwt>
<totfact> 0.82978942E+05</totfact>
</mgrwt>
</event>
<event>
 4    1  0.1802450E-001  0.6140888E+02  0.7818608E-02  0.1392013E+00
          3   -1    0    0  501    0  0.00000000000E+00  0.00000000000E+00  0.19994029303E+03  0.19994031466E+03  0.93000000000E-01 0. -1.
         -3   -1    0    0    0  501 -0.00000000000E+00 -0.00000000000E+00 -0.47147402043E+01  0.47156573449E+01  0.93000000000E-01 0.  1.
        -13    1    1    2    0    0 -0.24009850813E+02  0.12771642124E+02  0.14511525339E+03  0.14764157855E+03  0.10570000000E+00 0. -1.
         13    1    1    2    0    0  0.24009850813E+02 -0.12771642124E+02  0.50110299439E+02  0.57014393454E+02  0.10570000000E+00 0.  1.
<mgrwt>
<rscale>  0 0.61408879E+02</rscale>
<asrwt>0</asrwt>
<pdfrwt beam="1">  1        3 0.30760122E-01 0.61408879E+02</pdfrwt>
<pdfrwt beam="2">  1       -3 0.72541676E-03 0.61408879E+02</pdfrwt>
<totfact> 0.79926824E+04</totfact>
</mgrwt>
</event>
<event>
 4    1  0.1802450E-001  0.2501835E+02  0.7818608E-02  0.1660738E+00
         -3   -1    0    0    0  501 -0.00000000000E+00  0.00000000000E+00  0.90065312708E+01  0.90070114096E+01  0.93000000000E-01 0.  1.
          3   -1    0    0  501    0  0.00000000000E+00 -0.00000000000E+00 -0.17372929933E+02  0.17373178853E+02  0.93000000000E-01 0. -1.
        -13    1    1    2    0    0  0.59471971855E+01 -0.92106908267E+01 -0.10532807776E+02  0.15203854512E+02  0.10570000000E+00 0. -1.
         13    1    1    2    0    0 -0.59471971855E+01  0.92106908267E+01  0.21664091145E+01  0.11176335751E+02  0.10570000000E+00 0.  1.
<mgrwt>
<rscale>  0 0.25018350E+02</rscale>
<asrwt>0</asrwt>
<pdfrwt beam="2">  1        3 0.26728145E-02 0.25018350E+02</pdfrwt>
<pdfrwt beam="1">  1       -3 0.13856763E-02 0.25018350E+02</pdfrwt>
<totfact> 0.10664152E+06</totfact>
</mgrwt>
</event>
<event>
 4    1  0.1802450E-001  0.2118946E+02  0.7818608E-02  0.1722659E+00
         -3   -1    0    0    0  501 -0.00000000000E+00  0.00000000000E+00  0.80928709879E+02  0.80928763315E+02  0.93000000000E-01 0.  1.
          3   -1    0    0  501    0  0.00000000000E+00 -0.00000000000E+00 -0.13853889954E+01  0.13885069927E+01  0.93000000000E-01 0. -1.
        -13    1    1    2    0    0 -0.64946400939E+01  0.80410402651E+01  0.30745468527E+02  0.32436610272E+02  0.10570000000E+00 0. -1.
         13    1    1    2    0    0  0.64946400939E+01 -0.80410402651E+01  0.48797852356E+02  0.49880660035E+02  0.10570000000E+00 0.  1.
<mgrwt>
<rscale>  0 0.21189457E+02</rscale>
<asrwt>0</asrwt>
<pdfrwt beam="2">  1        3 0.21338065E-03 0.21189457E+02</pdfrwt>
<pdfrwt beam="1">  1       -3 0.12450819E-01 0.21189457E+02</pdfrwt>
<totfact> 0.13082999E+06</totfact>
</mgrwt>
</event>
<event>
 4    1  0.1802450E-001  0.3453052E+02  0.7818608E-02  0.1552810E+00
          3   -1    0    0  501    0  0.00000000000E+00  0.00000000000E+00  0.76506276095E+02  0.76506332620E+02  0.93000000000E-01 0. -1.
         -3   -1    0    0    0  501 -0.00000000000E+00 -0.00000000000E+00 -0.38956592939E+01  0.38967692175E+01  0.93000000000E-01 0.  1.
        -13    1    1    2    0    0  0.11916491045E+02 -0.11786954191E+02  0.26664492830E+02  0.31495101179E+02  0.10570000000E+00 0. -1.
         13    1    1    2    0    0 -0.11916491045E+02  0.11786954191E+02  0.45946123971E+02  0.48908000658E+02  0.10570000000E+00 0.  1.
<mgrwt>
<rscale>  0 0.34530524E+02</rscale>
<asrwt>0</asrwt>
<pdfrwt beam="1">  1        3 0.11770286E-01 0.34530524E+02</pdfrwt>
<pdfrwt beam="2">  1       -3 0.59942195E-03 0.34530524E+02</pdfrwt>
<totfact> 0.43250246E+05</totfact>
</mgrwt>
</event>
<event>
 4    1  0.1802450E-001  0.3990505E+02  0.7818608E-02  0.1508911E+00
         -3   -1    0    0    0  501 -0.00000000000E+00  0.00000000000E+00  0.32055550915E+01  0.32069038721E+01  0.93000000000E-01 0.  1.
          3   -1    0    0  501    0  0.00000000000E+00 -0.00000000000E+00 -0.12416420705E+03  0.12416424188E+03  0.93000000000E-01 0. -1.
        -13    1    1    2    0    0 -0.60546735971E+01  0.18999969613E+02 -0.62582638458E+02  0.65682994195E+02  0.10570000000E+00 0. -1.
         13    1    1    2    0    0  0.60546735971E+01 -0.18999969613E+02 -0.58376013506E+02  0.61688151561E+02  0.10570000000E+00 0.  1.
<mgrwt>
<rscale>  0 0.39905053E+02</rscale>
<asrwt>0</asrwt>
<pdfrwt beam="2">  1        3 0.19102288E-01 0.39905053E+02</pdfrwt>
<pdfrwt beam="1">  1       -3 0.49326885E-03 0.39905053E+02</pdfrwt>
<totfact> 0.27366050E+05</totfact>
</mgrwt>
</event>
<event>
 4    1  0.1802450E-001  0.3885705E+02  0.7818608E-02  0.1516795E+00
          3   -1    0    0  501    0  0.00000000000E+00  0.00000000000E+00  0.10119285466E+03  0.10119289739E+03  0.93000000000E-01 0. -1.
         -3   -1    0    0    0  501 -0.00000000000E+00 -0.00000000000E+00 -0.37295576908E+01  0.37307170315E+01  0.93000000000E-01 0.  1.
        -13    1    1    2    0    0 -0.55826121540E+01  0.14535944940E+02  0.80105352803E+02  0.81604766858E+02  0.10570000000E+00 0. -1.
         13    1    1    2    0    0  0.55826121540E+01 -0.14535944940E+02  0.17357944165E+02  0.23318847567E+02  0.10570000000E+00 0.  1.
<mgrwt>
<rscale>  0 0.38857054E+02</rscale>
<asrwt>0</asrwt>
<pdfrwt beam="1">  1        3 0.15568224E-01 0.38857054E+02</pdfrwt>
<pdfrwt beam="2">  1       -3 0.57387057E-03 0.38857054E+02</pdfrwt>
<totfact> 0.30708985E+05</totfact>
</mgrwt>
</event>
<event>
 4    1  0.1802450E-001  0.2132735E+02  0.7818608E-02  0.1720152E+00
          3   -1    0    0  501    0  0.00000000000E+00  0.00000000000E+00  0.23116336800E+02  0.23116523874E+02  0.93000000000E-01 0.  1.
         -3   -1    0    0    0  501 -0.00000000000E+00 -0.00000000000E+00 -0.49185584585E+01  0.49194376010E+01  0.93000000000E-01 0. -1.
        -13    1    1    2    0    0 -0.48413400896E+01  0.92364345748E+01  0.12024334864E+02  0.15916849529E+02  0.10570000000E+00 0.  1.
         13    1    1    2    0    0  0.48413400896E+01 -0.92364345748E+01  0.61734434775E+01  0.12119111947E+02  0.10570000000E+00 0. -1.
<mgrwt>
<rscale>  0 0.21327353E+02</rscale>
<asrwt>0</asrwt>
<pdfrwt beam="1">  1        3 0.35564414E-02 0.21327353E+02</pdfrwt>
<pdfrwt beam="2">  1       -3 0.75678334E-03 0.21327353E+02</pdfrwt>
<totfact> 0.15117410E+06</totfact>
</mgrwt>
</event>
<event>
 4    1  0.1802450E-001  0.2684556E+02  0.7818608E-02  0.1635826E+00
         -3   -1    0    0    0  501 -0.00000000000E+00  0.00000000000E+00  0.16627499926E+01  0.16653487737E+01  0.93000000000E-01 0. -1.
          3   -1    0    0  501    0  0.00000000000E+00 -0.00000000000E+00 -0.10827001071E+03  0.10827005065E+03  0.93000000000E-01 0.  1.
        -13    1    1    2    0    0  0.12070865628E+02 -0.41181457056E+01 -0.36175066288E+02  0.38357678690E+02  0.10570000000E+00 0. -1.
         13    1    1    2    0    0 -0.12070865628E+02  0.41181457056E+01 -0.70432194428E+02  0.71577720735E+02  0.10570000000E+00 0.  1.
<mgrwt>
<rscale>  0 0.26845558E+02</rscale>
<asrwt>0</asrwt>
<pdfrwt beam="2">  1        3 0.16657122E-01 0.26845558E+02</pdfrwt>
<pdfrwt beam="1">  1       -3 0.25601075E-03 0.26845558E+02</pdfrwt>
<totfact> 0.72207176E+05</totfact>
</mgrwt>
</event>
<event>
 4    1  0.1802450E-001  0.2055306E+02  0.7818608E-02  0.1734548E+00
         -3   -1    0    0    0  501 -0.00000000000E+00  0.00000000000E+00  0.55517035932E+01  0.55524824887E+01  0.93000000000E-01 0. -1.
          3   -1    0    0  501    0  0.00000000000E+00 -0.00000000000E+00 -0.19020235320E+02  0.19020462682E+02  0.93000000000E-01 0.  1.
        -13    1    1    2    0    0  0.97053955685E+01 -0.26267673203E+01 -0.41976821661E+01  0.10896160689E+02  0.10570000000E+00 0. -1.
         13    1    1    2    0    0 -0.97053955685E+01  0.26267673203E+01 -0.92708495610E+01  0.13676784482E+02  0.10570000000E+00 0.  1.
<mgrwt>
<rscale>  0 0.20553060E+02</rscale>
<asrwt>0</asrwt>
<pdfrwt beam="2">  1        3 0.29262674E-02 0.20553060E+02</pdfrwt>
<pdfrwt beam="1">  1       -3 0.85418566E-03 0.20553060E+02</pdfrwt>
<totfact> 0.16584782E+06</totfact>
</mgrwt>
</event>
<event>
 4    1  0.1802450E-001  0.5014484E+02  0.7818608E-02  0.1444562E+00
         -3   -1    0    0    0  501 -0.00000000000E+00  0.00000000000E+00  0.52521816635E+01  0.52530049711E+01  0.93000000000E-01 0.  1.
          3   -1    0    0  501    0  0.00000000000E+00 -0.00000000000E+00 -0.11967837360E+03  0.11967840974E+03  0.93000000000E-01 0. -1.
        -13    1    1    2    0    0 -0.17709719782E+02 -0.91515438395E+01 -0.95098125642E+02  0.97165063693E+02  0.10570000000E+00 0. -1.
         13    1    1    2    0    0  0.17709719782E+02  0.91515438395E+01 -0.19328066298E+02  0.27766351016E+02  0.10570000000E+00 0.  1.
<mgrwt>
<rscale>  0 0.50144840E+02</rscale>
<asrwt>0</asrwt>
<pdfrwt beam="2">  1        3 0.18412122E-01 0.50144840E+02</pdfrwt>
<pdfrwt beam="1">  1       -3 0.80809415E-03 0.50144840E+02</pdfrwt>
<totfact> 0.15673703E+05</totfact>
</mgrwt>
</event>
<event>
 4    1  0.1802450E-001  0.1585641E+03  0.7818608E-02  0.1190327E+00
         -3   -1    0    0    0  501 -0.00000000000E+00  0.00000000000E+00  0.11633583147E+03  0.11633586865E+03  0.93000000000E-01 0.  1.
          3   -1    0    0  501    0  0.00000000000E+00 -0.00000000000E+00 -0.54030095099E+02  0.54030175137E+02  0.93000000000E-01 0. -1.
        -13    1    1    2    0    0  0.18331610697E+02 -0.76712750266E+02  0.39797913360E+02  0.88344660758E+02  0.10570000000E+00 0.  1.
         13    1    1    2    0    0 -0.18331610697E+02  0.76712750266E+02  0.22507823015E+02  0.82021383026E+02  0.10570000000E+00 0. -1.
<mgrwt>
<rscale>  0 0.15856413E+03</rscale>
<asrwt>0</asrwt>
<pdfrwt beam="2">  1        3 0.83123314E-02 0.15856413E+03</pdfrwt>
<pdfrwt beam="1">  1       -3 0.17897829E-01 0.15856413E+03</pdfrwt>
<totfact> 0.64011193E+03</totfact>
</mgrwt>
</event>
<event>
 4    1  0.1802450E-001  0.3376916E+02  0.7818608E-02  0.1559810E+00
         -3   -1    0    0    0  501 -0.00000000000E+00  0.00000000000E+00  0.19838469554E+02  0.19838687538E+02  0.93000000000E-01 0.  1.
          3   -1    0    0  501    0  0.00000000000E+00 -0.00000000000E+00 -0.14370068476E+02  0.14370369411E+02  0.93000000000E-01 0. -1.
        -13    1    1    2    0    0 -0.44722049313E+01  0.16235081190E+02  0.14937532774E+01  0.16906239958E+02  0.10570000000E+00 0. -1.
         13    1    1    2    0    0  0.44722049313E+01 -0.16235081190E+02  0.39746478009E+01  0.17302816991E+02  0.10570000000E+00 0.  1.
<mgrwt>
<rscale>  0 0.33769160E+02</rscale>
<asrwt>0</asrwt>
<pdfrwt beam="2">  1        3 0.22108197E-02 0.33769160E+02</pdfrwt>
<pdfrwt beam="1">  1       -3 0.30521121E-02 0.33769160E+02</pdfrwt>
<totfact> 0.51838130E+05</totfact>
</mgrwt>
</event>
<event>
 4    1  0.1802450E-001  0.2606332E+02  0.7818608E-02  0.1646183E+00
          3   -1    0    0  501    0  0.00000000000E+00  0.00000000000E+00  0.78202018848E+01  0.78207548560E+01  0.93000000000E-01 0. -1.
         -3   -1    0    0    0  501 -0.00000000000E+00 -0.00000000000E+00 -0.21714659093E+02  0.21714858243E+02  0.93000000000E-01 0.  1.
        -13    1    1    2    0    0  0.11031304746E+02  0.18041495939E+01  0.64354728009E+00  0.11196873035E+02  0.10570000000E+00 0. -1.
         13    1    1    2    0    0 -0.11031304746E+02 -0.18041495939E+01 -0.14538004488E+02  0.18338740064E+02  0.10570000000E+00 0.  1.
<mgrwt>
<rscale>  0 0.26063317E+02</rscale>
<asrwt>0</asrwt>
<pdfrwt beam="1">  1        3 0.12031658E-02 0.26063317E+02</pdfrwt>
<pdfrwt beam="2">  1       -3 0.33407746E-02 0.26063317E+02</pdfrwt>
<totfact> 0.96170874E+05</totfact>
</mgrwt>
</event>
<event>
 4    1  0.1802450E-001  0.3882147E+02  0.7818608E-02  0.1517068E+00
          3   -1    0    0  501    0  0.00000000000E+00  0.00000000000E+00  0.58178818712E+02  0.58178893043E+02  0.93000000000E-01 0.  1.
         -3   -1    0    0    0  501 -0.00000000000E+00 -0.00000000000E+00 -0.64757683647E+01  0.64764361275E+01  0.93000000000E-01 0. -1.
        -13    1    1    2    0    0 -0.17368125636E+02  0.46581686076E+01  0.13679461503E+02  0.22594007223E+02  0.10570000000E+00 0.  1.
         13    1    1    2    0    0  0.17368125636E+02 -0.46581686076E+01  0.38023588845E+02  0.42061321948E+02  0.10570000000E+00 0. -1.
<mgrwt>
<rscale>  0 0.38821465E+02</rscale>
<asrwt>0</asrwt>
<pdfrwt beam="1">  1        3 0.89506446E-02 0.38821465E+02</pdfrwt>
<pdfrwt beam="2">  1       -3 0.99632913E-03 0.38821465E+02</pdfrwt>
<totfact> 0.34007092E+05</totfact>
</mgrwt>
</event>
<event>
 4    1  0.1802450E-001  0.3590585E+02  0.7818608E-02  0.1540700E+00
         -3   -1    0    0    0  501 -0.00000000000E+00  0.00000000000E+00  0.56531384663E+02  0.56531461160E+02  0.93000000000E-01 0. -1.
          3   -1    0    0  501    0  0.00000000000E+00 -0.00000000000E+00 -0.57009307644E+01  0.57016892743E+01  0.93000000000E-01 0.  1.
        -13    1    1    2    0    0  0.17758032683E+02 -0.21830336584E+01  0.22854404923E+02  0.29024960940E+02  0.10570000000E+00 0.  1.
         13    1    1    2    0    0 -0.17758032683E+02  0.21830336584E+01  0.27976048976E+02  0.33208189494E+02  0.10570000000E+00 0. -1.
<mgrwt>
<rscale>  0 0.35905849E+02</rscale>
<asrwt>0</asrwt>
<pdfrwt beam="2">  1        3 0.87713047E-03 0.35905849E+02</pdfrwt>
<pdfrwt beam="1">  1       -3 0.86972007E-02 0.35905849E+02</pdfrwt>
<totfact> 0.41325760E+05</totfact>
</mgrwt>
</event>
<event>
 4    1  0.1802450E-001  0.3425979E+02  0.7818608E-02  0.1555274E+00
         -3   -1    0    0    0  501 -0.00000000000E+00  0.00000000000E+00  0.64512096764E+01  0.64518799810E+01  0.93000000000E-01 0. -1.
          3   -1    0    0  501    0  0.00000000000E+00 -0.00000000000E+00 -0.45481935841E+02  0.45482030922E+02  0.93000000000E-01 0.  1.
        -13    1    1    2    0    0  0.41538729630E+01 -0.12564509068E+02 -0.30276714798E+01  0.13575695775E+02  0.10570000000E+00 0. -1.
         13    1    1    2    0    0 -0.41538729630E+01  0.12564509068E+02 -0.36003054685E+02  0.38358215128E+02  0.10570000000E+00 0.  1.
<mgrwt>
<rscale>  0 0.34259794E+02</rscale>
<asrwt>0</asrwt>
<pdfrwt beam="2">  1        3 0.69972796E-02 0.34259794E+02</pdfrwt>
<pdfrwt beam="1">  1       -3 0.99255270E-03 0.34259794E+02</pdfrwt>
<totfact> 0.47542957E+05</totfact>
</mgrwt>
</event>
<event>
 4    1  0.1802450E-001  0.2894781E+02  0.7818608E-02  0.1610019E+00
          3   -1    0    0  501    0  0.00000000000E+00  0.00000000000E+00  0.37401508289E+02  0.37401623913E+02  0.93000000000E-01 0.  1.
         -3   -1    0    0    0  501 -0.00000000000E+00 -0.00000000000E+00 -0.56007051623E+01  0.56014772440E+01  0.93000000000E-01 0. -1.
        -13    1    1    2    0    0 -0.72183190541E+01 -0.11047349943E+02  0.24730886733E+02  0.28031696378E+02  0.10570000000E+00 0.  1.
         13    1    1    2    0    0  0.72183190541E+01  0.11047349943E+02  0.70699163937E+01  0.14971404778E+02  0.10570000000E+00 0. -1.
<mgrwt>
<rscale>  0 0.28947809E+02</rscale>
<asrwt>0</asrwt>
<pdfrwt beam="1">  1        3 0.57541463E-02 0.28947809E+02</pdfrwt>
<pdfrwt beam="2">  1       -3 0.86171525E-03 0.28947809E+02</pdfrwt>
<totfact> 0.72466038E+05</totfact>
</mgrwt>
</event>
<event>
 4    1  0.1802450E-001  0.2417619E+02  0.7818608E-02  0.1673124E+00
         -3   -1    0    0    0  501 -0.00000000000E+00  0.00000000000E+00  0.18264304276E+02  0.18264541048E+02  0.93000000000E-01 0. -1.
          3   -1    0    0  501    0  0.00000000000E+00 -0.00000000000E+00 -0.79998602862E+01  0.80004008398E+01  0.93000000000E-01 0.  1.
        -13    1    1    2    0    0 -0.81890939706E+01 -0.63078582793E+01  0.11939396375E+02  0.15792741827E+02  0.10570000000E+00 0. -1.
         13    1    1    2    0    0  0.81890939706E+01  0.63078582793E+01 -0.16749523848E+01  0.10472200061E+02  0.10570000000E+00 0.  1.
<mgrwt>
<rscale>  0 0.24176194E+02</rscale>
<asrwt>0</asrwt>
<pdfrwt beam="2">  1        3 0.12308075E-02 0.24176194E+02</pdfrwt>
<pdfrwt beam="1">  1       -3 0.28099528E-02 0.24176194E+02</pdfrwt>
<totfact> 0.11524040E+06</totfact>
</mgrwt>
</event>
<event>
 4    1  0.1802450E-001  0.3097991E+02  0.7818608E-02  0.1587503E+00
          3   -1    0    0  501    0  0.00000000000E+00  0.00000000000E+00  0.20439555824E+02  0.20439767398E+02  0.93000000000E-01 0.  1.
         -3   -1    0    0    0  501 -0.00000000000E+00 -0.00000000000E+00 -0.11738483856E+02  0.11738852254E+02  0.93000000000E-01 0. -1.
        -13    1    1    2    0    0 -0.92782088548E+01 -0.90825962227E+01  0.13124193978E+02  0.18461699644E+02  0.10570000000E+00 0.  1.
         13    1    1    2    0    0  0.92782088548E+01  0.90825962227E+01 -0.44231220094E+01  0.13716920008E+02  0.10570000000E+00 0. -1.
<mgrwt>
<rscale>  0 0.30979911E+02</rscale>
<asrwt>0</asrwt>
<pdfrwt beam="1">  1        3 0.31445917E-02 0.30979911E+02</pdfrwt>
<pdfrwt beam="2">  1       -3 0.18059652E-02 0.30979911E+02</pdfrwt>
<totfact> 0.63958520E+05</totfact>
</mgrwt>
</event>
<event>
 4    1  0.1802450E-001  0.2149390E+02  0.7818608E-02  0.1717155E+00
          3   -1    0    0  501    0  0.00000000000E+00  0.00000000000E+00  0.43521532925E+02  0.43521632289E+02  0.93000000000E-01 0. -1.
         -3   -1    0    0    0  501 -0.00000000000E+00 -0.00000000000E+00 -0.26528706285E+01  0.26545002490E+01  0.93000000000E-01 0.  1.
        -13    1    1    2    0    0  0.77460907339E+01 -0.73964073970E+01  0.18540650493E+02  0.21412044677E+02  0.10570000000E+00 0.  1.
         13    1    1    2    0    0 -0.77460907339E+01  0.73964073970E+01  0.22328011803E+02  0.24764087862E+02  0.10570000000E+00 0. -1.
<mgrwt>
<rscale>  0 0.21493898E+02</rscale>
<asrwt>0</asrwt>
<pdfrwt beam="1">  1        3 0.66957524E-02 0.21493898E+02</pdfrwt>
<pdfrwt beam="2">  1       -3 0.40826701E-03 0.21493898E+02</pdfrwt>
<totfact> 0.14022700E+06</totfact>
</mgrwt>
</event>
<event>
 4    1  0.1802450E-001  0.4993019E+02  0.7818608E-02  0.1445718E+00
         -3   -1    0    0    0  501 -0.00000000000E+00  0.00000000000E+00  0.71964607636E+01  0.71970616589E+01  0.93000000000E-01 0.  1.
          3   -1    0    0  501    0  0.00000000000E+00 -0.00000000000E+00 -0.86601658195E+02  0.86601708130E+02  0.93000000000E-01 0. -1.
        -13    1    1    2    0    0  0.11835009025E+02 -0.21436890211E+02 -0.30569232069E+02  0.39167548076E+02  0.10570000000E+00 0. -1.
         13    1    1    2    0    0 -0.11835009025E+02  0.21436890211E+02 -0.48835965362E+02  0.54631221713E+02  0.10570000000E+00 0.  1.
<mgrwt>
<rscale>  0 0.49930190E+02</rscale>
<asrwt>0</asrwt>
<pdfrwt beam="2">  1        3 0.13323381E-01 0.49930190E+02</pdfrwt>
<pdfrwt beam="1">  1       -3 0.11071979E-02 0.49930190E+02</pdfrwt>
<totfact> 0.16997828E+05</totfact>
</mgrwt>
</event>
<event>
 4    1  0.1802450E-001  0.2283197E+02  0.7818608E-02  0.1694248E+00
          3   -1    0    0  501    0  0.00000000000E+00  0.00000000000E+00  0.17004243656E+01  0.17029656553E+01  0.93000000000E-01 0.  1.
         -3   -1    0    0    0  501 -0.00000000000E+00 -0.00000000000E+00 -0.76582654049E+02  0.76582710518E+02  0.93000000000E-01 0. -1.
        -13    1    1    2    0    0 -0.84038277056E+01  0.54639228712E+01 -0.18712738106E+02  0.21228671960E+02  0.10570000000E+00 0.  1.
         13    1    1    2    0    0  0.84038277056E+01 -0.54639228712E+01 -0.56169491577E+02  0.57057004213E+02  0.10570000000E+00 0. -1.
<mgrwt>
<rscale>  0 0.22831968E+02</rscale>
<asrwt>0</asrwt>
<pdfrwt beam="1">  1        3 0.26180364E-03 0.22831968E+02</pdfrwt>
<pdfrwt beam="2">  1       -3 0.11782144E-01 0.22831968E+02</pdfrwt>
<totfact> 0.11225438E+06</totfact>
</mgrwt>
</event>
<event>
 4    1  0.1802450E-001  0.3419729E+02  0.7818608E-02  0.1555847E+00
          3   -1    0    0  501    0  0.00000000000E+00  0.00000000000E+00  0.21967531694E+01  0.21987208752E+01  0.93000000000E-01 0. -1.
         -3   -1    0    0    0  501 -0.00000000000E+00 -0.00000000000E+00 -0.13302739020E+03  0.13302742271E+03  0.93000000000E-01 0.  1.
        -13    1    1    2    0    0  0.34488342726E+01 -0.15817026582E+02 -0.43656052355E+02  0.46561087482E+02  0.10570000000E+00 0. -1.
         13    1    1    2    0    0 -0.34488342726E+01  0.15817026582E+02 -0.87174584677E+02  0.88665056103E+02  0.10570000000E+00 0.  1.
<mgrwt>
<rscale>  0 0.34197285E+02</rscale>
<asrwt>0</asrwt>
<pdfrwt beam="1">  1        3 0.33811599E-03 0.34197285E+02</pdfrwt>
<pdfrwt beam="2">  1       -3 0.20465900E-01 0.34197285E+02</pdfrwt>
<totfact> 0.38918659E+05</totfact>
</mgrwt>
</event>
<event>
 4    1  0.1802450E-001  0.7996326E+02  0.7818608E-02  0.1329156E+00
          3   -1    0    0  501    0  0.00000000000E+00  0.00000000000E+00  0.95319237676E+02  0.95319283044E+02  0.93000000000E-01 0. -1.
         -3   -1    0    0    0  501 -0.00000000000E+00 -0.00000000000E+00 -0.16770106264E+02  0.16770364131E+02  0.93000000000E-01 0.  1.
        -13    1    1    2    0    0  0.61669796695E+01  0.32686876685E+02  0.81801582070E+01  0.34254776404E+02  0.10570000000E+00 0.  1.
         13    1    1    2    0    0 -0.61669796695E+01 -0.32686876685E+02  0.70368973205E+02  0.77834870772E+02  0.10570000000E+00 0. -1.
<mgrwt>
<rscale>  0 0.79963260E+02</rscale>
<asrwt>0</asrwt>
<pdfrwt beam="1">  1        3 0.14664521E-01 0.79963260E+02</pdfrwt>
<pdfrwt beam="2">  1       -3 0.25800397E-02 0.79963260E+02</pdfrwt>
<totfact> 0.48127769E+04</totfact>
</mgrwt>
</event>
<event>
 4    1  0.1802450E-001  0.3724662E+02  0.7818608E-02  0.1529510E+00
          3   -1    0    0  501    0  0.00000000000E+00  0.00000000000E+00  0.15091678882E+02  0.15091965428E+02  0.93000000000E-01 0.  1.
         -3   -1    0    0    0  501 -0.00000000000E+00 -0.00000000000E+00 -0.22980783385E+02  0.22980971563E+02  0.93000000000E-01 0. -1.
        -13    1    1    2    0    0  0.67480747444E+01  0.11508144755E+02 -0.17226766986E+02  0.21788680128E+02  0.10570000000E+00 0. -1.
         13    1    1    2    0    0 -0.67480747444E+01 -0.11508144755E+02  0.93376624829E+01  0.16284256863E+02  0.10570000000E+00 0.  1.
<mgrwt>
<rscale>  0 0.37246618E+02</rscale>
<asrwt>0</asrwt>
<pdfrwt beam="1">  1        3 0.23218333E-02 0.37246618E+02</pdfrwt>
<pdfrwt beam="2">  1       -3 0.35355416E-02 0.37246618E+02</pdfrwt>
<totfact> 0.40496745E+05</totfact>
</mgrwt>
</event>
<event>
 4    1  0.1802450E-001  0.4496470E+02  0.7818608E-02  0.1474562E+00
         -3   -1    0    0    0  501 -0.00000000000E+00  0.00000000000E+00  0.49108539290E+01  0.49117344504E+01  0.93000000000E-01 0. -1.
          3   -1    0    0  501    0  0.00000000000E+00 -0.00000000000E+00 -0.10291616704E+03  0.10291620906E+03  0.93000000000E-01 0.  1.
        -13    1    1    2    0    0  0.43757833771E+01 -0.21107668907E+02 -0.33691914426E+02  0.39997967912E+02  0.10570000000E+00 0.  1.
         13    1    1    2    0    0 -0.43757833771E+01  0.21107668907E+02 -0.64313398685E+02  0.67829975599E+02  0.10570000000E+00 0. -1.
<mgrwt>
<rscale>  0 0.44964697E+02</rscale>
<asrwt>0</asrwt>
<pdfrwt beam="2">  1        3 0.15833326E-01 0.44964697E+02</pdfrwt>
<pdfrwt beam="1">  1       -3 0.75558703E-03 0.44964697E+02</pdfrwt>
<totfact> 0.21355924E+05</totfact>
</mgrwt>
</event>
<event>
 4    1  0.1802450E-001  0.2988652E+02  0.7818608E-02  0.1599346E+00
         -3   -1    0    0    0  501 -0.00000000000E+00  0.00000000000E+00  0.74640441186E+02  0.74640499124E+02  0.93000000000E-01 0.  1.
          3   -1    0    0  501    0  0.00000000000E+00 -0.00000000000E+00 -0.29909077327E+01  0.29923532655E+01  0.93000000000E-01 0. -1.
        -13    1    1    2    0    0  0.91796810527E+00  0.13311370516E+02  0.18350394223E+02  0.22688838469E+02  0.10570000000E+00 0. -1.
         13    1    1    2    0    0 -0.91796810527E+00 -0.13311370516E+02  0.53299139231E+02  0.54944013920E+02  0.10570000000E+00 0.  1.
<mgrwt>
<rscale>  0 0.29886521E+02</rscale>
<asrwt>0</asrwt>
<pdfrwt beam="2">  1        3 0.46025536E-03 0.29886521E+02</pdfrwt>
<pdfrwt beam="1">  1       -3 0.11483259E-01 0.29886521E+02</pdfrwt>
<totfact> 0.61146153E+05</totfact>
</mgrwt>
</event>
<event>
 4    1  0.1802450E-001  0.2652665E+02  0.7818608E-02  0.1639995E+00
         -3   -1    0    0    0  501 -0.00000000000E+00  0.00000000000E+00  0.35854519845E+01  0.35866579058E+01  0.93000000000E-01 0. -1.
          3   -1    0    0  501    0  0.00000000000E+00 -0.00000000000E+00 -0.49054265743E+02  0.49054353900E+02  0.93000000000E-01 0.  1.
        -13    1    1    2    0    0  0.10995743392E+02  0.72864243776E+01 -0.19994525886E+02  0.23953926418E+02  0.10570000000E+00 0. -1.
         13    1    1    2    0    0 -0.10995743392E+02 -0.72864243776E+01 -0.25474287872E+02  0.28687085387E+02  0.10570000000E+00 0.  1.
<mgrwt>
<rscale>  0 0.26526649E+02</rscale>
<asrwt>0</asrwt>
<pdfrwt beam="2">  1        3 0.75469092E-02 0.26526649E+02</pdfrwt>
<pdfrwt beam="1">  1       -3 0.55170758E-03 0.26526649E+02</pdfrwt>
<totfact> 0.86054920E+05</totfact>
</mgrwt>
</event>
<event>
 4    1  0.1802450E-001  0.2342962E+02  0.7818608E-02  0.1684639E+00
          3   -1    0    0  501    0  0.00000000000E+00  0.00000000000E+00  0.42051807679E+02  0.42051910517E+02  0.93000000000E-01 0. -1.
         -3   -1    0    0    0  501 -0.00000000000E+00 -0.00000000000E+00 -0.32627464387E+01  0.32640715868E+01  0.93000000000E-01 0.  1.
        -13    1    1    2    0    0  0.62522395300E+01 -0.83663508162E+01  0.91346476306E+01  0.13875852585E+02  0.10570000000E+00 0.  1.
         13    1    1    2    0    0 -0.62522395300E+01  0.83663508162E+01  0.29654413610E+02  0.31440129519E+02  0.10570000000E+00 0. -1.
<mgrwt>
<rscale>  0 0.23429617E+02</rscale>
<asrwt>0</asrwt>
<pdfrwt beam="1">  1        3 0.64696187E-02 0.23429617E+02</pdfrwt>
<pdfrwt beam="2">  1       -3 0.50207083E-03 0.23429617E+02</pdfrwt>
<totfact> 0.11626769E+06</totfact>
</mgrwt>
</event>
<event>
 4    1  0.1802450E-001  0.2712164E+02  0.7818608E-02  0.1632274E+00
          3   -1    0    0  501    0  0.00000000000E+00  0.00000000000E+00  0.27178905744E+02  0.27179064856E+02  0.93000000000E-01 0. -1.
         -3   -1    0    0    0  501 -0.00000000000E+00 -0.00000000000E+00 -0.67656253471E+01  0.67662645040E+01  0.93000000000E-01 0.  1.
        -13    1    1    2    0    0 -0.88184583823E+01  0.86063786590E+01  0.31210486511E+01  0.12711690644E+02  0.10570000000E+00 0. -1.
         13    1    1    2    0    0  0.88184583823E+01 -0.86063786590E+01  0.17292231746E+02  0.21233638715E+02  0.10570000000E+00 0.  1.
<mgrwt>
<rscale>  0 0.27121640E+02</rscale>
<asrwt>0</asrwt>
<pdfrwt beam="1">  1        3 0.41814316E-02 0.27121640E+02</pdfrwt>
<pdfrwt beam="2">  1       -3 0.10409268E-02 0.27121640E+02</pdfrwt>
<totfact> 0.86569345E+05</totfact>
</mgrwt>
</event>
<event>
 4    1  0.1802450E-001  0.6718974E+02  0.7818608E-02  0.1369919E+00
         -3   -1    0    0    0  501 -0.00000000000E+00  0.00000000000E+00  0.13218685574E+02  0.13219012721E+02  0.93000000000E-01 0.  1.
          3   -1    0    0  501    0  0.00000000000E+00 -0.00000000000E+00 -0.85378899360E+02  0.85378950010E+02  0.93000000000E-01 0. -1.
        -13    1    1    2    0    0 -0.31190680458E+01  0.23977674511E+02 -0.18551294801E+01  0.24250982214E+02  0.10570000000E+00 0.  1.
         13    1    1    2    0    0  0.31190680458E+01 -0.23977674511E+02 -0.70305084305E+02  0.74346980517E+02  0.10570000000E+00 0. -1.
<mgrwt>
<rscale>  0 0.67189745E+02</rscale>
<asrwt>0</asrwt>
<pdfrwt beam="2">  1        3 0.13135244E-01 0.67189745E+02</pdfrwt>
<pdfrwt beam="1">  1       -3 0.20336731E-02 0.67189745E+02</pdfrwt>
<totfact> 0.78532146E+04</totfact>
</mgrwt>
</event>
<event>
 4    1  0.1802450E-001  0.2883223E+02  0.7818608E-02  0.1611367E+00
         -3   -1    0    0    0  501 -0.00000000000E+00  0.00000000000E+00  0.97507199811E+02  0.97507244162E+02  0.93000000000E-01 0. -1.
          3   -1    0    0  501    0  0.00000000000E+00 -0.00000000000E+00 -0.21303159790E+01  0.21323449933E+01  0.93000000000E-01 0.  1.
        -13    1    1    2    0    0  0.19160434737E+01  0.13248069999E+02  0.66179829322E+02  0.67520097473E+02  0.10570000000E+00 0.  1.
         13    1    1    2    0    0 -0.19160434737E+01 -0.13248069999E+02  0.29197054511E+02  0.32119491682E+02  0.10570000000E+00 0. -1.
<mgrwt>
<rscale>  0 0.28832235E+02</rscale>
<asrwt>0</asrwt>
<pdfrwt beam="2">  1        3 0.32790043E-03 0.28832235E+02</pdfrwt>
<pdfrwt beam="1">  1       -3 0.15001266E-01 0.28832235E+02</pdfrwt>
<totfact> 0.62876365E+05</totfact>
</mgrwt>
</event>
<event>
 4    1  0.1802450E-001  0.6232803E+02  0.7818608E-02  0.1388314E+00
         -3   -1    0    0    0  501 -0.00000000000E+00  0.00000000000E+00  0.84224481305E+02  0.84224532650E+02  0.93000000000E-01 0.  1.
          3   -1    0    0  501    0  0.00000000000E+00 -0.00000000000E+00 -0.11530798234E+02  0.11531173267E+02  0.93000000000E-01 0. -1.
        -13    1    1    2    0    0  0.66965762310E+01  0.27815391948E+02  0.17365717092E+02  0.33468185865E+02  0.10570000000E+00 0. -1.
         13    1    1    2    0    0 -0.66965762310E+01 -0.27815391948E+02  0.55327965979E+02  0.62287520052E+02  0.10570000000E+00 0.  1.
<mgrwt>
<rscale>  0 0.62328033E+02</rscale>
<asrwt>0</asrwt>
<pdfrwt beam="2">  1        3 0.17740018E-02 0.62328033E+02</pdfrwt>
<pdfrwt beam="1">  1       -3 0.12957645E-01 0.62328033E+02</pdfrwt>
<totfact> 0.96131391E+04</totfact>
</mgrwt>
</event>
<event>
 4    1  0.1802450E-001  0.3010318E+02  0.7818608E-02  0.1596951E+00
          3   -1    0    0  501    0  0.00000000000E+00  0.00000000000E+00  0.38505620998E+01  0.38516850189E+01  0.93000000000E-01 0. -1.
         -3   -1    0    0    0  501 -0.00000000000E+00 -0.00000000000E+00 -0.58825906733E+02  0.58825980247E+02  0.93000000000E-01 0.  1.
        -13    1    1    2    0    0  0.75941076972E+01 -0.97468514043E+01 -0.95928526879E+01  0.15643068088E+02  0.10570000000E+00 0. -1.
         13    1    1    2    0    0 -0.75941076972E+01  0.97468514043E+01 -0.45382491946E+02  0.47034597178E+02  0.10570000000E+00 0.  1.
<mgrwt>
<rscale>  0 0.30103176E+02</rscale>
<asrwt>0</asrwt>
<pdfrwt beam="1">  1        3 0.59248624E-03 0.30103176E+02</pdfrwt>
<pdfrwt beam="2">  1       -3 0.90502309E-02 0.30103176E+02</pdfrwt>
<totfact> 0.62566632E+05</totfact>
</mgrwt>
</event>
<event>
 4    1  0.1802450E-001  0.2756094E+02  0.7818608E-02  0.1626728E+00
          3   -1    0    0  501    0  0.00000000000E+00  0.00000000000E+00  0.38016488460E+01  0.38027862086E+01  0.93000000000E-01 0.  1.
         -3   -1    0    0    0  501 -0.00000000000E+00 -0.00000000000E+00 -0.49943713307E+02  0.49943799894E+02  0.93000000000E-01 0. -1.
        -13    1    1    2    0    0  0.12326380840E+02  0.14749421261E+00 -0.11061082748E+02  0.16562612813E+02  0.10570000000E+00 0.  1.
         13    1    1    2    0    0 -0.12326380840E+02 -0.14749421261E+00 -0.35080981713E+02  0.37183973290E+02  0.10570000000E+00 0. -1.
<mgrwt>
<rscale>  0 0.27560940E+02</rscale>
<asrwt>0</asrwt>
<pdfrwt beam="1">  1        3 0.58496324E-03 0.27560940E+02</pdfrwt>
<pdfrwt beam="2">  1       -3 0.76837419E-02 0.27560940E+02</pdfrwt>
<totfact> 0.78622592E+05</totfact>
</mgrwt>
</event>
