<event>
 5   1  0.1357339E+00  0.9242980E+02  0.7818608E-02  0.1297072E+00
         -1   -1    0    0    0  501 -0.00000000000E+00  0.00000000000E+00  0.98630624359E+01  0.98630635415E+01  0.46700000000E-02 0.  1.
          1   -1    0    0  501    0  0.00000000000E+00 -0.00000000000E+00 -0.21654702671E+03  0.21654702676E+03  0.46700000000E-02 0. -1.
         23    2    1    2    0    0  0.00000000000E+00  0.00000000000E+00 -0.20668396428E+03  0.22641009031E+03  0.92429799863E+02 0.  0.
        -11    1    3    3    0    0 -0.19997844826E+02 -0.30571514451E+02 -0.34003000904E+02  0.49907267650E+02  0.51100000000E-03 0.  1.
         11    1    3    3    0    0  0.19997844826E+02  0.30571514451E+02 -0.17268096337E+03  0.17650282266E+03  0.51100000000E-03 0. -1.
<mgrwt>
<rscale>  0 0.92429800E+02</rscale>
<asrwt>0</asrwt>
<pdfrwt beam="2">  1        1 0.33314924E-01 0.92429800E+02</pdfrwt>
<pdfrwt beam="1">  1       -1 0.15173945E-02 0.92429800E+02</pdfrwt>
<totfact> 0.11592918E+05</totfact>
</mgrwt>
</event>
<event>
 5   1  0.1357339E+00  0.9229252E+02  0.7818608E-02  0.1297393E+00
          1   -1    0    0  501    0  0.00000000000E+00  0.00000000000E+00  0.18319330303E+03  0.18319330309E+03  0.46700000000E-02 0. -1.
         -1   -1    0    0    0  501 -0.00000000000E+00 -0.00000000000E+00 -0.11624208946E+02  0.11624209884E+02  0.46700000000E-02 0.  1.
         23    2    1    2    0    0  0.00000000000E+00  0.00000000000E+00  0.17156909408E+03  0.19481751297E+03  0.92292520371E+02 0.  0.
        -11    1    3    3    0    0  0.23336242815E+02  0.35080142658E+02  0.12551607165E+03  0.13239894592E+03  0.51100000000E-03 0.  1.
         11    1    3    3    0    0 -0.23336242815E+02 -0.35080142658E+02  0.46053022435E+02  0.62418567056E+02  0.51100000000E-03 0. -1.
<mgrwt>
<rscale>  0 0.92292520E+02</rscale>
<asrwt>0</asrwt>
<pdfrwt beam="1">  1        1 0.28183585E-01 0.92292520E+02</pdfrwt>
<pdfrwt beam="2">  1       -1 0.17883399E-02 0.92292520E+02</pdfrwt>
<totfact> 0.11267020E+05</totfact>
</mgrwt>
</event>
<event>
 5   1  0.1357339E+00  0.8606564E+02  0.7818608E-02  0.1312669E+00
         -1   -1    0    0    0  501 -0.00000000000E+00  0.00000000000E+00  0.26207162665E+02  0.26207163081E+02  0.46700000000E-02 0.  1.
          1   -1    0    0  501    0  0.00000000000E+00 -0.00000000000E+00 -0.70660964455E+02  0.70660964609E+02  0.46700000000E-02 0. -1.
         23    2    1    2    0    0  0.00000000000E+00  0.00000000000E+00 -0.44453801790E+02  0.96868127690E+02  0.86065635817E+02 0.  0.
        -11    1    3    3    0    0 -0.11454802133E+02  0.17994042333E+02  0.19838223793E+02  0.29129936061E+02  0.51100000000E-03 0.  1.
         11    1    3    3    0    0  0.11454802133E+02 -0.17994042333E+02 -0.64292025583E+02  0.67738191630E+02  0.51100000000E-03 0. -1.
<mgrwt>
<rscale>  0 0.86065636E+02</rscale>
<asrwt>0</asrwt>
<pdfrwt beam="2">  1        1 0.10870918E-01 0.86065636E+02</pdfrwt>
<pdfrwt beam="1">  1       -1 0.40318712E-02 0.86065636E+02</pdfrwt>
<totfact> 0.11575364E+05</totfact>
</mgrwt>
</event>
<event>
 5   1  0.1357339E+00  0.9015827E+02  0.7818608E-02  0.1302469E+00
          1   -1    0    0  501    0  0.00000000000E+00  0.00000000000E+00  0.42921813724E+03  0.42921813726E+03  0.46700000000E-02 0. -1.
         -1   -1    0    0    0  501 -0.00000000000E+00 -0.00000000000E+00 -0.47344878662E+01  0.47344901694E+01  0.46700000000E-02 0.  1.
         23    2    1    2    0    0  0.00000000000E+00  0.00000000000E+00  0.42448364937E+03  0.43395262743E+03  0.90158273452E+02 0.  0.
        -11    1    3    3    0    0  0.39282009107E+02  0.19466600847E+02  0.16173642064E+03  0.16757295292E+03  0.51100000000E-03 0.  1.
         11    1    3    3    0    0 -0.39282009107E+02 -0.19466600847E+02  0.26274722873E+03  0.26637967451E+03  0.51100000000E-03 0. -1.
<mgrwt>
<rscale>  0 0.90158273E+02</rscale>
<asrwt>0</asrwt>
<pdfrwt beam="1">  1        1 0.66033548E-01 0.90158273E+02</pdfrwt>
<pdfrwt beam="2">  1       -1 0.72838305E-03 0.90158273E+02</pdfrwt>
<totfact> 0.14052664E+05</totfact>
</mgrwt>
</event>
<event>
 5   1  0.1357339E+00  0.9144994E+02  0.7818608E-02  0.1299378E+00
         -1   -1    0    0    0  501 -0.00000000000E+00  0.00000000000E+00  0.12263181858E+02  0.12263182748E+02  0.46700000000E-02 0. -1.
          1   -1    0    0  501    0  0.00000000000E+00 -0.00000000000E+00 -0.17049186853E+03  0.17049186859E+03  0.46700000000E-02 0.  1.
         23    2    1    2    0    0  0.00000000000E+00  0.00000000000E+00 -0.15822868667E+03  0.18275505134E+03  0.91449939884E+02 0.  0.
        -11    1    3    3    0    0  0.24948679020E+02 -0.36310387166E+02 -0.10358103794E+03  0.11256070461E+03  0.51100000000E-03 0.  1.
         11    1    3    3    0    0 -0.24948679020E+02  0.36310387166E+02 -0.54647648729E+02  0.70194346730E+02  0.51100000000E-03 0. -1.
<mgrwt>
<rscale>  0 0.91449940E+02</rscale>
<asrwt>0</asrwt>
<pdfrwt beam="2">  1        1 0.26229517E-01 0.91449940E+02</pdfrwt>
<pdfrwt beam="1">  1       -1 0.18866436E-02 0.91449940E+02</pdfrwt>
<totfact> 0.11391684E+05</totfact>
</mgrwt>
</event>
<event>
 5   1  0.1357339E+00  0.8979151E+02  0.7818608E-02  0.1303357E+00
          1   -1    0    0  501    0  0.00000000000E+00  0.00000000000E+00  0.14188078009E+03  0.14188078016E+03  0.46700000000E-02 0. -1.
         -1   -1    0    0    0  501 -0.00000000000E+00 -0.00000000000E+00 -0.14206495849E+02  0.14206496616E+02  0.46700000000E-02 0.  1.
         23    2    1    2    0    0  0.00000000000E+00  0.00000000000E+00  0.12767428424E+03  0.15608727678E+03  0.89791509157E+02 0.  0.
        -11    1    3    3    0    0  0.37909733512E+02  0.15618409797E+02  0.32042037603E+02  0.52036283434E+02  0.51100000000E-03 0.  1.
         11    1    3    3    0    0 -0.37909733512E+02 -0.15618409797E+02  0.95632246634E+02  0.10405099335E+03  0.51100000000E-03 0. -1.
<mgrwt>
<rscale>  0 0.89791509E+02</rscale>
<asrwt>0</asrwt>
<pdfrwt beam="1">  1        1 0.21827811E-01 0.89791509E+02</pdfrwt>
<pdfrwt beam="2">  1       -1 0.21856149E-02 0.89791509E+02</pdfrwt>
<totfact> 0.11567733E+05</totfact>
</mgrwt>
</event>
<event>
 5   1  0.1357339E+00  0.9054990E+02  0.7818608E-02  0.1301525E+00
         -1   -1    0    0    0  501 -0.00000000000E+00  0.00000000000E+00  0.81209774290E+01  0.81209787718E+01  0.46700000000E-02 0.  1.
          1   -1    0    0  501    0  0.00000000000E+00 -0.00000000000E+00 -0.25241062065E+03  0.25241062070E+03  0.46700000000E-02 0. -1.
         23    2    1    2    0    0  0.00000000000E+00  0.00000000000E+00 -0.24428964323E+03  0.26053159947E+03  0.90549900800E+02 0.  0.
        -11    1    3    3    0    0 -0.53042890992E+01  0.37790096977E+02 -0.19224469910E+03  0.19599553884E+03  0.51100000000E-03 0. -1.
         11    1    3    3    0    0  0.53042890992E+01 -0.37790096977E+02 -0.52044944122E+02  0.64536060627E+02  0.51100000000E-03 0.  1.
<mgrwt>
<rscale>  0 0.90549901E+02</rscale>
<asrwt>0</asrwt>
<pdfrwt beam="2">  1        1 0.38832397E-01 0.90549901E+02</pdfrwt>
<pdfrwt beam="1">  1       -1 0.12493814E-02 0.90549901E+02</pdfrwt>
<totfact> 0.12620416E+05</totfact>
</mgrwt>
</event>
<event>
 5   1  0.1357339E+00  0.9100935E+02  0.7818608E-02  0.1300426E+00
         -1   -1    0    0    0  501 -0.00000000000E+00  0.00000000000E+00  0.20440455996E+02  0.20440456530E+02  0.46700000000E-02 0.  1.
          1   -1    0    0  501    0  0.00000000000E+00 -0.00000000000E+00 -0.10130279811E+03  0.10130279822E+03  0.46700000000E-02 0. -1.
         23    2    1    2    0    0  0.00000000000E+00  0.00000000000E+00 -0.80862342117E+02  0.12174325475E+03  0.91009349545E+02 0.  0.
        -11    1    3    3    0    0  0.13764534743E+02 -0.26400393675E+02  0.56026828226E+01  0.30295763036E+02  0.51100000000E-03 0.  1.
         11    1    3    3    0    0 -0.13764534743E+02  0.26400393675E+02 -0.86465024940E+02  0.91447491715E+02  0.51100000000E-03 0. -1.
<mgrwt>
<rscale>  0 0.91009350E+02</rscale>
<asrwt>0</asrwt>
<pdfrwt beam="2">  1        1 0.15585046E-01 0.91009350E+02</pdfrwt>
<pdfrwt beam="1">  1       -1 0.31446857E-02 0.91009350E+02</pdfrwt>
<totfact> 0.10520323E+05</totfact>
</mgrwt>
</event>
<event>
 5   1  0.1357339E+00  0.9145268E+02  0.7818608E-02  0.1299371E+00
         -1   -1    0    0    0  501 -0.00000000000E+00  0.00000000000E+00  0.34997394096E+03  0.34997394099E+03  0.46700000000E-02 0.  1.
          1   -1    0    0  501    0  0.00000000000E+00 -0.00000000000E+00 -0.59744388499E+01  0.59744406751E+01  0.46700000000E-02 0. -1.
         23    2    1    2    0    0  0.00000000000E+00  0.00000000000E+00  0.34399950211E+03  0.35594838166E+03  0.91452681528E+02 0.  0.
        -11    1    3    3    0    0 -0.37600661039E+02 -0.21267937143E+02  0.23035142971E+03  0.23436705407E+03  0.51100000000E-03 0.  1.
         11    1    3    3    0    0  0.37600661039E+02  0.21267937143E+02  0.11364807239E+03  0.12158132759E+03  0.51100000000E-03 0. -1.
<mgrwt>
<rscale>  0 0.91452682E+02</rscale>
<asrwt>0</asrwt>
<pdfrwt beam="2">  1        1 0.91914452E-03 0.91452682E+02</pdfrwt>
<pdfrwt beam="1">  1       -1 0.53842149E-01 0.91452682E+02</pdfrwt>
<totfact> 0.56341304E+04</totfact>
</mgrwt>
</event>
<event>
 5   1  0.1357339E+00  0.1109286E+03  0.7818608E-02  0.1258860E+00
         -1   -1    0    0    0  501 -0.00000000000E+00  0.00000000000E+00  0.58520909875E+02  0.58520910061E+02  0.46700000000E-02 0. -1.
          1   -1    0    0  501    0  0.00000000000E+00 -0.00000000000E+00 -0.52567384306E+02  0.52567384513E+02  0.46700000000E-02 0.  1.
         23    2    1    2    0    0  0.00000000000E+00  0.00000000000E+00  0.59535255690E+01  0.11108829457E+03  0.11092864700E+03 0.  0.
        -11    1    3    3    0    0 -0.28619614331E+02 -0.74167185502E+01  0.49971916604E+02  0.58062746128E+02  0.51100000000E-03 0. -1.
         11    1    3    3    0    0  0.28619614331E+02  0.74167185502E+01 -0.44018391035E+02  0.53025548447E+02  0.51100000000E-03 0.  1.
<mgrwt>
<rscale>  0 0.11092865E+03</rscale>
<asrwt>0</asrwt>
<pdfrwt beam="2">  1        1 0.80872900E-02 0.11092865E+03</pdfrwt>
<pdfrwt beam="1">  1       -1 0.90032169E-02 0.11092865E+03</pdfrwt>
<totfact> 0.54182866E+04</totfact>
</mgrwt>
</event>
<event>
 5   1  0.1357339E+00  0.9401882E+02  0.7818608E-02  0.1293401E+00
         -1   -1    0    0    0  501 -0.00000000000E+00  0.00000000000E+00  0.10899481794E+03  0.10899481804E+03  0.46700000000E-02 0.  1.
          1   -1    0    0  501    0  0.00000000000E+00 -0.00000000000E+00 -0.20275132661E+02  0.20275133198E+02  0.46700000000E-02 0. -1.
         23    2    1    2    0    0  0.00000000000E+00  0.00000000000E+00  0.88719685277E+02  0.12926995124E+03  0.94018815866E+02 0.  0.
        -11    1    3    3    0    0  0.34890812752E+02  0.10396252515E+02  0.85249682808E+02  0.92698216272E+02  0.51100000000E-03 0.  1.
         11    1    3    3    0    0 -0.34890812752E+02 -0.10396252515E+02  0.34700024685E+01  0.36571734964E+02  0.51100000000E-03 0. -1.
<mgrwt>
<rscale>  0 0.94018816E+02</rscale>
<asrwt>0</asrwt>
<pdfrwt beam="2">  1        1 0.31192513E-02 0.94018816E+02</pdfrwt>
<pdfrwt beam="1">  1       -1 0.16768433E-01 0.94018816E+02</pdfrwt>
<totfact> 0.73946406E+04</totfact>
</mgrwt>
</event>
<event>
 5   1  0.1357339E+00  0.9075774E+02  0.7818608E-02  0.1301027E+00
          1   -1    0    0  501    0  0.00000000000E+00  0.00000000000E+00  0.26147097372E+03  0.26147097376E+03  0.46700000000E-02 0. -1.
         -1   -1    0    0    0  501 -0.00000000000E+00 -0.00000000000E+00 -0.78756024626E+01  0.78756038472E+01  0.46700000000E-02 0.  1.
         23    2    1    2    0    0  0.00000000000E+00  0.00000000000E+00  0.25359537126E+03  0.26934657761E+03  0.90757735463E+02 0.  0.
        -11    1    3    3    0    0  0.30798426030E+02 -0.30422602695E+02  0.16718136591E+03  0.17269535867E+03  0.51100000000E-03 0. -1.
         11    1    3    3    0    0 -0.30798426030E+02  0.30422602695E+02  0.86414005349E+02  0.96651218934E+02  0.51100000000E-03 0.  1.
<mgrwt>
<rscale>  0 0.90757735E+02</rscale>
<asrwt>0</asrwt>
<pdfrwt beam="1">  1        1 0.40226294E-01 0.90757735E+02</pdfrwt>
<pdfrwt beam="2">  1       -1 0.12116315E-02 0.90757735E+02</pdfrwt>
<totfact> 0.12630071E+05</totfact>
</mgrwt>
</event>
<event>
 5   1  0.1357339E+00  0.9018477E+02  0.7818608E-02  0.1302405E+00
          1   -1    0    0  501    0  0.00000000000E+00  0.00000000000E+00  0.19866636253E+03  0.19866636258E+03  0.46700000000E-02 0. -1.
         -1   -1    0    0    0  501 -0.00000000000E+00 -0.00000000000E+00 -0.10234862782E+02  0.10234863847E+02  0.46700000000E-02 0.  1.
         23    2    1    2    0    0  0.00000000000E+00  0.00000000000E+00  0.18843149975E+03  0.20890122643E+03  0.90184767602E+02 0.  0.
        -11    1    3    3    0    0  0.11229230764E+02 -0.42874693926E+02  0.11345529539E+03  0.12180492213E+03  0.51100000000E-03 0. -1.
         11    1    3    3    0    0 -0.11229230764E+02  0.42874693926E+02  0.74976204360E+02  0.87096304303E+02  0.51100000000E-03 0.  1.
<mgrwt>
<rscale>  0 0.90184768E+02</rscale>
<asrwt>0</asrwt>
<pdfrwt beam="1">  1        1 0.30564056E-01 0.90184768E+02</pdfrwt>
<pdfrwt beam="2">  1       -1 0.15745943E-02 0.90184768E+02</pdfrwt>
<totfact> 0.12176980E+05</totfact>
</mgrwt>
</event>
<event>
 5   1  0.1357339E+00  0.9514222E+02  0.7818608E-02  0.1290856E+00
         -1   -1    0    0    0  501 -0.00000000000E+00  0.00000000000E+00  0.11267729373E+03  0.11267729382E+03  0.46700000000E-02 0.  1.
          1   -1    0    0  501    0  0.00000000000E+00 -0.00000000000E+00 -0.20083995767E+02  0.20083996310E+02  0.46700000000E-02 0. -1.
         23    2    1    2    0    0  0.00000000000E+00  0.00000000000E+00  0.92593297959E+02  0.13276129013E+03  0.95142216343E+02 0.  0.
        -11    1    3    3    0    0  0.35323299305E+02 -0.19605078422E+02  0.11246982678E+02  0.41935536164E+02  0.51100000000E-03 0. -1.
         11    1    3    3    0    0 -0.35323299305E+02  0.19605078422E+02  0.81346315281E+02  0.90825753968E+02  0.51100000000E-03 0.  1.
<mgrwt>
<rscale>  0 0.95142216E+02</rscale>
<asrwt>0</asrwt>
<pdfrwt beam="2">  1        1 0.30898456E-02 0.95142216E+02</pdfrwt>
<pdfrwt beam="1">  1       -1 0.17334968E-01 0.95142216E+02</pdfrwt>
<totfact> 0.71239324E+04</totfact>
</mgrwt>
</event>
<event>
 5   1  0.1357339E+00  0.9148609E+02  0.7818608E-02  0.1299292E+00
         -1   -1    0    0    0  501 -0.00000000000E+00  0.00000000000E+00  0.50547796370E+02  0.50547796586E+02  0.46700000000E-02 0.  1.
          1   -1    0    0  501    0  0.00000000000E+00 -0.00000000000E+00 -0.41395001160E+02  0.41395001423E+02  0.46700000000E-02 0. -1.
         23    2    1    2    0    0  0.00000000000E+00  0.00000000000E+00  0.91527952100E+01  0.91942798009E+02  0.91486088809E+02 0.  0.
        -11    1    3    3    0    0 -0.36478410573E+02  0.16925787167E+02  0.26485903455E+02  0.48152464020E+02  0.51100000000E-03 0. -1.
         11    1    3    3    0    0  0.36478410573E+02 -0.16925787167E+02 -0.17333108245E+02  0.43790333989E+02  0.51100000000E-03 0.  1.
<mgrwt>
<rscale>  0 0.91486089E+02</rscale>
<asrwt>0</asrwt>
<pdfrwt beam="2">  1        1 0.63684618E-02 0.91486089E+02</pdfrwt>
<pdfrwt beam="1">  1       -1 0.77765841E-02 0.91486089E+02</pdfrwt>
<totfact> 0.90269174E+04</totfact>
</mgrwt>
</event>
<event>
 5   1  0.1357339E+00  0.9115690E+02  0.7818608E-02  0.1300074E+00
          1   -1    0    0  501    0  0.00000000000E+00  0.00000000000E+00  0.55633686766E+01  0.55633706367E+01  0.46700000000E-02 0. -1.
         -1   -1    0    0    0  501 -0.00000000000E+00 -0.00000000000E+00 -0.37340592221E+03  0.37340592224E+03  0.46700000000E-02 0.  1.
         23    2    1    2    0    0  0.00000000000E+00  0.00000000000E+00 -0.36784255353E+03  0.37896929288E+03  0.91156901839E+02 0.  0.
        -11    1    3    3    0    0  0.44308364537E+02 -0.52296395987E+01 -0.22265699151E+03  0.22708306006E+03  0.51100000000E-03 0.  1.
         11    1    3    3    0    0 -0.44308364537E+02  0.52296395987E+01 -0.14518556202E+03  0.15188623281E+03  0.51100000000E-03 0. -1.
<mgrwt>
<rscale>  0 0.91156902E+02</rscale>
<asrwt>0</asrwt>
<pdfrwt beam="1">  1        1 0.85590332E-03 0.91156902E+02</pdfrwt>
<pdfrwt beam="2">  1       -1 0.57447045E-01 0.91156902E+02</pdfrwt>
<totfact> 0.55149387E+04</totfact>
</mgrwt>
</event>
<event>
 5   1  0.1357339E+00  0.7749788E+02  0.7818608E-02  0.1336306E+00
          1   -1    0    0  501    0  0.00000000000E+00  0.00000000000E+00  0.22984715069E+03  0.22984715074E+03  0.46700000000E-02 0. -1.
         -1   -1    0    0    0  501 -0.00000000000E+00 -0.00000000000E+00 -0.65325156657E+01  0.65325173349E+01  0.46700000000E-02 0.  1.
         23    2    1    2    0    0  0.00000000000E+00  0.00000000000E+00  0.22331463502E+03  0.23637966807E+03  0.77497879080E+02 0.  0.
        -11    1    3    3    0    0  0.93308335150E+01  0.35286056963E+02  0.15134554141E+03  0.15568443460E+03  0.51100000000E-03 0. -1.
         11    1    3    3    0    0 -0.93308335150E+01 -0.35286056963E+02  0.71969093610E+02  0.80695233473E+02  0.51100000000E-03 0.  1.
<mgrwt>
<rscale>  0 0.77497879E+02</rscale>
<asrwt>0</asrwt>
<pdfrwt beam="1">  1        1 0.35361094E-01 0.77497879E+02</pdfrwt>
<pdfrwt beam="2">  1       -1 0.10050027E-02 0.77497879E+02</pdfrwt>
<totfact> 0.18719656E+05</totfact>
</mgrwt>
</event>
<event>
 5   1  0.1357339E+00  0.9083757E+02  0.7818608E-02  0.1300836E+00
         -1   -1    0    0    0  501 -0.00000000000E+00  0.00000000000E+00  0.22867711184E+03  0.22867711188E+03  0.46700000000E-02 0.  1.
          1   -1    0    0  501    0  0.00000000000E+00 -0.00000000000E+00 -0.90208670995E+01  0.90208683083E+01  0.46700000000E-02 0. -1.
         23    2    1    2    0    0  0.00000000000E+00  0.00000000000E+00  0.21965624474E+03  0.23769798019E+03  0.90837568966E+02 0.  0.
        -11    1    3    3    0    0  0.39889967387E+02  0.10039956942E+02  0.59436017747E+02  0.72281743472E+02  0.51100000000E-03 0. -1.
         11    1    3    3    0    0 -0.39889967387E+02 -0.10039956942E+02  0.16022022699E+03  0.16541623672E+03  0.51100000000E-03 0.  1.
<mgrwt>
<rscale>  0 0.90837569E+02</rscale>
<asrwt>0</asrwt>
<pdfrwt beam="2">  1        1 0.13878259E-02 0.90837569E+02</pdfrwt>
<pdfrwt beam="1">  1       -1 0.35181091E-01 0.90837569E+02</pdfrwt>
<totfact> 0.67334475E+04</totfact>
</mgrwt>
</event>
<event>
 5   1  0.1357339E+00  0.7598340E+02  0.7818608E-02  0.1340853E+00
         -1   -1    0    0    0  501 -0.00000000000E+00  0.00000000000E+00  0.17030186006E+02  0.17030186646E+02  0.46700000000E-02 0.  1.
          1   -1    0    0  501    0  0.00000000000E+00 -0.00000000000E+00 -0.84753586092E+02  0.84753586221E+02  0.46700000000E-02 0. -1.
         23    2    1    2    0    0  0.00000000000E+00  0.00000000000E+00 -0.67723400087E+02  0.10178377287E+03  0.75983402791E+02 0.  0.
        -11    1    3    3    0    0 -0.32871386732E+02  0.15199998113E+02 -0.49240404910E+02  0.61124344449E+02  0.51100000000E-03 0. -1.
         11    1    3    3    0    0  0.32871386732E+02 -0.15199998113E+02 -0.18482995177E+02  0.40659428418E+02  0.51100000000E-03 0.  1.
<mgrwt>
<rscale>  0 0.75983403E+02</rscale>
<asrwt>0</asrwt>
<pdfrwt beam="2">  1        1 0.13039013E-01 0.75983403E+02</pdfrwt>
<pdfrwt beam="1">  1       -1 0.26200287E-02 0.75983403E+02</pdfrwt>
<totfact> 0.16648948E+05</totfact>
</mgrwt>
</event>
<event>
 5   1  0.1357339E+00  0.9067435E+02  0.7818608E-02  0.1301227E+00
         -1   -1    0    0    0  501 -0.00000000000E+00  0.00000000000E+00  0.63658551317E+02  0.63658551488E+02  0.46700000000E-02 0.  1.
          1   -1    0    0  501    0  0.00000000000E+00 -0.00000000000E+00 -0.32288821431E+02  0.32288821768E+02  0.46700000000E-02 0. -1.
         23    2    1    2    0    0  0.00000000000E+00  0.00000000000E+00  0.31369729886E+02  0.95947373257E+02  0.90674354046E+02 0.  0.
        -11    1    3    3    0    0  0.26836457247E+02 -0.27477285768E+02  0.41174348704E+02  0.56307403263E+02  0.51100000000E-03 0.  1.
         11    1    3    3    0    0 -0.26836457247E+02  0.27477285768E+02 -0.98046188172E+01  0.39639969994E+02  0.51100000000E-03 0. -1.
<mgrwt>
<rscale>  0 0.90674354E+02</rscale>
<asrwt>0</asrwt>
<pdfrwt beam="2">  1        1 0.49675111E-02 0.90674354E+02</pdfrwt>
<pdfrwt beam="1">  1       -1 0.97936232E-02 0.90674354E+02</pdfrwt>
<totfact> 0.89103475E+04</totfact>
</mgrwt>
</event>
<event>
 5   1  0.1357339E+00  0.9057553E+02  0.7818608E-02  0.1301464E+00
         -1   -1    0    0    0  501 -0.00000000000E+00  0.00000000000E+00  0.32711092182E+03  0.32711092185E+03  0.46700000000E-02 0.  1.
          1   -1    0    0  501    0  0.00000000000E+00 -0.00000000000E+00 -0.62699873837E+01  0.62699891229E+01  0.46700000000E-02 0. -1.
         23    2    1    2    0    0  0.00000000000E+00  0.00000000000E+00  0.32084093443E+03  0.33338091097E+03  0.90575529771E+02 0.  0.
        -11    1    3    3    0    0 -0.38884321041E+02 -0.14612117773E+02  0.22682384295E+03  0.23059609740E+03  0.51100000000E-03 0.  1.
         11    1    3    3    0    0  0.38884321041E+02  0.14612117773E+02  0.94017091487E+02  0.10278481357E+03  0.51100000000E-03 0. -1.
<mgrwt>
<rscale>  0 0.90575530E+02</rscale>
<asrwt>0</asrwt>
<pdfrwt beam="2">  1        1 0.96461361E-03 0.90575530E+02</pdfrwt>
<pdfrwt beam="1">  1       -1 0.50324756E-01 0.90575530E+02</pdfrwt>
<totfact> 0.59505214E+04</totfact>
</mgrwt>
</event>
<event>
 5   1  0.1357339E+00  0.9213844E+02  0.7818608E-02  0.1297754E+00
         -1   -1    0    0    0  501 -0.00000000000E+00  0.00000000000E+00  0.23691518478E+02  0.23691518938E+02  0.46700000000E-02 0. -1.
          1   -1    0    0  501    0  0.00000000000E+00 -0.00000000000E+00 -0.89583669114E+02  0.89583669236E+02  0.46700000000E-02 0.  1.
         23    2    1    2    0    0  0.00000000000E+00  0.00000000000E+00 -0.65892150636E+02  0.11327518817E+03  0.92138443336E+02 0.  0.
        -11    1    3    3    0    0  0.25415024489E+02  0.30109624920E+02 -0.62294046613E+02  0.73709302169E+02  0.51100000000E-03 0.  1.
         11    1    3    3    0    0 -0.25415024489E+02 -0.30109624920E+02 -0.35981040236E+01  0.39565886005E+02  0.51100000000E-03 0. -1.
<mgrwt>
<rscale>  0 0.92138443E+02</rscale>
<asrwt>0</asrwt>
<pdfrwt beam="2">  1        1 0.13782103E-01 0.92138443E+02</pdfrwt>
<pdfrwt beam="1">  1       -1 0.36448491E-02 0.92138443E+02</pdfrwt>
<totfact> 0.99676913E+04</totfact>
</mgrwt>
</event>
<event>
 5   1  0.1357339E+00  0.9295442E+02  0.7818608E-02  0.1295851E+00
          1   -1    0    0  501    0  0.00000000000E+00  0.00000000000E+00  0.26785635326E+02  0.26785635734E+02  0.46700000000E-02 0. -1.
         -1   -1    0    0    0  501 -0.00000000000E+00 -0.00000000000E+00 -0.80645133275E+02  0.80645133411E+02  0.46700000000E-02 0.  1.
         23    2    1    2    0    0  0.00000000000E+00  0.00000000000E+00 -0.53859497949E+02  0.10743076914E+03  0.92954422378E+02 0.  0.
        -11    1    3    3    0    0  0.38567746472E+02  0.21075559356E+02 -0.94601245189E+01  0.44957137656E+02  0.51100000000E-03 0.  1.
         11    1    3    3    0    0 -0.38567746472E+02 -0.21075559356E+02 -0.44399373430E+02  0.62473631488E+02  0.51100000000E-03 0. -1.
<mgrwt>
<rscale>  0 0.92954422E+02</rscale>
<asrwt>0</asrwt>
<pdfrwt beam="1">  1        1 0.41208671E-02 0.92954422E+02</pdfrwt>
<pdfrwt beam="2">  1       -1 0.12406944E-01 0.92954422E+02</pdfrwt>
<totfact> 0.80453147E+04</totfact>
</mgrwt>
</event>
<event>
 5   1  0.1357339E+00  0.9175036E+02  0.7818608E-02  0.1298667E+00
         -1   -1    0    0    0  501 -0.00000000000E+00  0.00000000000E+00  0.31125454559E+02  0.31125454909E+02  0.46700000000E-02 0.  1.
          1   -1    0    0  501    0  0.00000000000E+00 -0.00000000000E+00 -0.67614501232E+02  0.67614501393E+02  0.46700000000E-02 0. -1.
         23    2    1    2    0    0  0.00000000000E+00  0.00000000000E+00 -0.36489046673E+02  0.98739956302E+02  0.91750359364E+02 0.  0.
        -11    1    3    3    0    0 -0.43552839486E+02 -0.12358028979E+02 -0.26222891301E+02  0.52318359454E+02  0.51100000000E-03 0.  1.
         11    1    3    3    0    0  0.43552839486E+02  0.12358028979E+02 -0.10266155372E+02  0.46421596848E+02  0.51100000000E-03 0. -1.
<mgrwt>
<rscale>  0 0.91750359E+02</rscale>
<asrwt>0</asrwt>
<pdfrwt beam="2">  1        1 0.10402231E-01 0.91750359E+02</pdfrwt>
<pdfrwt beam="1">  1       -1 0.47885315E-02 0.91750359E+02</pdfrwt>
<totfact> 0.96454636E+04</totfact>
</mgrwt>
</event>
<event>
 5   1  0.1357339E+00  0.9102266E+02  0.7818608E-02  0.1300394E+00
         -1   -1    0    0    0  501 -0.00000000000E+00  0.00000000000E+00  0.15672004504E+02  0.15672005200E+02  0.46700000000E-02 0.  1.
          1   -1    0    0  501    0  0.00000000000E+00 -0.00000000000E+00 -0.13216441166E+03  0.13216441174E+03  0.46700000000E-02 0. -1.
         23    2    1    2    0    0  0.00000000000E+00  0.00000000000E+00 -0.11649240716E+03  0.14783641694E+03  0.91022663385E+02 0.  0.
        -11    1    3    3    0    0 -0.18765171252E+02 -0.30318621941E+02 -0.12309682145E+02  0.37721065245E+02  0.51100000000E-03 0.  1.
         11    1    3    3    0    0  0.18765171252E+02  0.30318621941E+02 -0.10418272501E+03  0.11011535170E+03  0.51100000000E-03 0. -1.
<mgrwt>
<rscale>  0 0.91022663E+02</rscale>
<asrwt>0</asrwt>
<pdfrwt beam="2">  1        1 0.20332986E-01 0.91022663E+02</pdfrwt>
<pdfrwt beam="1">  1       -1 0.24110778E-02 0.91022663E+02</pdfrwt>
<totfact> 0.11009250E+05</totfact>
</mgrwt>
</event>
<event>
 5   1  0.1357339E+00  0.8977123E+02  0.7818608E-02  0.1303407E+00
          1   -1    0    0  501    0  0.00000000000E+00  0.00000000000E+00  0.44151025850E+02  0.44151026097E+02  0.46700000000E-02 0. -1.
         -1   -1    0    0    0  501 -0.00000000000E+00 -0.00000000000E+00 -0.45632426035E+02  0.45632426274E+02  0.46700000000E-02 0.  1.
         23    2    1    2    0    0  0.00000000000E+00  0.00000000000E+00 -0.14814001853E+01  0.89783452371E+02  0.89771230208E+02 0.  0.
        -11    1    3    3    0    0 -0.23152759859E+02  0.34880933252E+02 -0.16928967223E+02  0.45158827765E+02  0.51100000000E-03 0.  1.
         11    1    3    3    0    0  0.23152759859E+02 -0.34880933252E+02  0.15447567038E+02  0.44624624606E+02  0.51100000000E-03 0. -1.
<mgrwt>
<rscale>  0 0.89771230E+02</rscale>
<asrwt>0</asrwt>
<pdfrwt beam="1">  1        1 0.67924655E-02 0.89771230E+02</pdfrwt>
<pdfrwt beam="2">  1       -1 0.70203733E-02 0.89771230E+02</pdfrwt>
<totfact> 0.96127162E+04</totfact>
</mgrwt>
</event>
<event>
 5   1  0.1357339E+00  0.9182388E+02  0.7818608E-02  0.1298494E+00
         -1   -1    0    0    0  501 -0.00000000000E+00  0.00000000000E+00  0.88535253456E+02  0.88535253580E+02  0.46700000000E-02 0.  1.
          1   -1    0    0  501    0  0.00000000000E+00 -0.00000000000E+00 -0.23808666825E+02  0.23808667283E+02  0.46700000000E-02 0. -1.
         23    2    1    2    0    0  0.00000000000E+00  0.00000000000E+00  0.64726586631E+02  0.11234392086E+03  0.91823883265E+02 0.  0.
        -11    1    3    3    0    0 -0.35302055348E+02  0.24171188118E+02  0.52741533185E+02  0.67912817419E+02  0.51100000000E-03 0.  1.
         11    1    3    3    0    0  0.35302055348E+02 -0.24171188118E+02  0.11985053446E+02  0.44431103444E+02  0.51100000000E-03 0. -1.
<mgrwt>
<rscale>  0 0.91823883E+02</rscale>
<asrwt>0</asrwt>
<pdfrwt beam="2">  1        1 0.36628719E-02 0.91823883E+02</pdfrwt>
<pdfrwt beam="1">  1       -1 0.13620808E-01 0.91823883E+02</pdfrwt>
<totfact> 0.81684848E+04</totfact>
</mgrwt>
</event>
<event>
 5   1  0.1357339E+00  0.9265155E+02  0.7818608E-02  0.1296555E+00
         -1   -1    0    0    0  501 -0.00000000000E+00  0.00000000000E+00  0.63466680104E+01  0.63466697285E+01  0.46700000000E-02 0.  1.
          1   -1    0    0  501    0  0.00000000000E+00 -0.00000000000E+00 -0.33814232218E+03  0.33814232222E+03  0.46700000000E-02 0. -1.
         23    2    1    2    0    0  0.00000000000E+00  0.00000000000E+00 -0.33179565417E+03  0.34448899195E+03  0.92651548517E+02 0.  0.
        -11    1    3    3    0    0 -0.39348433189E+02  0.20350838770E+02 -0.21628087821E+03  0.22077108985E+03  0.51100000000E-03 0.  1.
         11    1    3    3    0    0  0.39348433189E+02 -0.20350838770E+02 -0.11551477597E+03  0.12371790210E+03  0.51100000000E-03 0. -1.
<mgrwt>
<rscale>  0 0.92651549E+02</rscale>
<asrwt>0</asrwt>
<pdfrwt beam="2">  1        1 0.52021882E-01 0.92651549E+02</pdfrwt>
<pdfrwt beam="1">  1       -1 0.97641086E-03 0.92651549E+02</pdfrwt>
<totfact> 0.12553383E+05</totfact>
</mgrwt>
</event>
<event>
 5   1  0.1357339E+00  0.9217265E+02  0.7818608E-02  0.1297674E+00
         -1   -1    0    0    0  501 -0.00000000000E+00  0.00000000000E+00  0.13652879022E+02  0.13652879821E+02  0.46700000000E-02 0.  1.
          1   -1    0    0  501    0  0.00000000000E+00 -0.00000000000E+00 -0.15556787765E+03  0.15556787772E+03  0.46700000000E-02 0. -1.
         23    2    1    2    0    0  0.00000000000E+00  0.00000000000E+00 -0.14191499863E+03  0.16922075754E+03  0.92172652925E+02 0.  0.
        -11    1    3    3    0    0 -0.13454878205E+01  0.45321218500E+02 -0.55804138743E+02  0.71902191100E+02  0.51100000000E-03 0.  1.
         11    1    3    3    0    0  0.13454878205E+01 -0.45321218500E+02 -0.86110859886E+02  0.97318566443E+02  0.51100000000E-03 0. -1.
<mgrwt>
<rscale>  0 0.92172653E+02</rscale>
<asrwt>0</asrwt>
<pdfrwt beam="2">  1        1 0.23933519E-01 0.92172653E+02</pdfrwt>
<pdfrwt beam="1">  1       -1 0.21004431E-02 0.92172653E+02</pdfrwt>
<totfact> 0.10962714E+05</totfact>
</mgrwt>
</event>
<event>
 5   1  0.1357339E+00  0.1075437E+03  0.7818608E-02  0.1265187E+00
          1   -1    0    0  501    0  0.00000000000E+00  0.00000000000E+00  0.88224056691E+02  0.88224056815E+02  0.46700000000E-02 0. -1.
         -1   -1    0    0    0  501 -0.00000000000E+00 -0.00000000000E+00 -0.32773482234E+02  0.32773482567E+02  0.46700000000E-02 0.  1.
         23    2    1    2    0    0  0.00000000000E+00  0.00000000000E+00  0.55450574457E+02  0.12099753938E+03  0.10754365778E+03 0.  0.
        -11    1    3    3    0    0 -0.16696436086E+02 -0.21730567915E+02  0.79777756779E+02  0.84353298909E+02  0.51100000000E-03 0. -1.
         11    1    3    3    0    0  0.16696436086E+02  0.21730567915E+02 -0.24327182322E+02  0.36644240473E+02  0.51100000000E-03 0.  1.
<mgrwt>
<rscale>  0 0.10754366E+03</rscale>
<asrwt>0</asrwt>
<pdfrwt beam="1">  1        1 0.13572932E-01 0.10754366E+03</pdfrwt>
<pdfrwt beam="2">  1       -1 0.50420743E-02 0.10754366E+03</pdfrwt>
<totfact> 0.64785830E+04</totfact>
</mgrwt>
</event>
<event>
 5   1  0.1357339E+00  0.9203234E+02  0.7818608E-02  0.1298003E+00
         -1   -1    0    0    0  501 -0.00000000000E+00  0.00000000000E+00  0.30143897754E+02  0.30143898116E+02  0.46700000000E-02 0.  1.
          1   -1    0    0  501    0  0.00000000000E+00 -0.00000000000E+00 -0.70245981325E+02  0.70245981480E+02  0.46700000000E-02 0. -1.
         23    2    1    2    0    0  0.00000000000E+00  0.00000000000E+00 -0.40102083571E+02  0.10038987960E+03  0.92032335723E+02 0.  0.
        -11    1    3    3    0    0 -0.24771584363E+02 -0.13824832546E+02 -0.59572890080E+02  0.65982472063E+02  0.51100000000E-03 0. -1.
         11    1    3    3    0    0  0.24771584363E+02  0.13824832546E+02  0.19470806509E+02  0.34407407534E+02  0.51100000000E-03 0.  1.
<mgrwt>
<rscale>  0 0.92032336E+02</rscale>
<asrwt>0</asrwt>
<pdfrwt beam="2">  1        1 0.10807074E-01 0.92032336E+02</pdfrwt>
<pdfrwt beam="1">  1       -1 0.46375228E-02 0.92032336E+02</pdfrwt>
<totfact> 0.96206463E+04</totfact>
</mgrwt>
</event>
<event>
 5   1  0.1357339E+00  0.9174778E+02  0.7818608E-02  0.1298674E+00
         -1   -1    0    0    0  501 -0.00000000000E+00  0.00000000000E+00  0.38423797385E+02  0.38423797668E+02  0.46700000000E-02 0.  1.
          1   -1    0    0  501    0  0.00000000000E+00 -0.00000000000E+00 -0.54768497143E+02  0.54768497342E+02  0.46700000000E-02 0. -1.
         23    2    1    2    0    0  0.00000000000E+00  0.00000000000E+00 -0.16344699759E+02  0.93192295011E+02  0.91747777298E+02 0.  0.
        -11    1    3    3    0    0 -0.49594892600E+00  0.20869556022E+02  0.33319652228E+02  0.39318997428E+02  0.51100000000E-03 0.  1.
         11    1    3    3    0    0  0.49594892600E+00 -0.20869556022E+02 -0.49664351987E+02  0.53873297583E+02  0.51100000000E-03 0. -1.
<mgrwt>
<rscale>  0 0.91747777E+02</rscale>
<asrwt>0</asrwt>
<pdfrwt beam="2">  1        1 0.84259227E-02 0.91747777E+02</pdfrwt>
<pdfrwt beam="1">  1       -1 0.59113535E-02 0.91747777E+02</pdfrwt>
<totfact> 0.93414838E+04</totfact>
</mgrwt>
</event>
<event>
 5   1  0.1357339E+00  0.9226741E+02  0.7818608E-02  0.1297452E+00
         -1   -1    0    0    0  501 -0.00000000000E+00  0.00000000000E+00  0.30808903994E+02  0.30808904348E+02  0.46700000000E-02 0. -1.
          1   -1    0    0  501    0  0.00000000000E+00 -0.00000000000E+00 -0.69081279865E+02  0.69081280023E+02  0.46700000000E-02 0.  1.
         23    2    1    2    0    0  0.00000000000E+00  0.00000000000E+00 -0.38272375871E+02  0.99890184371E+02  0.92267405831E+02 0.  0.
        -11    1    3    3    0    0 -0.76537481886E+01 -0.36519499341E+02 -0.48508121975E+02  0.61198787498E+02  0.51100000000E-03 0.  1.
         11    1    3    3    0    0  0.76537481886E+01  0.36519499341E+02  0.10235746104E+02  0.38691396873E+02  0.51100000000E-03 0. -1.
<mgrwt>
<rscale>  0 0.92267406E+02</rscale>
<asrwt>0</asrwt>
<pdfrwt beam="2">  1        1 0.10627889E-01 0.92267406E+02</pdfrwt>
<pdfrwt beam="1">  1       -1 0.47398314E-02 0.92267406E+02</pdfrwt>
<totfact> 0.95282526E+04</totfact>
</mgrwt>
</event>
<event>
 5   1  0.1357339E+00  0.9082371E+02  0.7818608E-02  0.1300869E+00
         -1   -1    0    0    0  501 -0.00000000000E+00  0.00000000000E+00  0.79651481121E+02  0.79651481258E+02  0.46700000000E-02 0.  1.
          1   -1    0    0  501    0  0.00000000000E+00 -0.00000000000E+00 -0.25890750520E+02  0.25890750941E+02  0.46700000000E-02 0. -1.
         23    2    1    2    0    0  0.00000000000E+00  0.00000000000E+00  0.53760730601E+02  0.10554223220E+03  0.90823711787E+02 0.  0.
        -11    1    3    3    0    0 -0.38373059593E+02  0.11079407077E+02  0.17683477889E+01  0.39979645044E+02  0.51100000000E-03 0. -1.
         11    1    3    3    0    0  0.38373059593E+02 -0.11079407077E+02  0.51992382812E+02  0.65562587155E+02  0.51100000000E-03 0.  1.
<mgrwt>
<rscale>  0 0.90823712E+02</rscale>
<asrwt>0</asrwt>
<pdfrwt beam="2">  1        1 0.39831925E-02 0.90823712E+02</pdfrwt>
<pdfrwt beam="1">  1       -1 0.12254074E-01 0.90823712E+02</pdfrwt>
<totfact> 0.85558455E+04</totfact>
</mgrwt>
</event>
<event>
 5   1  0.1357339E+00  0.9428805E+02  0.7818608E-02  0.1292788E+00
          1   -1    0    0  501    0  0.00000000000E+00  0.00000000000E+00  0.15271614636E+03  0.15271614643E+03  0.46700000000E-02 0. -1.
         -1   -1    0    0    0  501 -0.00000000000E+00 -0.00000000000E+00 -0.14553531234E+02  0.14553531983E+02  0.46700000000E-02 0.  1.
         23    2    1    2    0    0  0.00000000000E+00  0.00000000000E+00  0.13816261513E+03  0.16726967841E+03  0.94288053849E+02 0.  0.
        -11    1    3    3    0    0  0.18048557283E+02 -0.25599222301E+02  0.65738361764E+01  0.32004467262E+02  0.51100000000E-03 0.  1.
         11    1    3    3    0    0 -0.18048557283E+02  0.25599222301E+02  0.13158877895E+03  0.13526521115E+03  0.51100000000E-03 0. -1.
<mgrwt>
<rscale>  0 0.94288054E+02</rscale>
<asrwt>0</asrwt>
<pdfrwt beam="1">  1        1 0.23494792E-01 0.94288054E+02</pdfrwt>
<pdfrwt beam="2">  1       -1 0.22390048E-02 0.94288054E+02</pdfrwt>
<totfact> 0.10274556E+05</totfact>
</mgrwt>
</event>
<event>
 5   1  0.1357339E+00  0.8859380E+02  0.7818608E-02  0.1306293E+00
          1   -1    0    0  501    0  0.00000000000E+00  0.00000000000E+00  0.30435570861E+02  0.30435571220E+02  0.46700000000E-02 0. -1.
         -1   -1    0    0    0  501 -0.00000000000E+00 -0.00000000000E+00 -0.64471125856E+02  0.64471126025E+02  0.46700000000E-02 0.  1.
         23    2    1    2    0    0  0.00000000000E+00  0.00000000000E+00 -0.34035554994E+02  0.94906697244E+02  0.88593804400E+02 0.  0.
        -11    1    3    3    0    0  0.32495313547E+02  0.26252067705E+02 -0.32801974877E+02  0.53113896651E+02  0.51100000000E-03 0.  1.
         11    1    3    3    0    0 -0.32495313547E+02 -0.26252067705E+02 -0.12335801171E+01  0.41792800594E+02  0.51100000000E-03 0. -1.
<mgrwt>
<rscale>  0 0.88593804E+02</rscale>
<asrwt>0</asrwt>
<pdfrwt beam="1">  1        1 0.46823956E-02 0.88593804E+02</pdfrwt>
<pdfrwt beam="2">  1       -1 0.99186348E-02 0.88593804E+02</pdfrwt>
<totfact> 0.94324232E+04</totfact>
</mgrwt>
</event>
<event>
 5   1  0.1357339E+00  0.9268947E+02  0.7818608E-02  0.1296466E+00
          1   -1    0    0  501    0  0.00000000000E+00  0.00000000000E+00  0.27230970712E+02  0.27230971112E+02  0.46700000000E-02 0. -1.
         -1   -1    0    0    0  501 -0.00000000000E+00 -0.00000000000E+00 -0.78874684844E+02  0.78874684982E+02  0.46700000000E-02 0.  1.
         23    2    1    2    0    0  0.00000000000E+00  0.00000000000E+00 -0.51643714132E+02  0.10610565609E+03  0.92689465669E+02 0.  0.
        -11    1    3    3    0    0 -0.38955690975E+02  0.14116534804E+02 -0.49587674705E+02  0.64620119909E+02  0.51100000000E-03 0.  1.
         11    1    3    3    0    0  0.38955690975E+02 -0.14116534804E+02 -0.20560394271E+01  0.41485536185E+02  0.51100000000E-03 0. -1.
<mgrwt>
<rscale>  0 0.92689466E+02</rscale>
<asrwt>0</asrwt>
<pdfrwt beam="1">  1        1 0.41893802E-02 0.92689466E+02</pdfrwt>
<pdfrwt beam="2">  1       -1 0.12134567E-01 0.92689466E+02</pdfrwt>
<totfact> 0.81350784E+04</totfact>
</mgrwt>
</event>
<event>
 5   1  0.1357339E+00  0.1014963E+03  0.7818608E-02  0.1277181E+00
         -1   -1    0    0    0  501 -0.00000000000E+00  0.00000000000E+00  0.68107710842E+02  0.68107711002E+02  0.46700000000E-02 0.  1.
          1   -1    0    0  501    0  0.00000000000E+00 -0.00000000000E+00 -0.37813236046E+02  0.37813236334E+02  0.46700000000E-02 0. -1.
         23    2    1    2    0    0  0.00000000000E+00  0.00000000000E+00  0.30294474796E+02  0.10592094734E+03  0.10149626536E+03 0.  0.
        -11    1    3    3    0    0  0.56140710263E+01  0.34112149356E+02 -0.23623618860E+02  0.41871612048E+02  0.51100000000E-03 0. -1.
         11    1    3    3    0    0 -0.56140710263E+01 -0.34112149356E+02  0.53918093656E+02  0.64049335289E+02  0.51100000000E-03 0.  1.
<mgrwt>
<rscale>  0 0.10149627E+03</rscale>
<asrwt>0</asrwt>
<pdfrwt beam="2">  1        1 0.58174210E-02 0.10149627E+03</pdfrwt>
<pdfrwt beam="1">  1       -1 0.10478109E-01 0.10149627E+03</pdfrwt>
<totfact> 0.66131613E+04</totfact>
</mgrwt>
</event>
<event>
 5   1  0.1357339E+00  0.9087401E+02  0.7818608E-02  0.1300749E+00
         -1   -1    0    0    0  501 -0.00000000000E+00  0.00000000000E+00  0.43994345234E+02  0.43994345482E+02  0.46700000000E-02 0.  1.
          1   -1    0    0  501    0  0.00000000000E+00 -0.00000000000E+00 -0.46926969727E+02  0.46926969960E+02  0.46700000000E-02 0. -1.
         23    2    1    2    0    0  0.00000000000E+00  0.00000000000E+00 -0.29326244934E+01  0.90921315441E+02  0.90874007918E+02 0.  0.
        -11    1    3    3    0    0 -0.19383692854E+02 -0.43020156794E+01  0.39424101560E+02  0.44141756553E+02  0.51100000000E-03 0.  1.
         11    1    3    3    0    0  0.19383692854E+02  0.43020156794E+01 -0.42356726053E+02  0.46779558888E+02  0.51100000000E-03 0. -1.
<mgrwt>
<rscale>  0 0.90874008E+02</rscale>
<asrwt>0</asrwt>
<pdfrwt beam="2">  1        1 0.72195338E-02 0.90874008E+02</pdfrwt>
<pdfrwt beam="1">  1       -1 0.67683609E-02 0.90874008E+02</pdfrwt>
<totfact> 0.93745229E+04</totfact>
</mgrwt>
</event>
<event>
 5   1  0.1357339E+00  0.9193356E+02  0.7818608E-02  0.1298236E+00
         -1   -1    0    0    0  501 -0.00000000000E+00  0.00000000000E+00  0.37515339195E+02  0.37515339485E+02  0.46700000000E-02 0.  1.
          1   -1    0    0  501    0  0.00000000000E+00 -0.00000000000E+00 -0.56322158916E+02  0.56322159109E+02  0.46700000000E-02 0. -1.
         23    2    1    2    0    0  0.00000000000E+00  0.00000000000E+00 -0.18806819721E+02  0.93837498594E+02  0.91933561197E+02 0.  0.
        -11    1    3    3    0    0  0.95511200627E+01  0.25259179641E+02 -0.47371828014E+02  0.54528342541E+02  0.51100000000E-03 0. -1.
         11    1    3    3    0    0 -0.95511200627E+01 -0.25259179641E+02  0.28565008293E+02  0.39309156053E+02  0.51100000000E-03 0.  1.
<mgrwt>
<rscale>  0 0.91933561E+02</rscale>
<asrwt>0</asrwt>
<pdfrwt beam="2">  1        1 0.86649475E-02 0.91933561E+02</pdfrwt>
<pdfrwt beam="1">  1       -1 0.57715907E-02 0.91933561E+02</pdfrwt>
<totfact> 0.93283234E+04</totfact>
</mgrwt>
</event>
<event>
 5   1  0.1357339E+00  0.9367582E+02  0.7818608E-02  0.1294187E+00
          1   -1    0    0  501    0  0.00000000000E+00  0.00000000000E+00  0.35273432336E+02  0.35273432645E+02  0.46700000000E-02 0. -1.
         -1   -1    0    0    0  501 -0.00000000000E+00 -0.00000000000E+00 -0.62193831408E+02  0.62193831584E+02  0.46700000000E-02 0.  1.
         23    2    1    2    0    0  0.00000000000E+00  0.00000000000E+00 -0.26920399073E+02  0.97467264228E+02  0.93675822441E+02 0.  0.
        -11    1    3    3    0    0  0.42903631344E+02 -0.11219764776E+02 -0.29142916386E+02  0.53065188965E+02  0.51100000000E-03 0.  1.
         11    1    3    3    0    0 -0.42903631344E+02  0.11219764776E+02  0.22225173138E+01  0.44402075263E+02  0.51100000000E-03 0. -1.
<mgrwt>
<rscale>  0 0.93675822E+02</rscale>
<asrwt>0</asrwt>
<pdfrwt beam="1">  1        1 0.54266819E-02 0.93675822E+02</pdfrwt>
<pdfrwt beam="2">  1       -1 0.95682818E-02 0.93675822E+02</pdfrwt>
<totfact> 0.82327571E+04</totfact>
</mgrwt>
</event>
<event>
 5   1  0.1357339E+00  0.8963681E+02  0.7818608E-02  0.1303734E+00
          1   -1    0    0  501    0  0.00000000000E+00  0.00000000000E+00  0.92441287962E+01  0.92441299758E+01  0.46700000000E-02 0. -1.
         -1   -1    0    0    0  501 -0.00000000000E+00 -0.00000000000E+00 -0.21729350206E+03  0.21729350211E+03  0.46700000000E-02 0.  1.
         23    2    1    2    0    0  0.00000000000E+00  0.00000000000E+00 -0.20804937327E+03  0.22653763209E+03  0.89636806256E+02 0.  0.
        -11    1    3    3    0    0  0.29171534577E+02 -0.10297548879E+02 -0.18598318578E+03  0.18853849298E+03  0.51100000000E-03 0.  1.
         11    1    3    3    0    0 -0.29171534577E+02  0.10297548879E+02 -0.22066187487E+02  0.37999139108E+02  0.51100000000E-03 0. -1.
<mgrwt>
<rscale>  0 0.89636806E+02</rscale>
<asrwt>0</asrwt>
<pdfrwt beam="1">  1        1 0.14221739E-02 0.89636806E+02</pdfrwt>
<pdfrwt beam="2">  1       -1 0.33429766E-01 0.89636806E+02</pdfrwt>
<totfact> 0.70820749E+04</totfact>
</mgrwt>
</event>
<event>
 5   1  0.1357339E+00  0.9024936E+02  0.7818608E-02  0.1302249E+00
         -1   -1    0    0    0  501 -0.00000000000E+00  0.00000000000E+00  0.21566629170E+02  0.21566629676E+02  0.46700000000E-02 0.  1.
          1   -1    0    0  501    0  0.00000000000E+00 -0.00000000000E+00 -0.94416078172E+02  0.94416078288E+02  0.46700000000E-02 0. -1.
         23    2    1    2    0    0  0.00000000000E+00  0.00000000000E+00 -0.72849449002E+02  0.11598270796E+03  0.90249356378E+02 0.  0.
        -11    1    3    3    0    0 -0.25532061241E+01  0.16221552346E+02  0.17590434374E+02  0.24064101972E+02  0.51100000000E-03 0.  1.
         11    1    3    3    0    0  0.25532061241E+01 -0.16221552346E+02 -0.90439883376E+02  0.91918605991E+02  0.51100000000E-03 0. -1.
<mgrwt>
<rscale>  0 0.90249356E+02</rscale>
<asrwt>0</asrwt>
<pdfrwt beam="2">  1        1 0.14525550E-01 0.90249356E+02</pdfrwt>
<pdfrwt beam="1">  1       -1 0.33179431E-02 0.90249356E+02</pdfrwt>
<totfact> 0.10639084E+05</totfact>
</mgrwt>
</event>
<event>
 5   1  0.1357339E+00  0.8959331E+02  0.7818608E-02  0.1303840E+00
         -1   -1    0    0    0  501 -0.00000000000E+00  0.00000000000E+00  0.90981442418E+01  0.90981454403E+01  0.46700000000E-02 0.  1.
          1   -1    0    0  501    0  0.00000000000E+00 -0.00000000000E+00 -0.22056586146E+03  0.22056586151E+03  0.46700000000E-02 0. -1.
         23    2    1    2    0    0  0.00000000000E+00  0.00000000000E+00 -0.21146771722E+03  0.22966400695E+03  0.89593307020E+02 0.  0.
        -11    1    3    3    0    0 -0.38553400868E+02  0.17565286636E+02 -0.68424532038E+02  0.80478696547E+02  0.51100000000E-03 0.  1.
         11    1    3    3    0    0  0.38553400868E+02 -0.17565286636E+02 -0.14304318518E+03  0.14918531040E+03  0.51100000000E-03 0. -1.
<mgrwt>
<rscale>  0 0.89593307E+02</rscale>
<asrwt>0</asrwt>
<pdfrwt beam="2">  1        1 0.33933206E-01 0.89593307E+02</pdfrwt>
<pdfrwt beam="1">  1       -1 0.13997148E-02 0.89593307E+02</pdfrwt>
<totfact> 0.12647023E+05</totfact>
</mgrwt>
</event>
<event>
 5   1  0.1357339E+00  0.9317311E+02  0.7818608E-02  0.1295345E+00
          1   -1    0    0  501    0  0.00000000000E+00  0.00000000000E+00  0.13138987657E+03  0.13138987665E+03  0.46700000000E-02 0. -1.
         -1   -1    0    0    0  501 -0.00000000000E+00 -0.00000000000E+00 -0.16518068232E+02  0.16518068892E+02  0.46700000000E-02 0.  1.
         23    2    1    2    0    0  0.00000000000E+00  0.00000000000E+00  0.11487180834E+03  0.14790794554E+03  0.93173107732E+02 0.  0.
        -11    1    3    3    0    0 -0.29669152181E+02  0.24643684661E+02  0.15956958209E+02  0.41739601105E+02  0.51100000000E-03 0.  1.
         11    1    3    3    0    0  0.29669152181E+02 -0.24643684661E+02  0.98914850127E+02  0.10616834444E+03  0.51100000000E-03 0. -1.
<mgrwt>
<rscale>  0 0.93173108E+02</rscale>
<asrwt>0</asrwt>
<pdfrwt beam="1">  1        1 0.20213827E-01 0.93173108E+02</pdfrwt>
<pdfrwt beam="2">  1       -1 0.25412413E-02 0.93173108E+02</pdfrwt>
<totfact> 0.10322955E+05</totfact>
</mgrwt>
</event>
<event>
 5   1  0.1357339E+00  0.9093504E+02  0.7818608E-02  0.1300603E+00
         -1   -1    0    0    0  501 -0.00000000000E+00  0.00000000000E+00  0.25471064774E+02  0.25471065202E+02  0.46700000000E-02 0.  1.
          1   -1    0    0  501    0  0.00000000000E+00 -0.00000000000E+00 -0.81162499523E+02  0.81162499657E+02  0.46700000000E-02 0. -1.
         23    2    1    2    0    0  0.00000000000E+00  0.00000000000E+00 -0.55691434749E+02  0.10663356486E+03  0.90935038628E+02 0.  0.
        -11    1    3    3    0    0 -0.10751299055E+02  0.23501294361E+02  0.16020752205E+02  0.30406673108E+02  0.51100000000E-03 0.  1.
         11    1    3    3    0    0  0.10751299055E+02 -0.23501294361E+02 -0.71712186954E+02  0.76226891751E+02  0.51100000000E-03 0. -1.
<mgrwt>
<rscale>  0 0.90935039E+02</rscale>
<asrwt>0</asrwt>
<pdfrwt beam="2">  1        1 0.12486538E-01 0.90935039E+02</pdfrwt>
<pdfrwt beam="1">  1       -1 0.39186254E-02 0.90935039E+02</pdfrwt>
<totfact> 0.10171251E+05</totfact>
</mgrwt>
</event>
<event>
 5   1  0.1357339E+00  0.8410485E+02  0.7818608E-02  0.1317790E+00
         -1   -1    0    0    0  501 -0.00000000000E+00  0.00000000000E+00  0.13711643203E+02  0.13711643998E+02  0.46700000000E-02 0.  1.
          1   -1    0    0  501    0  0.00000000000E+00 -0.00000000000E+00 -0.12897115661E+03  0.12897115670E+03  0.46700000000E-02 0. -1.
         23    2    1    2    0    0  0.00000000000E+00  0.00000000000E+00 -0.11525951341E+03  0.14268280070E+03  0.84104852315E+02 0.  0.
        -11    1    3    3    0    0  0.15684640983E+02 -0.18002308541E+02 -0.11635653222E+03  0.11878103244E+03  0.51100000000E-03 0. -1.
         11    1    3    3    0    0 -0.15684640983E+02  0.18002308541E+02  0.10970188094E+01  0.23901768263E+02  0.51100000000E-03 0.  1.
<mgrwt>
<rscale>  0 0.84104852E+02</rscale>
<asrwt>0</asrwt>
<pdfrwt beam="2">  1        1 0.19841716E-01 0.84104852E+02</pdfrwt>
<pdfrwt beam="1">  1       -1 0.21094837E-02 0.84104852E+02</pdfrwt>
<totfact> 0.13560618E+05</totfact>
</mgrwt>
</event>
<event>
 5   1  0.1357339E+00  0.9171622E+02  0.7818608E-02  0.1298748E+00
          1   -1    0    0  501    0  0.00000000000E+00  0.00000000000E+00  0.23187923020E+02  0.23187923490E+02  0.46700000000E-02 0. -1.
         -1   -1    0    0    0  501 -0.00000000000E+00 -0.00000000000E+00 -0.90692313767E+02  0.90692313887E+02  0.46700000000E-02 0.  1.
         23    2    1    2    0    0  0.00000000000E+00  0.00000000000E+00 -0.67504390747E+02  0.11388023738E+03  0.91716223728E+02 0.  0.
        -11    1    3    3    0    0  0.56905125156E+01  0.40667323818E+02 -0.84043117916E+01  0.41914742229E+02  0.51100000000E-03 0. -1.
         11    1    3    3    0    0 -0.56905125156E+01 -0.40667323818E+02 -0.59100078956E+02  0.71965495149E+02  0.51100000000E-03 0.  1.
<mgrwt>
<rscale>  0 0.91716224E+02</rscale>
<asrwt>0</asrwt>
<pdfrwt beam="1">  1        1 0.35673729E-02 0.91716224E+02</pdfrwt>
<pdfrwt beam="2">  1       -1 0.13952664E-01 0.91716224E+02</pdfrwt>
<totfact> 0.81582293E+04</totfact>
</mgrwt>
</event>
<event>
 5   1  0.1357339E+00  0.8494558E+02  0.7818608E-02  0.1315575E+00
          1   -1    0    0  501    0  0.00000000000E+00  0.00000000000E+00  0.86865548212E+02  0.86865548338E+02  0.46700000000E-02 0.  1.
         -1   -1    0    0    0  501 -0.00000000000E+00 -0.00000000000E+00 -0.20767009355E+02  0.20767009880E+02  0.46700000000E-02 0. -1.
         23    2    1    2    0    0  0.00000000000E+00  0.00000000000E+00  0.66098538857E+02  0.10763255822E+03  0.84945575220E+02 0.  0.
        -11    1    3    3    0    0  0.16488729914E+02 -0.67510120840E+01  0.81901333686E+02  0.83816960325E+02  0.51100000000E-03 0.  1.
         11    1    3    3    0    0 -0.16488729914E+02  0.67510120840E+01 -0.15802794828E+02  0.23815597893E+02  0.51100000000E-03 0. -1.
<mgrwt>
<rscale>  0 0.84945575E+02</rscale>
<asrwt>0</asrwt>
<pdfrwt beam="1">  1        1 0.13363931E-01 0.84945575E+02</pdfrwt>
<pdfrwt beam="2">  1       -1 0.31949246E-02 0.84945575E+02</pdfrwt>
<totfact> 0.12377139E+05</totfact>
</mgrwt>
</event>
<event>
 5   1  0.1357339E+00  0.9169290E+02  0.7818608E-02  0.1298803E+00
         -1   -1    0    0    0  501 -0.00000000000E+00  0.00000000000E+00  0.14218625808E+03  0.14218625815E+03  0.46700000000E-02 0.  1.
          1   -1    0    0  501    0  0.00000000000E+00 -0.00000000000E+00 -0.14782701280E+02  0.14782702018E+02  0.46700000000E-02 0. -1.
         23    2    1    2    0    0  0.00000000000E+00  0.00000000000E+00  0.12740355680E+03  0.15696896017E+03  0.91692901432E+02 0.  0.
        -11    1    3    3    0    0  0.45325894388E+02 -0.64989618499E+00  0.51960851650E+02  0.68954979310E+02  0.51100000000E-03 0. -1.
         11    1    3    3    0    0 -0.45325894388E+02  0.64989618499E+00  0.75442705147E+02  0.88013980863E+02  0.51100000000E-03 0.  1.
<mgrwt>
<rscale>  0 0.91692901E+02</rscale>
<asrwt>0</asrwt>
<pdfrwt beam="2">  1        1 0.22742619E-02 0.91692901E+02</pdfrwt>
<pdfrwt beam="1">  1       -1 0.21874808E-01 0.91692901E+02</pdfrwt>
<totfact> 0.74613973E+04</totfact>
</mgrwt>
</event>
<event>
 5   1  0.1357339E+00  0.9050210E+02  0.7818608E-02  0.1301640E+00
          1   -1    0    0  501    0  0.00000000000E+00  0.00000000000E+00  0.22123671187E+03  0.22123671192E+03  0.46700000000E-02 0. -1.
         -1   -1    0    0    0  501 -0.00000000000E+00 -0.00000000000E+00 -0.92555046857E+01  0.92555058639E+01  0.46700000000E-02 0.  1.
         23    2    1    2    0    0  0.00000000000E+00  0.00000000000E+00  0.21198120718E+03  0.23049221778E+03  0.90502100855E+02 0.  0.
        -11    1    3    3    0    0  0.33807893170E+02  0.18723677879E+02  0.46039836847E+02  0.60110035195E+02  0.51100000000E-03 0.  1.
         11    1    3    3    0    0 -0.33807893170E+02 -0.18723677879E+02  0.16594137034E+03  0.17038218259E+03  0.51100000000E-03 0. -1.
<mgrwt>
<rscale>  0 0.90502101E+02</rscale>
<asrwt>0</asrwt>
<pdfrwt beam="1">  1        1 0.34036419E-01 0.90502101E+02</pdfrwt>
<pdfrwt beam="2">  1       -1 0.14239238E-02 0.90502101E+02</pdfrwt>
<totfact> 0.12317856E+05</totfact>
</mgrwt>
</event>
<event>
 5   1  0.1357339E+00  0.7533207E+02  0.7818608E-02  0.1342846E+00
         -1   -1    0    0    0  501 -0.00000000000E+00  0.00000000000E+00  0.91464718292E+02  0.91464718411E+02  0.46700000000E-02 0.  1.
          1   -1    0    0  501    0  0.00000000000E+00 -0.00000000000E+00 -0.15511229794E+02  0.15511230497E+02  0.46700000000E-02 0. -1.
         23    2    1    2    0    0  0.00000000000E+00  0.00000000000E+00  0.75953488498E+02  0.10697594891E+03  0.75332073048E+02 0.  0.
        -11    1    3    3    0    0  0.15470957162E+02 -0.26624216205E+02  0.71732272797E+01  0.31617314780E+02  0.51100000000E-03 0. -1.
         11    1    3    3    0    0 -0.15470957162E+02  0.26624216205E+02  0.68780261218E+02  0.75358634127E+02  0.51100000000E-03 0.  1.
<mgrwt>
<rscale>  0 0.75332073E+02</rscale>
<asrwt>0</asrwt>
<pdfrwt beam="2">  1        1 0.23863431E-02 0.75332073E+02</pdfrwt>
<pdfrwt beam="1">  1       -1 0.14071495E-01 0.75332073E+02</pdfrwt>
<totfact> 0.13481441E+05</totfact>
</mgrwt>
</event>
<event>
 5   1  0.1357339E+00  0.9074450E+02  0.7818608E-02  0.1301059E+00
         -1   -1    0    0    0  501 -0.00000000000E+00  0.00000000000E+00  0.43992805458E+02  0.43992805706E+02  0.46700000000E-02 0.  1.
          1   -1    0    0  501    0  0.00000000000E+00 -0.00000000000E+00 -0.46794945822E+02  0.46794946055E+02  0.46700000000E-02 0. -1.
         23    2    1    2    0    0  0.00000000000E+00  0.00000000000E+00 -0.28021403639E+01  0.90787751761E+02  0.90744497790E+02 0.  0.
        -11    1    3    3    0    0 -0.42668376707E+02  0.10081133753E+02 -0.13086592175E+02  0.45754546480E+02  0.51100000000E-03 0. -1.
         11    1    3    3    0    0  0.42668376707E+02 -0.10081133753E+02  0.10284451811E+02  0.45033205281E+02  0.51100000000E-03 0.  1.
<mgrwt>
<rscale>  0 0.90744498E+02</rscale>
<asrwt>0</asrwt>
<pdfrwt beam="2">  1        1 0.71992224E-02 0.90744498E+02</pdfrwt>
<pdfrwt beam="1">  1       -1 0.67681240E-02 0.90744498E+02</pdfrwt>
<totfact> 0.94080457E+04</totfact>
</mgrwt>
</event>
<event>
 5   1  0.1357339E+00  0.9290401E+02  0.7818608E-02  0.1295968E+00
          1   -1    0    0  501    0  0.00000000000E+00  0.00000000000E+00  0.26308026214E+03  0.26308026218E+03  0.46700000000E-02 0. -1.
         -1   -1    0    0    0  501 -0.00000000000E+00 -0.00000000000E+00 -0.82020170200E+01  0.82020183495E+01  0.46700000000E-02 0.  1.
         23    2    1    2    0    0  0.00000000000E+00  0.00000000000E+00  0.25487824512E+03  0.27128228053E+03  0.92904014415E+02 0.  0.
        -11    1    3    3    0    0  0.15217257094E+02  0.41824648378E+02  0.88599150564E+02  0.99149763521E+02  0.51100000000E-03 0.  1.
         11    1    3    3    0    0 -0.15217257094E+02 -0.41824648378E+02  0.16627909455E+03  0.17213251701E+03  0.51100000000E-03 0. -1.
<mgrwt>
<rscale>  0 0.92904014E+02</rscale>
<asrwt>0</asrwt>
<pdfrwt beam="1">  1        1 0.40473889E-01 0.92904014E+02</pdfrwt>
<pdfrwt beam="2">  1       -1 0.12618488E-02 0.92904014E+02</pdfrwt>
<totfact> 0.11879452E+05</totfact>
</mgrwt>
</event>
<event>
 5   1  0.1357339E+00  0.8485212E+02  0.7818608E-02  0.1315820E+00
          1   -1    0    0  501    0  0.00000000000E+00  0.00000000000E+00  0.35773497972E+03  0.35773497975E+03  0.46700000000E-02 0. -1.
         -1   -1    0    0    0  501 -0.00000000000E+00 -0.00000000000E+00 -0.50315749566E+01  0.50315771238E+01  0.46700000000E-02 0.  1.
         23    2    1    2    0    0  0.00000000000E+00  0.00000000000E+00  0.35270340477E+03  0.36276655688E+03  0.84852124633E+02 0.  0.
        -11    1    3    3    0    0  0.39681696227E+02  0.12861329599E+02  0.20944577680E+03  0.21355932252E+03  0.51100000000E-03 0.  1.
         11    1    3    3    0    0 -0.39681696227E+02 -0.12861329599E+02  0.14325762796E+03  0.14920723436E+03  0.51100000000E-03 0. -1.
<mgrwt>
<rscale>  0 0.84852125E+02</rscale>
<asrwt>0</asrwt>
<pdfrwt beam="1">  1        1 0.55036145E-01 0.84852125E+02</pdfrwt>
<pdfrwt beam="2">  1       -1 0.77408871E-03 0.84852125E+02</pdfrwt>
<totfact> 0.16009416E+05</totfact>
</mgrwt>
</event>
<event>
 5   1  0.1357339E+00  0.9253791E+02  0.7818608E-02  0.1296820E+00
          1   -1    0    0  501    0  0.00000000000E+00  0.00000000000E+00  0.59499020156E+01  0.59499038483E+01  0.46700000000E-02 0. -1.
         -1   -1    0    0    0  501 -0.00000000000E+00 -0.00000000000E+00 -0.35980693260E+03  0.35980693263E+03  0.46700000000E-02 0.  1.
         23    2    1    2    0    0  0.00000000000E+00  0.00000000000E+00 -0.35385703058E+03  0.36575683648E+03  0.92537912969E+02 0.  0.
        -11    1    3    3    0    0  0.42596097392E+02 -0.95715091111E+01 -0.23749030602E+03  0.24146984647E+03  0.51100000000E-03 0.  1.
         11    1    3    3    0    0 -0.42596097392E+02  0.95715091111E+01 -0.11636672456E+03  0.12428699001E+03  0.51100000000E-03 0. -1.
<mgrwt>
<rscale>  0 0.92537913E+02</rscale>
<asrwt>0</asrwt>
<pdfrwt beam="1">  1        1 0.91536996E-03 0.92537913E+02</pdfrwt>
<pdfrwt beam="2">  1       -1 0.55354896E-01 0.92537913E+02</pdfrwt>
<totfact> 0.53943536E+04</totfact>
</mgrwt>
</event>
<event>
 5   1  0.1357339E+00  0.9209402E+02  0.7818608E-02  0.1297859E+00
          1   -1    0    0  501    0  0.00000000000E+00  0.00000000000E+00  0.59030222183E+02  0.59030222368E+02  0.46700000000E-02 0. -1.
         -1   -1    0    0    0  501 -0.00000000000E+00 -0.00000000000E+00 -0.35919350227E+02  0.35919350531E+02  0.46700000000E-02 0.  1.
         23    2    1    2    0    0  0.00000000000E+00  0.00000000000E+00  0.23110871956E+02  0.94949572899E+02  0.92094022559E+02 0.  0.
        -11    1    3    3    0    0  0.41463930027E+02 -0.19200715209E+02  0.56866344457E+01  0.46046311138E+02  0.51100000000E-03 0.  1.
         11    1    3    3    0    0 -0.41463930027E+02  0.19200715209E+02  0.17424237510E+02  0.48903261761E+02  0.51100000000E-03 0. -1.
<mgrwt>
<rscale>  0 0.92094023E+02</rscale>
<asrwt>0</asrwt>
<pdfrwt beam="1">  1        1 0.90815725E-02 0.92094023E+02</pdfrwt>
<pdfrwt beam="2">  1       -1 0.55260540E-02 0.92094023E+02</pdfrwt>
<totfact> 0.93495605E+04</totfact>
</mgrwt>
</event>
<event>
 5   1  0.1357339E+00  0.9431396E+02  0.7818608E-02  0.1292729E+00
         -1   -1    0    0    0  501 -0.00000000000E+00  0.00000000000E+00  0.11525657106E+02  0.11525658052E+02  0.46700000000E-02 0.  1.
          1   -1    0    0  501    0  0.00000000000E+00 -0.00000000000E+00 -0.19294175762E+03  0.19294175768E+03  0.46700000000E-02 0. -1.
         23    2    1    2    0    0  0.00000000000E+00  0.00000000000E+00 -0.18141610052E+03  0.20446741573E+03  0.94313957446E+02 0.  0.
        -11    1    3    3    0    0  0.26704083954E+02  0.33251466439E+02 -0.47078336382E+02  0.63522735118E+02  0.51100000000E-03 0.  1.
         11    1    3    3    0    0 -0.26704083954E+02 -0.33251466439E+02 -0.13433776413E+03  0.14094468061E+03  0.51100000000E-03 0. -1.
<mgrwt>
<rscale>  0 0.94313957E+02</rscale>
<asrwt>0</asrwt>
<pdfrwt beam="2">  1        1 0.29683345E-01 0.94313957E+02</pdfrwt>
<pdfrwt beam="1">  1       -1 0.17731782E-02 0.94313957E+02</pdfrwt>
<totfact> 0.10735559E+05</totfact>
</mgrwt>
</event>
<event>
 5   1  0.1357339E+00  0.8927683E+02  0.7818608E-02  0.1304612E+00
          1   -1    0    0  501    0  0.00000000000E+00  0.00000000000E+00  0.14311210721E+02  0.14311211483E+02  0.46700000000E-02 0. -1.
         -1   -1    0    0    0  501 -0.00000000000E+00 -0.00000000000E+00 -0.13923268084E+03  0.13923268092E+03  0.46700000000E-02 0.  1.
         23    2    1    2    0    0  0.00000000000E+00  0.00000000000E+00 -0.12492147012E+03  0.15354389240E+03  0.89276834607E+02 0.  0.
        -11    1    3    3    0    0 -0.16892091703E+02  0.37823444840E+02 -0.33855507415E+02  0.53499075920E+02  0.51100000000E-03 0. -1.
         11    1    3    3    0    0  0.16892091703E+02 -0.37823444840E+02 -0.91065962706E+02  0.10004481648E+03  0.51100000000E-03 0.  1.
<mgrwt>
<rscale>  0 0.89276835E+02</rscale>
<asrwt>0</asrwt>
<pdfrwt beam="1">  1        1 0.22017249E-02 0.89276835E+02</pdfrwt>
<pdfrwt beam="2">  1       -1 0.21420412E-01 0.89276835E+02</pdfrwt>
<totfact> 0.80336396E+04</totfact>
</mgrwt>
</event>
<event>
 5   1  0.1357339E+00  0.9405971E+02  0.7818608E-02  0.1293308E+00
          1   -1    0    0  501    0  0.00000000000E+00  0.00000000000E+00  0.63273491842E+02  0.63273492015E+02  0.46700000000E-02 0. -1.
         -1   -1    0    0    0  501 -0.00000000000E+00 -0.00000000000E+00 -0.34956304290E+02  0.34956304602E+02  0.46700000000E-02 0.  1.
         23    2    1    2    0    0  0.00000000000E+00  0.00000000000E+00  0.28317187552E+02  0.98229796617E+02  0.94059714185E+02 0.  0.
        -11    1    3    3    0    0  0.29566160960E+02  0.14669410246E+02 -0.20829850897E+02  0.39028606938E+02  0.51100000000E-03 0.  1.
         11    1    3    3    0    0 -0.29566160960E+02 -0.14669410246E+02  0.49147038449E+02  0.59201189679E+02  0.51100000000E-03 0. -1.
<mgrwt>
<rscale>  0 0.94059714E+02</rscale>
<asrwt>0</asrwt>
<pdfrwt beam="1">  1        1 0.97343834E-02 0.94059714E+02</pdfrwt>
<pdfrwt beam="2">  1       -1 0.53778930E-02 0.94059714E+02</pdfrwt>
<totfact> 0.89105758E+04</totfact>
</mgrwt>
</event>
<event>
 5   1  0.1357339E+00  0.9265165E+02  0.7818608E-02  0.1296554E+00
          1   -1    0    0  501    0  0.00000000000E+00  0.00000000000E+00  0.97074460214E+01  0.97074471447E+01  0.46700000000E-02 0. -1.
         -1   -1    0    0    0  501 -0.00000000000E+00 -0.00000000000E+00 -0.22107583709E+03  0.22107583714E+03  0.46700000000E-02 0.  1.
         23    2    1    2    0    0  0.00000000000E+00  0.00000000000E+00 -0.21136839107E+03  0.23078328429E+03  0.92651646300E+02 0.  0.
        -11    1    3    3    0    0 -0.28970898925E+02 -0.29644556945E+02 -0.54154516105E+02  0.68196952687E+02  0.51100000000E-03 0. -1.
         11    1    3    3    0    0  0.28970898925E+02  0.29644556945E+02 -0.15721387497E+03  0.16258633160E+03  0.51100000000E-03 0.  1.
<mgrwt>
<rscale>  0 0.92651646E+02</rscale>
<asrwt>0</asrwt>
<pdfrwt beam="1">  1        1 0.14934535E-02 0.92651646E+02</pdfrwt>
<pdfrwt beam="2">  1       -1 0.34011664E-01 0.92651646E+02</pdfrwt>
<totfact> 0.64624332E+04</totfact>
</mgrwt>
</event>
<event>
 5   1  0.1357339E+00  0.8532507E+02  0.7818608E-02  0.1314585E+00
         -1   -1    0    0    0  501 -0.00000000000E+00  0.00000000000E+00  0.11334797444E+02  0.11334798406E+02  0.46700000000E-02 0.  1.
          1   -1    0    0  501    0  0.00000000000E+00 -0.00000000000E+00 -0.16057559910E+03  0.16057559917E+03  0.46700000000E-02 0. -1.
         23    2    1    2    0    0  0.00000000000E+00  0.00000000000E+00 -0.14924080165E+03  0.17191039757E+03  0.85325072019E+02 0.  0.
        -11    1    3    3    0    0 -0.32351282104E+02  0.22127734062E+02 -0.10856493566E+03  0.11542351287E+03  0.51100000000E-03 0.  1.
         11    1    3    3    0    0  0.32351282104E+02 -0.22127734062E+02 -0.40675865994E+02  0.56486884700E+02  0.51100000000E-03 0. -1.
<mgrwt>
<rscale>  0 0.85325072E+02</rscale>
<asrwt>0</asrwt>
<pdfrwt beam="2">  1        1 0.24703937E-01 0.85325072E+02</pdfrwt>
<pdfrwt beam="1">  1       -1 0.17438152E-02 0.85325072E+02</pdfrwt>
<totfact> 0.13566138E+05</totfact>
</mgrwt>
</event>
<event>
 5   1  0.1357339E+00  0.9091481E+02  0.7818608E-02  0.1300651E+00
         -1   -1    0    0    0  501 -0.00000000000E+00  0.00000000000E+00  0.13713764092E+02  0.13713764887E+02  0.46700000000E-02 0. -1.
          1   -1    0    0  501    0  0.00000000000E+00 -0.00000000000E+00 -0.15067894972E+03  0.15067894980E+03  0.46700000000E-02 0.  1.
         23    2    1    2    0    0  0.00000000000E+00  0.00000000000E+00 -0.13696518563E+03  0.16439271468E+03  0.90914809388E+02 0.  0.
        -11    1    3    3    0    0 -0.24923570009E+02  0.76510194951E+01 -0.13581619732E+03  0.13829592148E+03  0.51100000000E-03 0.  1.
         11    1    3    3    0    0  0.24923570009E+02 -0.76510194951E+01 -0.11489883078E+01  0.26096793207E+02  0.51100000000E-03 0. -1.
<mgrwt>
<rscale>  0 0.90914809E+02</rscale>
<asrwt>0</asrwt>
<pdfrwt beam="2">  1        1 0.23181376E-01 0.90914809E+02</pdfrwt>
<pdfrwt beam="1">  1       -1 0.21098100E-02 0.90914809E+02</pdfrwt>
<totfact> 0.11310048E+05</totfact>
</mgrwt>
</event>
<event>
 5   1  0.1357339E+00  0.9505842E+02  0.7818608E-02  0.1291045E+00
         -1   -1    0    0    0  501 -0.00000000000E+00  0.00000000000E+00  0.22490527215E+02  0.22490527699E+02  0.46700000000E-02 0.  1.
          1   -1    0    0  501    0  0.00000000000E+00 -0.00000000000E+00 -0.10044343028E+03  0.10044343038E+03  0.46700000000E-02 0. -1.
         23    2    1    2    0    0  0.00000000000E+00  0.00000000000E+00 -0.77952903061E+02  0.12293395808E+03  0.95058418641E+02 0.  0.
        -11    1    3    3    0    0  0.32824184074E+02  0.25272528714E+02 -0.88435891157E+01  0.42359613271E+02  0.51100000000E-03 0.  1.
         11    1    3    3    0    0 -0.32824184074E+02 -0.25272528714E+02 -0.69109313945E+02  0.80574344813E+02  0.51100000000E-03 0. -1.
<mgrwt>
<rscale>  0 0.95058419E+02</rscale>
<asrwt>0</asrwt>
<pdfrwt beam="2">  1        1 0.15452835E-01 0.95058419E+02</pdfrwt>
<pdfrwt beam="1">  1       -1 0.34600812E-02 0.95058419E+02</pdfrwt>
<totfact> 0.93262808E+04</totfact>
</mgrwt>
</event>
<event>
 5   1  0.1357339E+00  0.9316524E+02  0.7818608E-02  0.1295363E+00
          1   -1    0    0  501    0  0.00000000000E+00  0.00000000000E+00  0.33826687811E+02  0.33826688133E+02  0.46700000000E-02 0. -1.
         -1   -1    0    0    0  501 -0.00000000000E+00 -0.00000000000E+00 -0.64148774392E+02  0.64148774562E+02  0.46700000000E-02 0.  1.
         23    2    1    2    0    0  0.00000000000E+00  0.00000000000E+00 -0.30322086582E+02  0.97975462695E+02  0.93165242208E+02 0.  0.
        -11    1    3    3    0    0 -0.29841000311E+02 -0.33781587175E+02 -0.27955586193E+01  0.45160780328E+02  0.51100000000E-03 0.  1.
         11    1    3    3    0    0  0.29841000311E+02  0.33781587175E+02 -0.27526527962E+02  0.52814682367E+02  0.51100000000E-03 0. -1.
<mgrwt>
<rscale>  0 0.93165242E+02</rscale>
<asrwt>0</asrwt>
<pdfrwt beam="1">  1        1 0.52041059E-02 0.93165242E+02</pdfrwt>
<pdfrwt beam="2">  1       -1 0.98690422E-02 0.93165242E+02</pdfrwt>
<totfact> 0.83067899E+04</totfact>
</mgrwt>
</event>
<event>
 5   1  0.1357339E+00  0.9025780E+02  0.7818608E-02  0.1302229E+00
         -1   -1    0    0    0  501 -0.00000000000E+00  0.00000000000E+00  0.75335338604E+02  0.75335338749E+02  0.46700000000E-02 0.  1.
          1   -1    0    0  501    0  0.00000000000E+00 -0.00000000000E+00 -0.27034028676E+02  0.27034029080E+02  0.46700000000E-02 0. -1.
         23    2    1    2    0    0  0.00000000000E+00  0.00000000000E+00  0.48301309928E+02  0.10236936783E+03  0.90257802593E+02 0.  0.
        -11    1    3    3    0    0 -0.31914256367E+02  0.28109849059E+02  0.41274061309E+02  0.59264082805E+02  0.51100000000E-03 0.  1.
         11    1    3    3    0    0  0.31914256367E+02 -0.28109849059E+02  0.70272486194E+01  0.43105285024E+02  0.51100000000E-03 0. -1.
<mgrwt>
<rscale>  0 0.90257803E+02</rscale>
<asrwt>0</asrwt>
<pdfrwt beam="2">  1        1 0.41590814E-02 0.90257803E+02</pdfrwt>
<pdfrwt beam="1">  1       -1 0.11590052E-01 0.90257803E+02</pdfrwt>
<totfact> 0.87746136E+04</totfact>
</mgrwt>
</event>
<event>
 5   1  0.1357339E+00  0.8093339E+02  0.7818608E-02  0.1326423E+00
          1   -1    0    0  501    0  0.00000000000E+00  0.00000000000E+00  0.14749584514E+02  0.14749585253E+02  0.46700000000E-02 0. -1.
         -1   -1    0    0    0  501 -0.00000000000E+00 -0.00000000000E+00 -0.11102368562E+03  0.11102368572E+03  0.46700000000E-02 0.  1.
         23    2    1    2    0    0  0.00000000000E+00  0.00000000000E+00 -0.96274101109E+02  0.12577327097E+03  0.80933387099E+02 0.  0.
        -11    1    3    3    0    0 -0.98526700558E+01  0.29962337667E+02 -0.87387833260E+01  0.32728933988E+02  0.51100000000E-03 0. -1.
         11    1    3    3    0    0  0.98526700558E+01 -0.29962337667E+02 -0.87535317783E+02  0.93044336987E+02  0.51100000000E-03 0.  1.
<mgrwt>
<rscale>  0 0.80933387E+02</rscale>
<asrwt>0</asrwt>
<pdfrwt beam="1">  1        1 0.22691670E-02 0.80933387E+02</pdfrwt>
<pdfrwt beam="2">  1       -1 0.17080567E-01 0.80933387E+02</pdfrwt>
<totfact> 0.10838690E+05</totfact>
</mgrwt>
</event>
<event>
 5   1  0.1357339E+00  0.9358635E+02  0.7818608E-02  0.1294392E+00
         -1   -1    0    0    0  501 -0.00000000000E+00  0.00000000000E+00  0.78889079631E+02  0.78889079769E+02  0.46700000000E-02 0.  1.
          1   -1    0    0  501    0  0.00000000000E+00 -0.00000000000E+00 -0.27755438949E+02  0.27755439342E+02  0.46700000000E-02 0. -1.
         23    2    1    2    0    0  0.00000000000E+00  0.00000000000E+00  0.51133640682E+02  0.10664451911E+03  0.93586346478E+02 0.  0.
        -11    1    3    3    0    0  0.18736572107E+02  0.58545643879E+01 -0.22836631060E+02  0.30113896741E+02  0.51100000000E-03 0. -1.
         11    1    3    3    0    0 -0.18736572107E+02 -0.58545643879E+01  0.73970271742E+02  0.76530622370E+02  0.51100000000E-03 0.  1.
<mgrwt>
<rscale>  0 0.93586346E+02</rscale>
<asrwt>0</asrwt>
<pdfrwt beam="2">  1        1 0.42700677E-02 0.93586346E+02</pdfrwt>
<pdfrwt beam="1">  1       -1 0.12136781E-01 0.93586346E+02</pdfrwt>
<totfact> 0.79365684E+04</totfact>
</mgrwt>
</event>
<event>
 5   1  0.1357339E+00  0.9107720E+02  0.7818608E-02  0.1300264E+00
          1   -1    0    0  501    0  0.00000000000E+00  0.00000000000E+00  0.21377904777E+02  0.21377905287E+02  0.46700000000E-02 0. -1.
         -1   -1    0    0    0  501 -0.00000000000E+00 -0.00000000000E+00 -0.97005020717E+02  0.97005020829E+02  0.46700000000E-02 0.  1.
         23    2    1    2    0    0  0.00000000000E+00  0.00000000000E+00 -0.75627115940E+02  0.11838292612E+03  0.91077200938E+02 0.  0.
        -11    1    3    3    0    0 -0.34433783391E+02 -0.13117787826E+00  0.92120593907E+00  0.34446353463E+02  0.51100000000E-03 0. -1.
         11    1    3    3    0    0  0.34433783391E+02  0.13117787826E+00 -0.76548321879E+02  0.83936572654E+02  0.51100000000E-03 0.  1.
<mgrwt>
<rscale>  0 0.91077201E+02</rscale>
<asrwt>0</asrwt>
<pdfrwt beam="1">  1        1 0.32889085E-02 0.91077201E+02</pdfrwt>
<pdfrwt beam="2">  1       -1 0.14923849E-01 0.91077201E+02</pdfrwt>
<totfact> 0.82059545E+04</totfact>
</mgrwt>
</event>
<event>
 5   1  0.1357339E+00  0.9359046E+02  0.7818608E-02  0.1294383E+00
          1   -1    0    0  501    0  0.00000000000E+00  0.00000000000E+00  0.30553243288E+03  0.30553243292E+03  0.46700000000E-02 0. -1.
         -1   -1    0    0    0  501 -0.00000000000E+00 -0.00000000000E+00 -0.71671382880E+01  0.71671398095E+01  0.46700000000E-02 0.  1.
         23    2    1    2    0    0  0.00000000000E+00  0.00000000000E+00  0.29836529459E+03  0.31269957273E+03  0.93590457663E+02 0.  0.
        -11    1    3    3    0    0  0.26939486881E+01 -0.46566529524E+02  0.16172615966E+03  0.16831829891E+03  0.51100000000E-03 0. -1.
         11    1    3    3    0    0 -0.26939486881E+01  0.46566529524E+02  0.13663913494E+03  0.14438127382E+03  0.51100000000E-03 0.  1.
<mgrwt>
<rscale>  0 0.93590458E+02</rscale>
<asrwt>0</asrwt>
<pdfrwt beam="1">  1        1 0.47004990E-01 0.93590458E+02</pdfrwt>
<pdfrwt beam="2">  1       -1 0.11026368E-02 0.93590458E+02</pdfrwt>
<totfact> 0.11990753E+05</totfact>
</mgrwt>
</event>
<event>
 5   1  0.1357339E+00  0.9091881E+02  0.7818608E-02  0.1300642E+00
          1   -1    0    0  501    0  0.00000000000E+00  0.00000000000E+00  0.85071950989E+01  0.85071963807E+01  0.46700000000E-02 0. -1.
         -1   -1    0    0    0  501 -0.00000000000E+00 -0.00000000000E+00 -0.24291875225E+03  0.24291875230E+03  0.46700000000E-02 0.  1.
         23    2    1    2    0    0  0.00000000000E+00  0.00000000000E+00 -0.23441155715E+03  0.25142594868E+03  0.90918807414E+02 0.  0.
        -11    1    3    3    0    0 -0.36216224880E+02  0.22652783058E+02 -0.16020682276E+03  0.16580406986E+03  0.51100000000E-03 0.  1.
         11    1    3    3    0    0  0.36216224880E+02 -0.22652783058E+02 -0.74204734398E+02  0.85621878817E+02  0.51100000000E-03 0. -1.
<mgrwt>
<rscale>  0 0.90918807E+02</rscale>
<asrwt>0</asrwt>
<pdfrwt beam="1">  1        1 0.13087995E-02 0.90918807E+02</pdfrwt>
<pdfrwt beam="2">  1       -1 0.37372111E-01 0.90918807E+02</pdfrwt>
<totfact> 0.65877109E+04</totfact>
</mgrwt>
</event>
<event>
 5   1  0.1357339E+00  0.8966051E+02  0.7818608E-02  0.1303676E+00
          1   -1    0    0  501    0  0.00000000000E+00  0.00000000000E+00  0.86218082212E+01  0.86218094860E+01  0.46700000000E-02 0. -1.
         -1   -1    0    0    0  501 -0.00000000000E+00 -0.00000000000E+00 -0.23310092069E+03  0.23310092074E+03  0.46700000000E-02 0.  1.
         23    2    1    2    0    0  0.00000000000E+00  0.00000000000E+00 -0.22447911247E+03  0.24172273022E+03  0.89660506198E+02 0.  0.
        -11    1    3    3    0    0  0.42774857634E+02 -0.10363617218E+02 -0.89259040396E+02  0.99520195438E+02  0.51100000000E-03 0.  1.
         11    1    3    3    0    0 -0.42774857634E+02  0.10363617218E+02 -0.13522007207E+03  0.14220253479E+03  0.51100000000E-03 0. -1.
<mgrwt>
<rscale>  0 0.89660506E+02</rscale>
<asrwt>0</asrwt>
<pdfrwt beam="1">  1        1 0.13264323E-02 0.89660506E+02</pdfrwt>
<pdfrwt beam="2">  1       -1 0.35861675E-01 0.89660506E+02</pdfrwt>
<totfact> 0.69238425E+04</totfact>
</mgrwt>
</event>
<event>
 5   1  0.1357339E+00  0.9163787E+02  0.7818608E-02  0.1298933E+00
         -1   -1    0    0    0  501 -0.00000000000E+00  0.00000000000E+00  0.22917361414E+02  0.22917361890E+02  0.46700000000E-02 0.  1.
          1   -1    0    0  501    0  0.00000000000E+00 -0.00000000000E+00 -0.91606304537E+02  0.91606304656E+02  0.46700000000E-02 0. -1.
         23    2    1    2    0    0  0.00000000000E+00  0.00000000000E+00 -0.68688943123E+02  0.11452366655E+03  0.91637870402E+02 0.  0.
        -11    1    3    3    0    0 -0.13624108522E+01  0.19770452084E+02  0.17284350809E+02  0.26295925960E+02  0.51100000000E-03 0.  1.
         11    1    3    3    0    0  0.13624108522E+01 -0.19770452084E+02 -0.85973293933E+02  0.88227740586E+02  0.51100000000E-03 0. -1.
<mgrwt>
<rscale>  0 0.91637870E+02</rscale>
<asrwt>0</asrwt>
<pdfrwt beam="2">  1        1 0.14093277E-01 0.91637870E+02</pdfrwt>
<pdfrwt beam="1">  1       -1 0.35257480E-02 0.91637870E+02</pdfrwt>
<totfact> 0.10154460E+05</totfact>
</mgrwt>
</event>
<event>
 5   1  0.1357339E+00  0.9061537E+02  0.7818608E-02  0.1301368E+00
         -1   -1    0    0    0  501 -0.00000000000E+00  0.00000000000E+00  0.17176541979E+03  0.17176541986E+03  0.46700000000E-02 0.  1.
          1   -1    0    0  501    0  0.00000000000E+00 -0.00000000000E+00 -0.11951103735E+02  0.11951104648E+02  0.46700000000E-02 0. -1.
         23    2    1    2    0    0  0.00000000000E+00  0.00000000000E+00  0.15981431606E+03  0.18371652451E+03  0.90615372642E+02 0.  0.
        -11    1    3    3    0    0 -0.27496550548E+02  0.30453785070E+02  0.11886832442E+03  0.12575043486E+03  0.51100000000E-03 0.  1.
         11    1    3    3    0    0  0.27496550548E+02 -0.30453785070E+02  0.40945991643E+02  0.57966089647E+02  0.51100000000E-03 0. -1.
<mgrwt>
<rscale>  0 0.90615373E+02</rscale>
<asrwt>0</asrwt>
<pdfrwt beam="2">  1        1 0.18386315E-02 0.90615373E+02</pdfrwt>
<pdfrwt beam="1">  1       -1 0.26425448E-01 0.90615373E+02</pdfrwt>
<totfact> 0.73517963E+04</totfact>
</mgrwt>
</event>
<event>
 5   1  0.1357339E+00  0.8667701E+02  0.7818608E-02  0.1311104E+00
          1   -1    0    0  501    0  0.00000000000E+00  0.00000000000E+00  0.24065563678E+03  0.24065563683E+03  0.46700000000E-02 0. -1.
         -1   -1    0    0    0  501 -0.00000000000E+00 -0.00000000000E+00 -0.78046200631E+01  0.78046214602E+01  0.46700000000E-02 0.  1.
         23    2    1    2    0    0  0.00000000000E+00  0.00000000000E+00  0.23285101672E+03  0.24846025829E+03  0.86677009416E+02 0.  0.
        -11    1    3    3    0    0  0.30617945878E+02 -0.14494163494E+02  0.38940338991E+02  0.51612880041E+02  0.51100000000E-03 0.  1.
         11    1    3    3    0    0 -0.30617945878E+02  0.14494163494E+02  0.19391067773E+03  0.19684737825E+03  0.51100000000E-03 0. -1.
<mgrwt>
<rscale>  0 0.86677009E+02</rscale>
<asrwt>0</asrwt>
<pdfrwt beam="1">  1        1 0.37023948E-01 0.86677009E+02</pdfrwt>
<pdfrwt beam="2">  1       -1 0.12007108E-02 0.86677009E+02</pdfrwt>
<totfact> 0.14047656E+05</totfact>
</mgrwt>
</event>
<event>
 5   1  0.1357339E+00  0.9258880E+02  0.7818608E-02  0.1296701E+00
          1   -1    0    0  501    0  0.00000000000E+00  0.00000000000E+00  0.42470546329E+01  0.42470572005E+01  0.46700000000E-02 0. -1.
         -1   -1    0    0    0  501 -0.00000000000E+00 -0.00000000000E+00 -0.50462522218E+03  0.50462522220E+03  0.46700000000E-02 0.  1.
         23    2    1    2    0    0  0.00000000000E+00  0.00000000000E+00 -0.50037816755E+03  0.50887227940E+03  0.92588801624E+02 0.  0.
        -11    1    3    3    0    0 -0.46151289062E+02 -0.25185273921E+01 -0.26461249607E+03  0.26861879596E+03  0.51100000000E-03 0.  1.
         11    1    3    3    0    0  0.46151289062E+02  0.25185273921E+01 -0.23576567147E+03  0.24025348345E+03  0.51100000000E-03 0. -1.
<mgrwt>
<rscale>  0 0.92588802E+02</rscale>
<asrwt>0</asrwt>
<pdfrwt beam="1">  1        1 0.65339362E-03 0.92588802E+02</pdfrwt>
<pdfrwt beam="2">  1       -1 0.77634602E-01 0.92588802E+02</pdfrwt>
<totfact> 0.44925221E+04</totfact>
</mgrwt>
</event>
<event>
 5   1  0.1357339E+00  0.8846268E+02  0.7818608E-02  0.1306618E+00
          1   -1    0    0  501    0  0.00000000000E+00  0.00000000000E+00  0.27030599277E+03  0.27030599281E+03  0.46700000000E-02 0. -1.
         -1   -1    0    0    0  501 -0.00000000000E+00 -0.00000000000E+00 -0.72377647110E+01  0.72377662176E+01  0.46700000000E-02 0.  1.
         23    2    1    2    0    0  0.00000000000E+00  0.00000000000E+00  0.26306822806E+03  0.27754375903E+03  0.88462678917E+02 0.  0.
        -11    1    3    3    0    0 -0.35810379032E+02 -0.25946500619E+02  0.13435298500E+03  0.14144372987E+03  0.51100000000E-03 0. -1.
         11    1    3    3    0    0  0.35810379032E+02  0.25946500619E+02  0.12871524306E+03  0.13610002916E+03  0.51100000000E-03 0.  1.
<mgrwt>
<rscale>  0 0.88462679E+02</rscale>
<asrwt>0</asrwt>
<pdfrwt beam="1">  1        1 0.41585533E-01 0.88462679E+02</pdfrwt>
<pdfrwt beam="2">  1       -1 0.11135025E-02 0.88462679E+02</pdfrwt>
<totfact> 0.13609182E+05</totfact>
</mgrwt>
</event>
<event>
 5   1  0.1357339E+00  0.9188085E+02  0.7818608E-02  0.1298360E+00
          1   -1    0    0  501    0  0.00000000000E+00  0.00000000000E+00  0.70717534238E+02  0.70717534392E+02  0.46700000000E-02 0. -1.
         -1   -1    0    0    0  501 -0.00000000000E+00 -0.00000000000E+00 -0.29844404755E+02  0.29844405121E+02  0.46700000000E-02 0.  1.
         23    2    1    2    0    0  0.00000000000E+00  0.00000000000E+00  0.40873129482E+02  0.10056193951E+03  0.91880852003E+02 0.  0.
        -11    1    3    3    0    0  0.43882590601E+01  0.33736581054E+02 -0.13352791489E+02  0.36547376918E+02  0.51100000000E-03 0.  1.
         11    1    3    3    0    0 -0.43882590601E+01 -0.33736581054E+02  0.54225920971E+02  0.64014562595E+02  0.51100000000E-03 0. -1.
<mgrwt>
<rscale>  0 0.91880852E+02</rscale>
<asrwt>0</asrwt>
<pdfrwt beam="1">  1        1 0.10879621E-01 0.91880852E+02</pdfrwt>
<pdfrwt beam="2">  1       -1 0.45914469E-02 0.91880852E+02</pdfrwt>
<totfact> 0.96745889E+04</totfact>
</mgrwt>
</event>
<event>
 5   1  0.1357339E+00  0.9309650E+02  0.7818608E-02  0.1295522E+00
         -1   -1    0    0    0  501 -0.00000000000E+00  0.00000000000E+00  0.13122736284E+02  0.13122737115E+02  0.46700000000E-02 0.  1.
          1   -1    0    0  501    0  0.00000000000E+00 -0.00000000000E+00 -0.16511339717E+03  0.16511339724E+03  0.46700000000E-02 0. -1.
         23    2    1    2    0    0  0.00000000000E+00  0.00000000000E+00 -0.15199066089E+03  0.17823613435E+03  0.93096501500E+02 0.  0.
        -11    1    3    3    0    0 -0.36126765778E+02  0.59144702902E+01 -0.13103985965E+03  0.13605722686E+03  0.51100000000E-03 0. -1.
         11    1    3    3    0    0  0.36126765778E+02 -0.59144702902E+01 -0.20950801243E+02  0.42178907493E+02  0.51100000000E-03 0.  1.
<mgrwt>
<rscale>  0 0.93096502E+02</rscale>
<asrwt>0</asrwt>
<pdfrwt beam="2">  1        1 0.25402060E-01 0.93096502E+02</pdfrwt>
<pdfrwt beam="1">  1       -1 0.20188827E-02 0.93096502E+02</pdfrwt>
<totfact> 0.10791048E+05</totfact>
</mgrwt>
</event>
<event>
 5   1  0.1357339E+00  0.9146295E+02  0.7818608E-02  0.1299347E+00
          1   -1    0    0  501    0  0.00000000000E+00  0.00000000000E+00  0.32544244779E+03  0.32544244783E+03  0.46700000000E-02 0. -1.
         -1   -1    0    0    0  501 -0.00000000000E+00 -0.00000000000E+00 -0.64262284524E+01  0.64262301493E+01  0.46700000000E-02 0.  1.
         23    2    1    2    0    0  0.00000000000E+00  0.00000000000E+00  0.31901621934E+03  0.33186867798E+03  0.91462949980E+02 0.  0.
        -11    1    3    3    0    0 -0.44924671907E+02 -0.81059612657E+01  0.16940190729E+03  0.17544497413E+03  0.51100000000E-03 0. -1.
         11    1    3    3    0    0  0.44924671907E+02  0.81059612657E+01  0.14961431205E+03  0.15642370385E+03  0.51100000000E-03 0.  1.
<mgrwt>
<rscale>  0 0.91462950E+02</rscale>
<asrwt>0</asrwt>
<pdfrwt beam="1">  1        1 0.50068065E-01 0.91462950E+02</pdfrwt>
<pdfrwt beam="2">  1       -1 0.98865075E-03 0.91462950E+02</pdfrwt>
<totfact> 0.12901724E+05</totfact>
</mgrwt>
</event>
<event>
 5   1  0.1357339E+00  0.8852938E+02  0.7818608E-02  0.1306453E+00
         -1   -1    0    0    0  501 -0.00000000000E+00  0.00000000000E+00  0.96935539430E+01  0.96935550679E+01  0.46700000000E-02 0.  1.
          1   -1    0    0  501    0  0.00000000000E+00 -0.00000000000E+00 -0.20213047220E+03  0.20213047226E+03  0.46700000000E-02 0. -1.
         23    2    1    2    0    0  0.00000000000E+00  0.00000000000E+00 -0.19243691826E+03  0.21182402733E+03  0.88529379546E+02 0.  0.
        -11    1    3    3    0    0  0.92671010577E+01 -0.31591654354E+02 -0.16701364322E+03  0.17022769695E+03  0.51100000000E-03 0. -1.
         11    1    3    3    0    0 -0.92671010577E+01  0.31591654354E+02 -0.25423275045E+02  0.41596330380E+02  0.51100000000E-03 0.  1.
<mgrwt>
<rscale>  0 0.88529380E+02</rscale>
<asrwt>0</asrwt>
<pdfrwt beam="2">  1        1 0.31096993E-01 0.88529380E+02</pdfrwt>
<pdfrwt beam="1">  1       -1 0.14913162E-02 0.88529380E+02</pdfrwt>
<totfact> 0.12838143E+05</totfact>
</mgrwt>
</event>
<event>
 5   1  0.1357339E+00  0.9109381E+02  0.7818608E-02  0.1300224E+00
          1   -1    0    0  501    0  0.00000000000E+00  0.00000000000E+00  0.35770544061E+03  0.35770544064E+03  0.46700000000E-02 0. -1.
         -1   -1    0    0    0  501 -0.00000000000E+00 -0.00000000000E+00 -0.57995213301E+01  0.57995232103E+01  0.46700000000E-02 0.  1.
         23    2    1    2    0    0  0.00000000000E+00  0.00000000000E+00  0.35190591928E+03  0.36350496385E+03  0.91093812742E+02 0.  0.
        -11    1    3    3    0    0 -0.38208723618E+02 -0.24224219406E+02  0.15491255332E+03  0.16138345189E+03  0.51100000000E-03 0. -1.
         11    1    3    3    0    0  0.38208723618E+02  0.24224219406E+02  0.19699336595E+03  0.20212151196E+03  0.51100000000E-03 0.  1.
<mgrwt>
<rscale>  0 0.91093813E+02</rscale>
<asrwt>0</asrwt>
<pdfrwt beam="1">  1        1 0.55031613E-01 0.91093813E+02</pdfrwt>
<pdfrwt beam="2">  1       -1 0.89223408E-03 0.91093813E+02</pdfrwt>
<totfact> 0.13266400E+05</totfact>
</mgrwt>
</event>
<event>
 5   1  0.1357339E+00  0.8625120E+02  0.7818608E-02  0.1312193E+00
          1   -1    0    0  501    0  0.00000000000E+00  0.00000000000E+00  0.14494821867E+02  0.14494822619E+02  0.46700000000E-02 0. -1.
         -1   -1    0    0    0  501 -0.00000000000E+00 -0.00000000000E+00 -0.12830908386E+03  0.12830908394E+03  0.46700000000E-02 0.  1.
         23    2    1    2    0    0  0.00000000000E+00  0.00000000000E+00 -0.11381426199E+03  0.14280390656E+03  0.86251199973E+02 0.  0.
        -11    1    3    3    0    0 -0.17191127079E+02  0.30154830034E+02 -0.99279742549E+02  0.10517279071E+03  0.51100000000E-03 0.  1.
         11    1    3    3    0    0  0.17191127079E+02 -0.30154830034E+02 -0.14534519441E+02  0.37631115852E+02  0.51100000000E-03 0. -1.
<mgrwt>
<rscale>  0 0.86251200E+02</rscale>
<asrwt>0</asrwt>
<pdfrwt beam="1">  1        1 0.22299727E-02 0.86251200E+02</pdfrwt>
<pdfrwt beam="2">  1       -1 0.19739858E-01 0.86251200E+02</pdfrwt>
<totfact> 0.89387913E+04</totfact>
</mgrwt>
</event>
<event>
 5   1  0.1357339E+00  0.8956651E+02  0.7818608E-02  0.1303905E+00
          1   -1    0    0  501    0  0.00000000000E+00  0.00000000000E+00  0.16672516702E+03  0.16672516709E+03  0.46700000000E-02 0. -1.
         -1   -1    0    0    0  501 -0.00000000000E+00 -0.00000000000E+00 -0.12029016566E+02  0.12029017473E+02  0.46700000000E-02 0.  1.
         23    2    1    2    0    0  0.00000000000E+00  0.00000000000E+00  0.15469615046E+03  0.17875418456E+03  0.89566508985E+02 0.  0.
        -11    1    3    3    0    0  0.27196032526E+02  0.27848559733E+02  0.12154316600E+03  0.12762408733E+03  0.51100000000E-03 0. -1.
         11    1    3    3    0    0 -0.27196032526E+02 -0.27848559733E+02  0.33152984452E+02  0.51130097229E+02  0.51100000000E-03 0.  1.
<mgrwt>
<rscale>  0 0.89566509E+02</rscale>
<asrwt>0</asrwt>
<pdfrwt beam="1">  1        1 0.25650023E-01 0.89566509E+02</pdfrwt>
<pdfrwt beam="2">  1       -1 0.18506182E-02 0.89566509E+02</pdfrwt>
<totfact> 0.11996478E+05</totfact>
</mgrwt>
</event>
<event>
 5   1  0.1357339E+00  0.9009223E+02  0.7818608E-02  0.1302629E+00
          1   -1    0    0  501    0  0.00000000000E+00  0.00000000000E+00  0.51374212350E+02  0.51374212562E+02  0.46700000000E-02 0. -1.
         -1   -1    0    0    0  501 -0.00000000000E+00 -0.00000000000E+00 -0.39497489626E+02  0.39497489902E+02  0.46700000000E-02 0.  1.
         23    2    1    2    0    0  0.00000000000E+00  0.00000000000E+00  0.11876722724E+02  0.90871702464E+02  0.90092229221E+02 0.  0.
        -11    1    3    3    0    0  0.96406916698E+01  0.18849040116E+02  0.46043194775E+02  0.50677460814E+02  0.51100000000E-03 0. -1.
         11    1    3    3    0    0 -0.96406916698E+01 -0.18849040116E+02 -0.34166472051E+02  0.40194241650E+02  0.51100000000E-03 0.  1.
<mgrwt>
<rscale>  0 0.90092229E+02</rscale>
<asrwt>0</asrwt>
<pdfrwt beam="1">  1        1 0.79037250E-02 0.90092229E+02</pdfrwt>
<pdfrwt beam="2">  1       -1 0.60765369E-02 0.90092229E+02</pdfrwt>
<totfact> 0.97339251E+04</totfact>
</mgrwt>
</event>
<event>
 5   1  0.1357339E+00  0.9098208E+02  0.7818608E-02  0.1300491E+00
         -1   -1    0    0    0  501 -0.00000000000E+00  0.00000000000E+00  0.33328895847E+02  0.33328896174E+02  0.46700000000E-02 0.  1.
          1   -1    0    0  501    0  0.00000000000E+00 -0.00000000000E+00 -0.62091307792E+02  0.62091307967E+02  0.46700000000E-02 0. -1.
         23    2    1    2    0    0  0.00000000000E+00  0.00000000000E+00 -0.28762411945E+02  0.95420204141E+02  0.90982080750E+02 0.  0.
        -11    1    3    3    0    0  0.31763281567E+02  0.26450449428E+02  0.55429244316E+01  0.41704392363E+02  0.51100000000E-03 0. -1.
         11    1    3    3    0    0 -0.31763281567E+02 -0.26450449428E+02 -0.34305336376E+02  0.53715811778E+02  0.51100000000E-03 0.  1.
<mgrwt>
<rscale>  0 0.90982081E+02</rscale>
<asrwt>0</asrwt>
<pdfrwt beam="2">  1        1 0.95525090E-02 0.90982081E+02</pdfrwt>
<pdfrwt beam="1">  1       -1 0.51275225E-02 0.90982081E+02</pdfrwt>
<totfact> 0.97448878E+04</totfact>
</mgrwt>
</event>
<event>
 5   1  0.1357339E+00  0.9167331E+02  0.7818608E-02  0.1298849E+00
         -1   -1    0    0    0  501 -0.00000000000E+00  0.00000000000E+00  0.11875060739E+03  0.11875060748E+03  0.46700000000E-02 0.  1.
          1   -1    0    0  501    0  0.00000000000E+00 -0.00000000000E+00 -0.17692531855E+02  0.17692532471E+02  0.46700000000E-02 0. -1.
         23    2    1    2    0    0  0.00000000000E+00  0.00000000000E+00  0.10105807554E+03  0.13644313995E+03  0.91673310234E+02 0.  0.
        -11    1    3    3    0    0 -0.98830140597E+01  0.29620784233E+02  0.58711221233E+00  0.31231546976E+02  0.51100000000E-03 0. -1.
         11    1    3    3    0    0  0.98830140597E+01 -0.29620784233E+02  0.10047096332E+03  0.10521159298E+03  0.51100000000E-03 0.  1.
<mgrwt>
<rscale>  0 0.91673310E+02</rscale>
<asrwt>0</asrwt>
<pdfrwt beam="2">  1        1 0.27219281E-02 0.91673310E+02</pdfrwt>
<pdfrwt beam="1">  1       -1 0.18269324E-01 0.91673310E+02</pdfrwt>
<totfact> 0.77600409E+04</totfact>
</mgrwt>
</event>
<event>
 5   1  0.1357339E+00  0.9185322E+02  0.7818608E-02  0.1298425E+00
          1   -1    0    0  501    0  0.00000000000E+00  0.00000000000E+00  0.26404297994E+02  0.26404298407E+02  0.46700000000E-02 0. -1.
         -1   -1    0    0    0  501 -0.00000000000E+00 -0.00000000000E+00 -0.79882962707E+02  0.79882962844E+02  0.46700000000E-02 0.  1.
         23    2    1    2    0    0  0.00000000000E+00  0.00000000000E+00 -0.53478664713E+02  0.10628726125E+03  0.91853221635E+02 0.  0.
        -11    1    3    3    0    0  0.28390650480E+02 -0.36098533882E+02 -0.27140842162E+02  0.53345651150E+02  0.51100000000E-03 0.  1.
         11    1    3    3    0    0 -0.28390650480E+02  0.36098533882E+02 -0.26337822551E+02  0.52941610101E+02  0.51100000000E-03 0. -1.
<mgrwt>
<rscale>  0 0.91853222E+02</rscale>
<asrwt>0</asrwt>
<pdfrwt beam="1">  1        1 0.40621998E-02 0.91853222E+02</pdfrwt>
<pdfrwt beam="2">  1       -1 0.12289687E-01 0.91853222E+02</pdfrwt>
<totfact> 0.83082962E+04</totfact>
</mgrwt>
</event>
<event>
 5   1  0.1357339E+00  0.9071039E+02  0.7818608E-02  0.1301140E+00
         -1   -1    0    0    0  501 -0.00000000000E+00  0.00000000000E+00  0.61945106423E+01  0.61945124026E+01  0.46700000000E-02 0.  1.
          1   -1    0    0  501    0  0.00000000000E+00 -0.00000000000E+00 -0.33208326631E+03  0.33208326635E+03  0.46700000000E-02 0. -1.
         23    2    1    2    0    0  0.00000000000E+00  0.00000000000E+00 -0.32588875567E+03  0.33827777875E+03  0.90710388173E+02 0.  0.
        -11    1    3    3    0    0  0.32704950620E+02 -0.29789853271E+02 -0.12564401944E+03  0.13320461243E+03  0.51100000000E-03 0.  1.
         11    1    3    3    0    0 -0.32704950620E+02  0.29789853271E+02 -0.20024473623E+03  0.20507316632E+03  0.51100000000E-03 0. -1.
<mgrwt>
<rscale>  0 0.90710388E+02</rscale>
<asrwt>0</asrwt>
<pdfrwt beam="2">  1        1 0.51089720E-01 0.90710388E+02</pdfrwt>
<pdfrwt beam="1">  1       -1 0.95300203E-03 0.90710388E+02</pdfrwt>
<totfact> 0.13237754E+05</totfact>
</mgrwt>
</event>
<event>
 5   1  0.1357339E+00  0.9150315E+02  0.7818608E-02  0.1299252E+00
         -1   -1    0    0    0  501 -0.00000000000E+00  0.00000000000E+00  0.30516226912E+02  0.30516227269E+02  0.46700000000E-02 0.  1.
          1   -1    0    0  501    0  0.00000000000E+00 -0.00000000000E+00 -0.68593223385E+02  0.68593223544E+02  0.46700000000E-02 0. -1.
         23    2    1    2    0    0  0.00000000000E+00  0.00000000000E+00 -0.38076996473E+02  0.99109450813E+02  0.91503145192E+02 0.  0.
        -11    1    3    3    0    0 -0.18586352008E+02  0.41799246242E+02 -0.19861194726E+02  0.49870798305E+02  0.51100000000E-03 0. -1.
         11    1    3    3    0    0  0.18586352008E+02 -0.41799246242E+02 -0.18215801746E+02  0.49238652508E+02  0.51100000000E-03 0.  1.
<mgrwt>
<rscale>  0 0.91503145E+02</rscale>
<asrwt>0</asrwt>
<pdfrwt beam="2">  1        1 0.10552804E-01 0.91503145E+02</pdfrwt>
<pdfrwt beam="1">  1       -1 0.46948042E-02 0.91503145E+02</pdfrwt>
<totfact> 0.97392551E+04</totfact>
</mgrwt>
</event>
<event>
 5   1  0.1357339E+00  0.9177738E+02  0.7818608E-02  0.1298604E+00
          1   -1    0    0  501    0  0.00000000000E+00  0.00000000000E+00  0.23447288263E+03  0.23447288267E+03  0.46700000000E-02 0. -1.
         -1   -1    0    0    0  501 -0.00000000000E+00 -0.00000000000E+00 -0.89808751383E+01  0.89808763525E+01  0.46700000000E-02 0.  1.
         23    2    1    2    0    0  0.00000000000E+00  0.00000000000E+00  0.22549200749E+03  0.24345375903E+03  0.91777379253E+02 0.  0.
        -11    1    3    3    0    0  0.36129795151E+02 -0.23327946249E+02  0.70285561170E+02  0.82399121859E+02  0.51100000000E-03 0.  1.
         11    1    3    3    0    0 -0.36129795151E+02  0.23327946249E+02  0.15520644632E+03  0.16105463717E+03  0.51100000000E-03 0. -1.
<mgrwt>
<rscale>  0 0.91777379E+02</rscale>
<asrwt>0</asrwt>
<pdfrwt beam="1">  1        1 0.36072744E-01 0.91777379E+02</pdfrwt>
<pdfrwt beam="2">  1       -1 0.13816735E-02 0.91777379E+02</pdfrwt>
<totfact> 0.12000555E+05</totfact>
</mgrwt>
</event>
<event>
 5   1  0.1357339E+00  0.9589689E+02  0.7818608E-02  0.1289169E+00
         -1   -1    0    0    0  501 -0.00000000000E+00  0.00000000000E+00  0.66804715756E+02  0.66804715920E+02  0.46700000000E-02 0.  1.
          1   -1    0    0  501    0  0.00000000000E+00 -0.00000000000E+00 -0.34414534011E+02  0.34414534328E+02  0.46700000000E-02 0. -1.
         23    2    1    2    0    0  0.00000000000E+00  0.00000000000E+00  0.32390181745E+02  0.10121925025E+03  0.95896886014E+02 0.  0.
        -11    1    3    3    0    0  0.13382982132E+02  0.18090200331E+02  0.60885224019E+02  0.64910477297E+02  0.51100000000E-03 0.  1.
         11    1    3    3    0    0 -0.13382982132E+02 -0.18090200331E+02 -0.28495042274E+02  0.36308772951E+02  0.51100000000E-03 0. -1.
<mgrwt>
<rscale>  0 0.95896886E+02</rscale>
<asrwt>0</asrwt>
<pdfrwt beam="2">  1        1 0.52945438E-02 0.95896886E+02</pdfrwt>
<pdfrwt beam="1">  1       -1 0.10277648E-01 0.95896886E+02</pdfrwt>
<totfact> 0.76668980E+04</totfact>
</mgrwt>
</event>
<event>
 5   1  0.1357339E+00  0.8649432E+02  0.7818608E-02  0.1311570E+00
          1   -1    0    0  501    0  0.00000000000E+00  0.00000000000E+00  0.10952869626E+03  0.10952869636E+03  0.46700000000E-02 0. -1.
         -1   -1    0    0    0  501 -0.00000000000E+00 -0.00000000000E+00 -0.17076043566E+02  0.17076044204E+02  0.46700000000E-02 0.  1.
         23    2    1    2    0    0  0.00000000000E+00  0.00000000000E+00  0.92452652698E+02  0.12660474057E+03  0.86494319716E+02 0.  0.
        -11    1    3    3    0    0  0.42791676152E+02  0.53022169644E+01  0.41354973398E+02  0.59745082456E+02  0.51100000000E-03 0.  1.
         11    1    3    3    0    0 -0.42791676152E+02 -0.53022169644E+01  0.51097679301E+02  0.66859658112E+02  0.51100000000E-03 0. -1.
<mgrwt>
<rscale>  0 0.86494320E+02</rscale>
<asrwt>0</asrwt>
<pdfrwt beam="1">  1        1 0.16850568E-01 0.86494320E+02</pdfrwt>
<pdfrwt beam="2">  1       -1 0.26270838E-02 0.86494320E+02</pdfrwt>
<totfact> 0.12233670E+05</totfact>
</mgrwt>
</event>
<event>
 5   1  0.1357339E+00  0.7783275E+02  0.7818608E-02  0.1335317E+00
          1   -1    0    0  501    0  0.00000000000E+00  0.00000000000E+00  0.11755706266E+03  0.11755706276E+03  0.46700000000E-02 0. -1.
         -1   -1    0    0    0  501 -0.00000000000E+00 -0.00000000000E+00 -0.12882970102E+02  0.12882970949E+02  0.46700000000E-02 0.  1.
         23    2    1    2    0    0  0.00000000000E+00  0.00000000000E+00  0.10467409256E+03  0.13044003371E+03  0.77832748503E+02 0.  0.
        -11    1    3    3    0    0  0.58680132500E+01 -0.20279458826E+02 -0.24522308341E+01  0.21253316591E+02  0.51100000000E-03 0.  1.
         11    1    3    3    0    0 -0.58680132500E+01  0.20279458826E+02  0.10712632340E+03  0.10918671712E+03  0.51100000000E-03 0. -1.
<mgrwt>
<rscale>  0 0.77832749E+02</rscale>
<asrwt>0</asrwt>
<pdfrwt beam="1">  1        1 0.18085703E-01 0.77832749E+02</pdfrwt>
<pdfrwt beam="2">  1       -1 0.19819954E-02 0.77832749E+02</pdfrwt>
<totfact> 0.16422003E+05</totfact>
</mgrwt>
</event>
<event>
 5   1  0.1357339E+00  0.9204658E+02  0.7818608E-02  0.1297970E+00
         -1   -1    0    0    0  501 -0.00000000000E+00  0.00000000000E+00  0.52321001280E+02  0.52321001488E+02  0.46700000000E-02 0.  1.
          1   -1    0    0  501    0  0.00000000000E+00 -0.00000000000E+00 -0.40483615387E+02  0.40483615657E+02  0.46700000000E-02 0. -1.
         23    2    1    2    0    0  0.00000000000E+00  0.00000000000E+00  0.11837385892E+02  0.92804617145E+02  0.92046582004E+02 0.  0.
        -11    1    3    3    0    0  0.43360998180E+02  0.98141923973E+01 -0.60809503001E+01  0.44871733780E+02  0.51100000000E-03 0.  1.
         11    1    3    3    0    0 -0.43360998180E+02 -0.98141923973E+01  0.17918336193E+02  0.47932883366E+02  0.51100000000E-03 0. -1.
<mgrwt>
<rscale>  0 0.92046582E+02</rscale>
<asrwt>0</asrwt>
<pdfrwt beam="2">  1        1 0.62282486E-02 0.92046582E+02</pdfrwt>
<pdfrwt beam="1">  1       -1 0.80493848E-02 0.92046582E+02</pdfrwt>
<totfact> 0.88423033E+04</totfact>
</mgrwt>
</event>
<event>
 5   1  0.1357339E+00  0.9321582E+02  0.7818608E-02  0.1295246E+00
          1   -1    0    0  501    0  0.00000000000E+00  0.00000000000E+00  0.34808114328E+02  0.34808114641E+02  0.46700000000E-02 0.  1.
         -1   -1    0    0    0  501 -0.00000000000E+00 -0.00000000000E+00 -0.62407780032E+02  0.62407780206E+02  0.46700000000E-02 0. -1.
         23    2    1    2    0    0  0.00000000000E+00  0.00000000000E+00 -0.27599665704E+02  0.97215894847E+02  0.93215817671E+02 0.  0.
        -11    1    3    3    0    0  0.37348163033E+02  0.27611818281E+02 -0.97607361970E+01  0.47461244844E+02  0.51100000000E-03 0.  1.
         11    1    3    3    0    0 -0.37348163033E+02 -0.27611818281E+02 -0.17838929507E+02  0.49754650004E+02  0.51100000000E-03 0. -1.
<mgrwt>
<rscale>  0 0.93215818E+02</rscale>
<asrwt>0</asrwt>
<pdfrwt beam="1">  1        1 0.53550946E-02 0.93215818E+02</pdfrwt>
<pdfrwt beam="2">  1       -1 0.96011969E-02 0.93215818E+02</pdfrwt>
<totfact> 0.83318452E+04</totfact>
</mgrwt>
</event>
<event>
 5   1  0.1357339E+00  0.9094524E+02  0.7818608E-02  0.1300579E+00
         -1   -1    0    0    0  501 -0.00000000000E+00  0.00000000000E+00  0.12829712018E+03  0.12829712027E+03  0.46700000000E-02 0.  1.
          1   -1    0    0  501    0  0.00000000000E+00 -0.00000000000E+00 -0.16116956314E+02  0.16116956991E+02  0.46700000000E-02 0. -1.
         23    2    1    2    0    0  0.00000000000E+00  0.00000000000E+00  0.11218016387E+03  0.14441407726E+03  0.90945239264E+02 0.  0.
        -11    1    3    3    0    0 -0.32876977478E+02  0.30711100682E+02  0.66586217768E+02  0.80360386697E+02  0.51100000000E-03 0.  1.
         11    1    3    3    0    0  0.32876977478E+02 -0.30711100682E+02  0.45593946101E+02  0.64053690561E+02  0.51100000000E-03 0. -1.
<mgrwt>
<rscale>  0 0.90945239E+02</rscale>
<asrwt>0</asrwt>
<pdfrwt beam="2">  1        1 0.24795317E-02 0.90945239E+02</pdfrwt>
<pdfrwt beam="1">  1       -1 0.19738020E-01 0.90945239E+02</pdfrwt>
<totfact> 0.77954264E+04</totfact>
</mgrwt>
</event>
<event>
 5   1  0.1357339E+00  0.9125018E+02  0.7818608E-02  0.1299852E+00
         -1   -1    0    0    0  501 -0.00000000000E+00  0.00000000000E+00  0.10932458220E+03  0.10932458230E+03  0.46700000000E-02 0.  1.
          1   -1    0    0  501    0  0.00000000000E+00 -0.00000000000E+00 -0.19040996536E+02  0.19040997109E+02  0.46700000000E-02 0. -1.
         23    2    1    2    0    0  0.00000000000E+00  0.00000000000E+00  0.90283585665E+02  0.12836557941E+03  0.91250184309E+02 0.  0.
        -11    1    3    3    0    0  0.36377896637E+00 -0.29823536821E+02 -0.34280082298E+01  0.30022107260E+02  0.51100000000E-03 0. -1.
         11    1    3    3    0    0 -0.36377896637E+00  0.29823536821E+02  0.93711593894E+02  0.98343472148E+02  0.51100000000E-03 0.  1.
<mgrwt>
<rscale>  0 0.91250184E+02</rscale>
<asrwt>0</asrwt>
<pdfrwt beam="2">  1        1 0.29293841E-02 0.91250184E+02</pdfrwt>
<pdfrwt beam="1">  1       -1 0.16819166E-01 0.91250184E+02</pdfrwt>
<totfact> 0.79837285E+04</totfact>
</mgrwt>
</event>
<event>
 5   1  0.1357339E+00  0.8015792E+02  0.7818608E-02  0.1328604E+00
          1   -1    0    0  501    0  0.00000000000E+00  0.00000000000E+00  0.40702606284E+02  0.40702606552E+02  0.46700000000E-02 0. -1.
         -1   -1    0    0    0  501 -0.00000000000E+00 -0.00000000000E+00 -0.39464866117E+02  0.39464866393E+02  0.46700000000E-02 0.  1.
         23    2    1    2    0    0  0.00000000000E+00  0.00000000000E+00  0.12377401674E+01  0.80167472945E+02  0.80157917373E+02 0.  0.
        -11    1    3    3    0    0 -0.25688801981E+02  0.13526381078E+01  0.31356533799E+02  0.40558308510E+02  0.51100000000E-03 0. -1.
         11    1    3    3    0    0  0.25688801981E+02 -0.13526381078E+01 -0.30118793632E+02  0.39609164434E+02  0.51100000000E-03 0.  1.
<mgrwt>
<rscale>  0 0.80157917E+02</rscale>
<asrwt>0</asrwt>
<pdfrwt beam="1">  1        1 0.62619394E-02 0.80157917E+02</pdfrwt>
<pdfrwt beam="2">  1       -1 0.60715179E-02 0.80157917E+02</pdfrwt>
<totfact> 0.13021817E+05</totfact>
</mgrwt>
</event>
<event>
 5   1  0.1357339E+00  0.8857173E+02  0.7818608E-02  0.1306348E+00
         -1   -1    0    0    0  501 -0.00000000000E+00  0.00000000000E+00  0.88811476768E+02  0.88811476891E+02  0.46700000000E-02 0.  1.
          1   -1    0    0  501    0  0.00000000000E+00 -0.00000000000E+00 -0.22083157915E+02  0.22083158409E+02  0.46700000000E-02 0. -1.
         23    2    1    2    0    0  0.00000000000E+00  0.00000000000E+00  0.66728318853E+02  0.11089463530E+03  0.88571731390E+02 0.  0.
        -11    1    3    3    0    0 -0.18949381556E+02 -0.31799906143E+02  0.29285842107E+01  0.37133404069E+02  0.51100000000E-03 0. -1.
         11    1    3    3    0    0  0.18949381556E+02  0.31799906143E+02  0.63799734642E+02  0.73761231231E+02  0.51100000000E-03 0.  1.
<mgrwt>
<rscale>  0 0.88571731E+02</rscale>
<asrwt>0</asrwt>
<pdfrwt beam="2">  1        1 0.33974090E-02 0.88571731E+02</pdfrwt>
<pdfrwt beam="1">  1       -1 0.13663304E-01 0.88571731E+02</pdfrwt>
<totfact> 0.89552245E+04</totfact>
</mgrwt>
</event>
<event>
 5   1  0.1357339E+00  0.6749445E+02  0.7818608E-02  0.1368827E+00
         -1   -1    0    0    0  501 -0.00000000000E+00  0.00000000000E+00  0.24682224397E+02  0.24682224839E+02  0.46700000000E-02 0.  1.
          1   -1    0    0  501    0  0.00000000000E+00 -0.00000000000E+00 -0.46141518442E+02  0.46141518678E+02  0.46700000000E-02 0. -1.
         23    2    1    2    0    0  0.00000000000E+00  0.00000000000E+00 -0.21459294045E+02  0.70823743517E+02  0.67494454179E+02 0.  0.
        -11    1    3    3    0    0  0.55176296198E+01 -0.33016432607E+02 -0.62351120385E+01  0.34050046712E+02  0.51100000000E-03 0. -1.
         11    1    3    3    0    0 -0.55176296198E+01  0.33016432607E+02 -0.15224182006E+02  0.36773696805E+02  0.51100000000E-03 0.  1.
<mgrwt>
<rscale>  0 0.67494454E+02</rscale>
<asrwt>0</asrwt>
<pdfrwt beam="2">  1        1 0.70986952E-02 0.67494454E+02</pdfrwt>
<pdfrwt beam="1">  1       -1 0.37972654E-02 0.67494454E+02</pdfrwt>
<totfact> 0.21104918E+05</totfact>
</mgrwt>
</event>
<event>
 5   1  0.1357339E+00  0.8984776E+02  0.7818608E-02  0.1303221E+00
         -1   -1    0    0    0  501 -0.00000000000E+00  0.00000000000E+00  0.21311217746E+02  0.21311218257E+02  0.46700000000E-02 0.  1.
          1   -1    0    0  501    0  0.00000000000E+00 -0.00000000000E+00 -0.94699184198E+02  0.94699184313E+02  0.46700000000E-02 0. -1.
         23    2    1    2    0    0  0.00000000000E+00  0.00000000000E+00 -0.73387966452E+02  0.11601040257E+03  0.89847759485E+02 0.  0.
        -11    1    3    3    0    0  0.22143188707E+02 -0.26607888135E+02  0.27674986859E+00  0.34617583796E+02  0.51100000000E-03 0.  1.
         11    1    3    3    0    0 -0.22143188707E+02  0.26607888135E+02 -0.73664716320E+02  0.81392818774E+02  0.51100000000E-03 0. -1.
<mgrwt>
<rscale>  0 0.89847759E+02</rscale>
<asrwt>0</asrwt>
<pdfrwt beam="2">  1        1 0.14569105E-01 0.89847759E+02</pdfrwt>
<pdfrwt beam="1">  1       -1 0.32786490E-02 0.89847759E+02</pdfrwt>
<totfact> 0.10774355E+05</totfact>
</mgrwt>
</event>
<event>
 5   1  0.1357339E+00  0.8999297E+02  0.7818608E-02  0.1302869E+00
          1   -1    0    0  501    0  0.00000000000E+00  0.00000000000E+00  0.59562438536E+02  0.59562438719E+02  0.46700000000E-02 0. -1.
         -1   -1    0    0    0  501 -0.00000000000E+00 -0.00000000000E+00 -0.33992623863E+02  0.33992624184E+02  0.46700000000E-02 0.  1.
         23    2    1    2    0    0  0.00000000000E+00  0.00000000000E+00  0.25569814674E+02  0.93555062903E+02  0.89992968461E+02 0.  0.
        -11    1    3    3    0    0  0.26476379781E+02  0.36341045771E+02  0.14589502620E+02  0.47270750798E+02  0.51100000000E-03 0.  1.
         11    1    3    3    0    0 -0.26476379781E+02 -0.36341045771E+02  0.10980312053E+02  0.46284312105E+02  0.51100000000E-03 0. -1.
<mgrwt>
<rscale>  0 0.89992968E+02</rscale>
<asrwt>0</asrwt>
<pdfrwt beam="1">  1        1 0.91634521E-02 0.89992968E+02</pdfrwt>
<pdfrwt beam="2">  1       -1 0.52296345E-02 0.89992968E+02</pdfrwt>
<totfact> 0.99813121E+04</totfact>
</mgrwt>
</event>
<event>
 5   1  0.1357339E+00  0.9202501E+02  0.7818608E-02  0.1298021E+00
          1   -1    0    0  501    0  0.00000000000E+00  0.00000000000E+00  0.53831357200E+02  0.53831357403E+02  0.46700000000E-02 0. -1.
         -1   -1    0    0    0  501 -0.00000000000E+00 -0.00000000000E+00 -0.39329315355E+02  0.39329315633E+02  0.46700000000E-02 0.  1.
         23    2    1    2    0    0  0.00000000000E+00  0.00000000000E+00  0.14502041845E+02  0.93160673036E+02  0.92025006290E+02 0.  0.
        -11    1    3    3    0    0  0.34333914239E+02 -0.79738747280E+01  0.37192190577E+02  0.51241188367E+02  0.51100000000E-03 0. -1.
         11    1    3    3    0    0 -0.34333914239E+02  0.79738747280E+01 -0.22690148732E+02  0.41919484668E+02  0.51100000000E-03 0.  1.
<mgrwt>
<rscale>  0 0.92025006E+02</rscale>
<asrwt>0</asrwt>
<pdfrwt beam="1">  1        1 0.82817472E-02 0.92025006E+02</pdfrwt>
<pdfrwt beam="2">  1       -1 0.60506640E-02 0.92025006E+02</pdfrwt>
<totfact> 0.92390228E+04</totfact>
</mgrwt>
</event>
<event>
 5   1  0.1357339E+00  0.8921663E+02  0.7818608E-02  0.1304760E+00
          1   -1    0    0  501    0  0.00000000000E+00  0.00000000000E+00  0.29887756150E+02  0.29887756515E+02  0.46700000000E-02 0. -1.
         -1   -1    0    0    0  501 -0.00000000000E+00 -0.00000000000E+00 -0.66579160472E+02  0.66579160636E+02  0.46700000000E-02 0.  1.
         23    2    1    2    0    0  0.00000000000E+00  0.00000000000E+00 -0.36691404322E+02  0.96466917151E+02  0.89216629355E+02 0.  0.
        -11    1    3    3    0    0 -0.19746346914E+01 -0.38613385022E+02  0.57111699376E+01  0.39083374309E+02  0.51100000000E-03 0. -1.
         11    1    3    3    0    0  0.19746346914E+01  0.38613385022E+02 -0.42402574260E+02  0.57383542842E+02  0.51100000000E-03 0.  1.
<mgrwt>
<rscale>  0 0.89216629E+02</rscale>
<asrwt>0</asrwt>
<pdfrwt beam="1">  1        1 0.45981164E-02 0.89216629E+02</pdfrwt>
<pdfrwt beam="2">  1       -1 0.10242948E-01 0.89216629E+02</pdfrwt>
<totfact> 0.92194525E+04</totfact>
</mgrwt>
</event>
<event>
 5   1  0.1357339E+00  0.9199756E+02  0.7818608E-02  0.1298085E+00
         -1   -1    0    0    0  501 -0.00000000000E+00  0.00000000000E+00  0.12845598337E+02  0.12845599186E+02  0.46700000000E-02 0.  1.
          1   -1    0    0  501    0  0.00000000000E+00 -0.00000000000E+00 -0.16471692678E+03  0.16471692685E+03  0.46700000000E-02 0. -1.
         23    2    1    2    0    0  0.00000000000E+00  0.00000000000E+00 -0.15187132845E+03  0.17756252604E+03  0.91997555664E+02 0.  0.
        -11    1    3    3    0    0  0.82318393006E+01  0.33350615087E+02 -0.16890998567E+02  0.38279662196E+02  0.51100000000E-03 0.  1.
         11    1    3    3    0    0 -0.82318393006E+01 -0.33350615087E+02 -0.13498032988E+03  0.13928286384E+03  0.51100000000E-03 0. -1.
<mgrwt>
<rscale>  0 0.91997556E+02</rscale>
<asrwt>0</asrwt>
<pdfrwt beam="2">  1        1 0.25341064E-01 0.91997556E+02</pdfrwt>
<pdfrwt beam="1">  1       -1 0.19762461E-02 0.91997556E+02</pdfrwt>
<totfact> 0.11137418E+05</totfact>
</mgrwt>
</event>
<event>
 5   1  0.1357339E+00  0.9008713E+02  0.7818608E-02  0.1302641E+00
          1   -1    0    0  501    0  0.00000000000E+00  0.00000000000E+00  0.42227124673E+02  0.42227124931E+02  0.46700000000E-02 0. -1.
         -1   -1    0    0    0  501 -0.00000000000E+00 -0.00000000000E+00 -0.48047854226E+02  0.48047854453E+02  0.46700000000E-02 0.  1.
         23    2    1    2    0    0  0.00000000000E+00  0.00000000000E+00 -0.58207295534E+01  0.90274979384E+02  0.90087130103E+02 0.  0.
        -11    1    3    3    0    0  0.14392910334E+02  0.49673615710E+01 -0.45390884954E+02  0.47876538993E+02  0.51100000000E-03 0.  1.
         11    1    3    3    0    0 -0.14392910334E+02 -0.49673615710E+01  0.39570155400E+02  0.42398440390E+02  0.51100000000E-03 0. -1.
<mgrwt>
<rscale>  0 0.90087130E+02</rscale>
<asrwt>0</asrwt>
<pdfrwt beam="1">  1        1 0.64964808E-02 0.90087130E+02</pdfrwt>
<pdfrwt beam="2">  1       -1 0.73919776E-02 0.90087130E+02</pdfrwt>
<totfact> 0.94554848E+04</totfact>
</mgrwt>
</event>
<event>
 5   1  0.1357339E+00  0.9197719E+02  0.7818608E-02  0.1298133E+00
          1   -1    0    0  501    0  0.00000000000E+00  0.00000000000E+00  0.11023847775E+02  0.11023848764E+02  0.46700000000E-02 0. -1.
         -1   -1    0    0    0  501 -0.00000000000E+00 -0.00000000000E+00 -0.19185232238E+03  0.19185232243E+03  0.46700000000E-02 0.  1.
         23    2    1    2    0    0  0.00000000000E+00  0.00000000000E+00 -0.18082847460E+03  0.20287617120E+03  0.91977190721E+02 0.  0.
        -11    1    3    3    0    0 -0.22594422057E+02  0.31310745780E+02 -0.14551671140E+03  0.15055226337E+03  0.51100000000E-03 0.  1.
         11    1    3    3    0    0  0.22594422057E+02 -0.31310745780E+02 -0.35311763198E+02  0.52323907823E+02  0.51100000000E-03 0. -1.
<mgrwt>
<rscale>  0 0.91977191E+02</rscale>
<asrwt>0</asrwt>
<pdfrwt beam="1">  1        1 0.16959768E-02 0.91977191E+02</pdfrwt>
<pdfrwt beam="2">  1       -1 0.29515740E-01 0.91977191E+02</pdfrwt>
<totfact> 0.68660705E+04</totfact>
</mgrwt>
</event>
<event>
 5   1  0.1357339E+00  0.9143627E+02  0.7818608E-02  0.1299410E+00
         -1   -1    0    0    0  501 -0.00000000000E+00  0.00000000000E+00  0.17649635630E+02  0.17649636248E+02  0.46700000000E-02 0. -1.
          1   -1    0    0  501    0  0.00000000000E+00 -0.00000000000E+00 -0.11842442703E+03  0.11842442712E+03  0.46700000000E-02 0.  1.
         23    2    1    2    0    0  0.00000000000E+00  0.00000000000E+00 -0.10077479140E+03  0.13607406337E+03  0.91436273657E+02 0.  0.
        -11    1    3    3    0    0  0.35251445927E+00 -0.35573063239E+02 -0.93121389325E+02  0.99685306063E+02  0.51100000000E-03 0.  1.
         11    1    3    3    0    0 -0.35251445927E+00  0.35573063239E+02 -0.76534020726E+01  0.36388757305E+02  0.51100000000E-03 0. -1.
<mgrwt>
<rscale>  0 0.91436274E+02</rscale>
<asrwt>0</asrwt>
<pdfrwt beam="2">  1        1 0.18219142E-01 0.91436274E+02</pdfrwt>
<pdfrwt beam="1">  1       -1 0.27153287E-02 0.91436274E+02</pdfrwt>
<totfact> 0.10666571E+05</totfact>
</mgrwt>
</event>
<event>
 5   1  0.1357339E+00  0.9749572E+02  0.7818608E-02  0.1285652E+00
         -1   -1    0    0    0  501 -0.00000000000E+00  0.00000000000E+00  0.22066331677E+02  0.22066332171E+02  0.46700000000E-02 0.  1.
          1   -1    0    0  501    0  0.00000000000E+00 -0.00000000000E+00 -0.10769138113E+03  0.10769138123E+03  0.46700000000E-02 0. -1.
         23    2    1    2    0    0  0.00000000000E+00  0.00000000000E+00 -0.85625049449E+02  0.12975771340E+03  0.97495718332E+02 0.  0.
        -11    1    3    3    0    0 -0.28080892050E+02 -0.39556899821E+02 -0.49204889736E+02  0.69097076609E+02  0.51100000000E-03 0. -1.
         11    1    3    3    0    0  0.28080892050E+02  0.39556899821E+02 -0.36420159713E+02  0.60660636788E+02  0.51100000000E-03 0.  1.
<mgrwt>
<rscale>  0 0.97495718E+02</rscale>
<asrwt>0</asrwt>
<pdfrwt beam="2">  1        1 0.16567905E-01 0.97495718E+02</pdfrwt>
<pdfrwt beam="1">  1       -1 0.33948204E-02 0.97495718E+02</pdfrwt>
<totfact> 0.88054138E+04</totfact>
</mgrwt>
</event>
<event>
 5   1  0.1357339E+00  0.9161615E+02  0.7818608E-02  0.1298984E+00
         -1   -1    0    0    0  501 -0.00000000000E+00  0.00000000000E+00  0.42283726622E+01  0.42283752411E+01  0.46700000000E-02 0.  1.
          1   -1    0    0  501    0  0.00000000000E+00 -0.00000000000E+00 -0.49626157192E+03  0.49626157194E+03  0.46700000000E-02 0. -1.
         23    2    1    2    0    0  0.00000000000E+00  0.00000000000E+00 -0.49203319925E+03  0.50048994718E+03  0.91616145190E+02 0.  0.
        -11    1    3    3    0    0  0.37710882117E+02  0.25923578673E+02 -0.23477183982E+03  0.23919021580E+03  0.51100000000E-03 0.  1.
         11    1    3    3    0    0 -0.37710882117E+02 -0.25923578673E+02 -0.25726135943E+03  0.26129973138E+03  0.51100000000E-03 0. -1.
<mgrwt>
<rscale>  0 0.91616145E+02</rscale>
<asrwt>0</asrwt>
<pdfrwt beam="2">  1        1 0.76347888E-01 0.91616145E+02</pdfrwt>
<pdfrwt beam="1">  1       -1 0.65051946E-03 0.91616145E+02</pdfrwt>
<totfact> 0.13737857E+05</totfact>
</mgrwt>
</event>
<event>
 5   1  0.1357339E+00  0.9350616E+02  0.7818608E-02  0.1294576E+00
         -1   -1    0    0    0  501 -0.00000000000E+00  0.00000000000E+00  0.26569744935E+02  0.26569745345E+02  0.46700000000E-02 0. -1.
          1   -1    0    0  501    0  0.00000000000E+00 -0.00000000000E+00 -0.82268397168E+02  0.82268397300E+02  0.46700000000E-02 0.  1.
         23    2    1    2    0    0  0.00000000000E+00  0.00000000000E+00 -0.55698652233E+02  0.10883814265E+03  0.93506157198E+02 0.  0.
        -11    1    3    3    0    0  0.40323950751E+02 -0.21114843671E+01 -0.55279749249E+02  0.68456775031E+02  0.51100000000E-03 0.  1.
         11    1    3    3    0    0 -0.40323950751E+02  0.21114843671E+01 -0.41890298410E+00  0.40381367614E+02  0.51100000000E-03 0. -1.
<mgrwt>
<rscale>  0 0.93506157E+02</rscale>
<asrwt>0</asrwt>
<pdfrwt beam="2">  1        1 0.12656676E-01 0.93506157E+02</pdfrwt>
<pdfrwt beam="1">  1       -1 0.40876531E-02 0.93506157E+02</pdfrwt>
<totfact> 0.94410280E+04</totfact>
</mgrwt>
</event>
<event>
 5   1  0.1357339E+00  0.9129745E+02  0.7818608E-02  0.1299740E+00
         -1   -1    0    0    0  501 -0.00000000000E+00  0.00000000000E+00  0.29196757714E+02  0.29196758087E+02  0.46700000000E-02 0.  1.
          1   -1    0    0  501    0  0.00000000000E+00 -0.00000000000E+00 -0.71371152860E+02  0.71371153013E+02  0.46700000000E-02 0. -1.
         23    2    1    2    0    0  0.00000000000E+00  0.00000000000E+00 -0.42174395146E+02  0.10056791110E+03  0.91297454165E+02 0.  0.
        -11    1    3    3    0    0 -0.68644933933E+01 -0.44121784636E+02 -0.10639780949E+02  0.45902702403E+02  0.51100000000E-03 0.  1.
         11    1    3    3    0    0  0.68644933933E+01  0.44121784636E+02 -0.31534614197E+02  0.54665208697E+02  0.51100000000E-03 0. -1.
<mgrwt>
<rscale>  0 0.91297454E+02</rscale>
<asrwt>0</asrwt>
<pdfrwt beam="2">  1        1 0.10980177E-01 0.91297454E+02</pdfrwt>
<pdfrwt beam="1">  1       -1 0.44918089E-02 0.91297454E+02</pdfrwt>
<totfact> 0.98602981E+04</totfact>
</mgrwt>
</event>
<event>
 5   1  0.1357339E+00  0.9795251E+02  0.7818608E-02  0.1284661E+00
         -1   -1    0    0    0  501 -0.00000000000E+00  0.00000000000E+00  0.62583149089E+02  0.62583149263E+02  0.46700000000E-02 0.  1.
          1   -1    0    0  501    0  0.00000000000E+00 -0.00000000000E+00 -0.38327784016E+02  0.38327784301E+02  0.46700000000E-02 0. -1.
         23    2    1    2    0    0  0.00000000000E+00  0.00000000000E+00  0.24255365073E+02  0.10091093356E+03  0.97952507768E+02 0.  0.
        -11    1    3    3    0    0  0.19324272706E+02 -0.43099574864E+02  0.25467616569E+02  0.53661907934E+02  0.51100000000E-03 0.  1.
         11    1    3    3    0    0 -0.19324272706E+02  0.43099574864E+02 -0.12122514959E+01  0.47249025631E+02  0.51100000000E-03 0. -1.
<mgrwt>
<rscale>  0 0.97952508E+02</rscale>
<asrwt>0</asrwt>
<pdfrwt beam="2">  1        1 0.58965822E-02 0.97952508E+02</pdfrwt>
<pdfrwt beam="1">  1       -1 0.96281768E-02 0.97952508E+02</pdfrwt>
<totfact> 0.73424029E+04</totfact>
</mgrwt>
</event>
<event>
 5   1  0.1357339E+00  0.9427745E+02  0.7818608E-02  0.1292812E+00
          1   -1    0    0  501    0  0.00000000000E+00  0.00000000000E+00  0.10754827375E+03  0.10754827385E+03  0.46700000000E-02 0. -1.
         -1   -1    0    0    0  501 -0.00000000000E+00 -0.00000000000E+00 -0.20661039954E+02  0.20661040482E+02  0.46700000000E-02 0.  1.
         23    2    1    2    0    0  0.00000000000E+00  0.00000000000E+00  0.86887233799E+02  0.12820931434E+03  0.94277446324E+02 0.  0.
        -11    1    3    3    0    0  0.32104287250E+02  0.27623522524E+02  0.71588107418E+02  0.83178130422E+02  0.51100000000E-03 0. -1.
         11    1    3    3    0    0 -0.32104287250E+02 -0.27623522524E+02  0.15299126380E+02  0.45031183914E+02  0.51100000000E-03 0.  1.
<mgrwt>
<rscale>  0 0.94277446E+02</rscale>
<asrwt>0</asrwt>
<pdfrwt beam="1">  1        1 0.16545888E-01 0.94277446E+02</pdfrwt>
<pdfrwt beam="2">  1       -1 0.31786216E-02 0.94277446E+02</pdfrwt>
<totfact> 0.96513639E+04</totfact>
</mgrwt>
</event>
<event>
 5   1  0.1357339E+00  0.9082923E+02  0.7818608E-02  0.1300856E+00
         -1   -1    0    0    0  501 -0.00000000000E+00  0.00000000000E+00  0.51254988475E+02  0.51254988688E+02  0.46700000000E-02 0.  1.
          1   -1    0    0  501    0  0.00000000000E+00 -0.00000000000E+00 -0.40239732738E+02  0.40239733009E+02  0.46700000000E-02 0. -1.
         23    2    1    2    0    0  0.00000000000E+00  0.00000000000E+00  0.11015255737E+02  0.91494721697E+02  0.90829225690E+02 0.  0.
        -11    1    3    3    0    0  0.13538370698E+02 -0.17878952779E+02  0.45288019408E+02  0.50536611835E+02  0.51100000000E-03 0.  1.
         11    1    3    3    0    0 -0.13538370698E+02  0.17878952779E+02 -0.34272763670E+02  0.40958109862E+02  0.51100000000E-03 0. -1.
<mgrwt>
<rscale>  0 0.90829226E+02</rscale>
<asrwt>0</asrwt>
<pdfrwt beam="2">  1        1 0.61907282E-02 0.90829226E+02</pdfrwt>
<pdfrwt beam="1">  1       -1 0.78853829E-02 0.90829226E+02</pdfrwt>
<totfact> 0.91729733E+04</totfact>
</mgrwt>
</event>
<event>
 5   1  0.1357339E+00  0.9208639E+02  0.7818608E-02  0.1297876E+00
          1   -1    0    0  501    0  0.00000000000E+00  0.00000000000E+00  0.16901174128E+03  0.16901174135E+03  0.46700000000E-02 0. -1.
         -1   -1    0    0    0  501 -0.00000000000E+00 -0.00000000000E+00 -0.12543364920E+02  0.12543365789E+02  0.46700000000E-02 0.  1.
         23    2    1    2    0    0  0.00000000000E+00  0.00000000000E+00  0.15646837636E+03  0.18155510714E+03  0.92086394900E+02 0.  0.
        -11    1    3    3    0    0 -0.42440601600E+02  0.17499666508E+02  0.71254416836E+02  0.84762225732E+02  0.51100000000E-03 0. -1.
         11    1    3    3    0    0  0.42440601600E+02 -0.17499666508E+02  0.85213959528E+02  0.96792881405E+02  0.51100000000E-03 0.  1.
<mgrwt>
<rscale>  0 0.92086395E+02</rscale>
<asrwt>0</asrwt>
<pdfrwt beam="1">  1        1 0.26001804E-01 0.92086395E+02</pdfrwt>
<pdfrwt beam="2">  1       -1 0.19297487E-02 0.92086395E+02</pdfrwt>
<totfact> 0.11162406E+05</totfact>
</mgrwt>
</event>
<event>
 5   1  0.1357339E+00  0.9119217E+02  0.7818608E-02  0.1299990E+00
          1   -1    0    0  501    0  0.00000000000E+00  0.00000000000E+00  0.29597553396E+02  0.29597553764E+02  0.46700000000E-02 0. -1.
         -1   -1    0    0    0  501 -0.00000000000E+00 -0.00000000000E+00 -0.70242391024E+02  0.70242391180E+02  0.46700000000E-02 0.  1.
         23    2    1    2    0    0  0.00000000000E+00  0.00000000000E+00 -0.40644837628E+02  0.99839944944E+02  0.91192169514E+02 0.  0.
        -11    1    3    3    0    0 -0.17778206038E+02 -0.29862343380E+01 -0.66175037848E+02  0.68586571863E+02  0.51100000000E-03 0.  1.
         11    1    3    3    0    0  0.17778206038E+02  0.29862343380E+01  0.25530200220E+02  0.31253373081E+02  0.51100000000E-03 0. -1.
<mgrwt>
<rscale>  0 0.91192170E+02</rscale>
<asrwt>0</asrwt>
<pdfrwt beam="1">  1        1 0.45534698E-02 0.91192170E+02</pdfrwt>
<pdfrwt beam="2">  1       -1 0.10806522E-01 0.91192170E+02</pdfrwt>
<totfact> 0.86453783E+04</totfact>
</mgrwt>
</event>
<event>
 5   1  0.1357339E+00  0.9188177E+02  0.7818608E-02  0.1298358E+00
         -1   -1    0    0    0  501 -0.00000000000E+00  0.00000000000E+00  0.11883482833E+03  0.11883482842E+03  0.46700000000E-02 0.  1.
          1   -1    0    0  501    0  0.00000000000E+00 -0.00000000000E+00 -0.17760490805E+02  0.17760491419E+02  0.46700000000E-02 0. -1.
         23    2    1    2    0    0  0.00000000000E+00  0.00000000000E+00  0.10107433752E+03  0.13659531984E+03  0.91881770206E+02 0.  0.
        -11    1    3    3    0    0 -0.16263037496E+02 -0.40632825114E+02  0.71299768637E+02  0.83661041550E+02  0.51100000000E-03 0.  1.
         11    1    3    3    0    0  0.16263037496E+02  0.40632825114E+02  0.29774568888E+02  0.52934278290E+02  0.51100000000E-03 0. -1.
<mgrwt>
<rscale>  0 0.91881770E+02</rscale>
<asrwt>0</asrwt>
<pdfrwt beam="2">  1        1 0.27323834E-02 0.91881770E+02</pdfrwt>
<pdfrwt beam="1">  1       -1 0.18282280E-01 0.91881770E+02</pdfrwt>
<totfact> 0.77134483E+04</totfact>
</mgrwt>
</event>
<event>
 5   1  0.1357339E+00  0.8876862E+02  0.7818608E-02  0.1305861E+00
          1   -1    0    0  501    0  0.00000000000E+00  0.00000000000E+00  0.25389788520E+02  0.25389788949E+02  0.46700000000E-02 0. -1.
         -1   -1    0    0    0  501 -0.00000000000E+00 -0.00000000000E+00 -0.77588954059E+02  0.77588954199E+02  0.46700000000E-02 0.  1.
         23    2    1    2    0    0  0.00000000000E+00  0.00000000000E+00 -0.52199165539E+02  0.10297874315E+03  0.88768624285E+02 0.  0.
        -11    1    3    3    0    0  0.22936587284E+02 -0.37684991138E+02 -0.20449434830E+02  0.48625353247E+02  0.51100000000E-03 0.  1.
         11    1    3    3    0    0 -0.22936587284E+02  0.37684991138E+02 -0.31749730710E+02  0.54353389901E+02  0.51100000000E-03 0. -1.
<mgrwt>
<rscale>  0 0.88768624E+02</rscale>
<asrwt>0</asrwt>
<pdfrwt beam="1">  1        1 0.39061214E-02 0.88768624E+02</pdfrwt>
<pdfrwt beam="2">  1       -1 0.11936762E-01 0.88768624E+02</pdfrwt>
<totfact> 0.91108861E+04</totfact>
</mgrwt>
</event>
<event>
 5   1  0.1357339E+00  0.9027976E+02  0.7818608E-02  0.1302176E+00
          1   -1    0    0  501    0  0.00000000000E+00  0.00000000000E+00  0.24433138763E+03  0.24433138768E+03  0.46700000000E-02 0. -1.
         -1   -1    0    0    0  501 -0.00000000000E+00 -0.00000000000E+00 -0.83395285590E+01  0.83395298666E+01  0.46700000000E-02 0.  1.
         23    2    1    2    0    0  0.00000000000E+00  0.00000000000E+00  0.23599185907E+03  0.25267091754E+03  0.90279759766E+02 0.  0.
        -11    1    3    3    0    0  0.36189074601E+02  0.41092164186E+01  0.19262744403E+03  0.19604047279E+03  0.51100000000E-03 0. -1.
         11    1    3    3    0    0 -0.36189074601E+02 -0.41092164186E+01  0.43364415045E+02  0.56630444749E+02  0.51100000000E-03 0.  1.
<mgrwt>
<rscale>  0 0.90279760E+02</rscale>
<asrwt>0</asrwt>
<pdfrwt beam="1">  1        1 0.37589452E-01 0.90279760E+02</pdfrwt>
<pdfrwt beam="2">  1       -1 0.12830043E-02 0.90279760E+02</pdfrwt>
<totfact> 0.12641183E+05</totfact>
</mgrwt>
</event>
<event>
 5   1  0.1357339E+00  0.8843932E+02  0.7818608E-02  0.1306676E+00
          1   -1    0    0  501    0  0.00000000000E+00  0.00000000000E+00  0.43818855092E+02  0.43818855341E+02  0.46700000000E-02 0. -1.
         -1   -1    0    0    0  501 -0.00000000000E+00 -0.00000000000E+00 -0.44624129938E+02  0.44624130183E+02  0.46700000000E-02 0.  1.
         23    2    1    2    0    0  0.00000000000E+00  0.00000000000E+00 -0.80527484620E+00  0.88442985524E+02  0.88439319427E+02 0.  0.
        -11    1    3    3    0    0 -0.30235997731E+02  0.12867712728E+02 -0.29994144793E+02  0.44490923926E+02  0.51100000000E-03 0.  1.
         11    1    3    3    0    0  0.30235997731E+02 -0.12867712728E+02  0.29188869947E+02  0.43952061598E+02  0.51100000000E-03 0. -1.
<mgrwt>
<rscale>  0 0.88439319E+02</rscale>
<asrwt>0</asrwt>
<pdfrwt beam="1">  1        1 0.67413623E-02 0.88439319E+02</pdfrwt>
<pdfrwt beam="2">  1       -1 0.68652508E-02 0.88439319E+02</pdfrwt>
<totfact> 0.10012179E+05</totfact>
</mgrwt>
</event>
<event>
 5   1  0.1357339E+00  0.8930221E+02  0.7818608E-02  0.1304550E+00
         -1   -1    0    0    0  501 -0.00000000000E+00  0.00000000000E+00  0.11649203327E+02  0.11649204263E+02  0.46700000000E-02 0.  1.
          1   -1    0    0  501    0  0.00000000000E+00 -0.00000000000E+00 -0.17114657798E+03  0.17114657804E+03  0.46700000000E-02 0. -1.
         23    2    1    2    0    0  0.00000000000E+00  0.00000000000E+00 -0.15949737465E+03  0.18279578231E+03  0.89302214463E+02 0.  0.
        -11    1    3    3    0    0  0.43303997851E+02  0.10681433724E+02 -0.75458847612E+02  0.87654816978E+02  0.51100000000E-03 0. -1.
         11    1    3    3    0    0 -0.43303997851E+02 -0.10681433724E+02 -0.84038527040E+02  0.95140965328E+02  0.51100000000E-03 0.  1.
<mgrwt>
<rscale>  0 0.89302214E+02</rscale>
<asrwt>0</asrwt>
<pdfrwt beam="2">  1        1 0.26330241E-01 0.89302214E+02</pdfrwt>
<pdfrwt beam="1">  1       -1 0.17921853E-02 0.89302214E+02</pdfrwt>
<totfact> 0.12151300E+05</totfact>
</mgrwt>
</event>
<event>
 5   1  0.1357339E+00  0.9168892E+02  0.7818608E-02  0.1298813E+00
          1   -1    0    0  501    0  0.00000000000E+00  0.00000000000E+00  0.41112843322E+02  0.41112843587E+02  0.46700000000E-02 0. -1.
         -1   -1    0    0    0  501 -0.00000000000E+00 -0.00000000000E+00 -0.51120631647E+02  0.51120631860E+02  0.46700000000E-02 0.  1.
         23    2    1    2    0    0  0.00000000000E+00  0.00000000000E+00 -0.10007788325E+02  0.92233475447E+02  0.91688920628E+02 0.  0.
        -11    1    3    3    0    0 -0.18101935962E+02  0.20342431735E+02  0.32096308313E+02  0.42091182236E+02  0.51100000000E-03 0. -1.
         11    1    3    3    0    0  0.18101935962E+02 -0.20342431735E+02 -0.42104096639E+02  0.50142293211E+02  0.51100000000E-03 0.  1.
<mgrwt>
<rscale>  0 0.91688921E+02</rscale>
<asrwt>0</asrwt>
<pdfrwt beam="1">  1        1 0.63250529E-02 0.91688921E+02</pdfrwt>
<pdfrwt beam="2">  1       -1 0.78647126E-02 0.91688921E+02</pdfrwt>
<totfact> 0.89612859E+04</totfact>
</mgrwt>
</event>
<event>
 5   1  0.1357339E+00  0.9286497E+02  0.7818608E-02  0.1296058E+00
          1   -1    0    0  501    0  0.00000000000E+00  0.00000000000E+00  0.39413931673E+02  0.39413931949E+02  0.46700000000E-02 0. -1.
         -1   -1    0    0    0  501 -0.00000000000E+00 -0.00000000000E+00 -0.54700848261E+02  0.54700848460E+02  0.46700000000E-02 0.  1.
         23    2    1    2    0    0  0.00000000000E+00  0.00000000000E+00 -0.15286916589E+02  0.94114780410E+02  0.92864966875E+02 0.  0.
        -11    1    3    3    0    0 -0.31829129026E+02  0.30569114797E+02  0.69872900263E+01  0.44680940637E+02  0.51100000000E-03 0.  1.
         11    1    3    3    0    0  0.31829129026E+02 -0.30569114797E+02 -0.22274206615E+02  0.49433839772E+02  0.51100000000E-03 0. -1.
<mgrwt>
<rscale>  0 0.92864967E+02</rscale>
<asrwt>0</asrwt>
<pdfrwt beam="1">  1        1 0.60636818E-02 0.92864967E+02</pdfrwt>
<pdfrwt beam="2">  1       -1 0.84155151E-02 0.92864967E+02</pdfrwt>
<totfact> 0.85877252E+04</totfact>
</mgrwt>
</event>
<event>
 5   1  0.1357339E+00  0.9384864E+02  0.7818608E-02  0.1293790E+00
          1   -1    0    0  501    0  0.00000000000E+00  0.00000000000E+00  0.36197389562E+02  0.36197389863E+02  0.46700000000E-02 0.  1.
         -1   -1    0    0    0  501 -0.00000000000E+00 -0.00000000000E+00 -0.60830129369E+02  0.60830129548E+02  0.46700000000E-02 0. -1.
         23    2    1    2    0    0  0.00000000000E+00  0.00000000000E+00 -0.24632739807E+02  0.97027519411E+02  0.93848642253E+02 0.  0.
        -11    1    3    3    0    0 -0.43191215269E+02 -0.84604748621E+01 -0.29141231877E+02  0.52785150439E+02  0.51100000000E-03 0. -1.
         11    1    3    3    0    0  0.43191215269E+02  0.84604748621E+01  0.45084920704E+01  0.44242368972E+02  0.51100000000E-03 0.  1.
<mgrwt>
<rscale>  0 0.93848642E+02</rscale>
<asrwt>0</asrwt>
<pdfrwt beam="1">  1        1 0.55688292E-02 0.93848642E+02</pdfrwt>
<pdfrwt beam="2">  1       -1 0.93584814E-02 0.93848642E+02</pdfrwt>
<totfact> 0.82232870E+04</totfact>
</mgrwt>
</event>
<event>
 5   1  0.1357339E+00  0.8893501E+02  0.7818608E-02  0.1305451E+00
          1   -1    0    0  501    0  0.00000000000E+00  0.00000000000E+00  0.30692852614E+02  0.30692852969E+02  0.46700000000E-02 0. -1.
         -1   -1    0    0    0  501 -0.00000000000E+00 -0.00000000000E+00 -0.64424090006E+02  0.64424090175E+02  0.46700000000E-02 0.  1.
         23    2    1    2    0    0  0.00000000000E+00  0.00000000000E+00 -0.33731237393E+02  0.95116943144E+02  0.88935012774E+02 0.  0.
        -11    1    3    3    0    0 -0.18362845763E+02  0.30956145679E+02  0.11062375551E+02  0.37654391682E+02  0.51100000000E-03 0.  1.
         11    1    3    3    0    0  0.18362845763E+02 -0.30956145679E+02 -0.44793612943E+02  0.57462551463E+02  0.51100000000E-03 0. -1.
<mgrwt>
<rscale>  0 0.88935013E+02</rscale>
<asrwt>0</asrwt>
<pdfrwt beam="1">  1        1 0.47219774E-02 0.88935013E+02</pdfrwt>
<pdfrwt beam="2">  1       -1 0.99113985E-02 0.88935013E+02</pdfrwt>
<totfact> 0.93418770E+04</totfact>
</mgrwt>
</event>
<event>
 5   1  0.1357339E+00  0.9361487E+02  0.7818608E-02  0.1294327E+00
         -1   -1    0    0    0  501 -0.00000000000E+00  0.00000000000E+00  0.27338234630E+02  0.27338235029E+02  0.46700000000E-02 0.  1.
          1   -1    0    0  501    0  0.00000000000E+00 -0.00000000000E+00 -0.80141815138E+02  0.80141815274E+02  0.46700000000E-02 0. -1.
         23    2    1    2    0    0  0.00000000000E+00  0.00000000000E+00 -0.52803580507E+02  0.10748005030E+03  0.93614865799E+02 0.  0.
        -11    1    3    3    0    0 -0.16430578640E+01 -0.15442084227E+02  0.24294437335E+02  0.28833613893E+02  0.51100000000E-03 0.  1.
         11    1    3    3    0    0  0.16430578640E+01  0.15442084227E+02 -0.77098017843E+02  0.78646436410E+02  0.51100000000E-03 0. -1.
<mgrwt>
<rscale>  0 0.93614866E+02</rscale>
<asrwt>0</asrwt>
<pdfrwt beam="2">  1        1 0.12329510E-01 0.93614866E+02</pdfrwt>
<pdfrwt beam="1">  1       -1 0.42058823E-02 0.93614866E+02</pdfrwt>
<totfact> 0.93713320E+04</totfact>
</mgrwt>
</event>
<event>
 5   1  0.1357339E+00  0.9155709E+02  0.7818608E-02  0.1299124E+00
          1   -1    0    0  501    0  0.00000000000E+00  0.00000000000E+00  0.95848809610E+01  0.95848820987E+01  0.46700000000E-02 0. -1.
         -1   -1    0    0    0  501 -0.00000000000E+00 -0.00000000000E+00 -0.21864384258E+03  0.21864384263E+03  0.46700000000E-02 0.  1.
         23    2    1    2    0    0  0.00000000000E+00  0.00000000000E+00 -0.20905896162E+03  0.22822872473E+03  0.91557093433E+02 0.  0.
        -11    1    3    3    0    0 -0.41940816797E+02 -0.13694175266E+02 -0.74090104214E+02  0.86231700044E+02  0.51100000000E-03 0. -1.
         11    1    3    3    0    0  0.41940816797E+02  0.13694175266E+02 -0.13496885740E+03  0.14199702468E+03  0.51100000000E-03 0.  1.
<mgrwt>
<rscale>  0 0.91557093E+02</rscale>
<asrwt>0</asrwt>
<pdfrwt beam="1">  1        1 0.14745973E-02 0.91557093E+02</pdfrwt>
<pdfrwt beam="2">  1       -1 0.33637511E-01 0.91557093E+02</pdfrwt>
<totfact> 0.66888464E+04</totfact>
</mgrwt>
</event>
<event>
 5   1  0.1357339E+00  0.9443784E+02  0.7818608E-02  0.1292447E+00
         -1   -1    0    0    0  501 -0.00000000000E+00  0.00000000000E+00  0.98778028841E+02  0.98778028951E+02  0.46700000000E-02 0.  1.
          1   -1    0    0  501    0  0.00000000000E+00 -0.00000000000E+00 -0.22572088405E+02  0.22572088889E+02  0.46700000000E-02 0. -1.
         23    2    1    2    0    0  0.00000000000E+00  0.00000000000E+00  0.76205940435E+02  0.12135011784E+03  0.94437840626E+02 0.  0.
        -11    1    3    3    0    0 -0.36896323611E+02 -0.25540270281E+02  0.19218566841E+02  0.48815954499E+02  0.51100000000E-03 0. -1.
         11    1    3    3    0    0  0.36896323611E+02  0.25540270281E+02  0.56987373594E+02  0.72534163340E+02  0.51100000000E-03 0.  1.
<mgrwt>
<rscale>  0 0.94437841E+02</rscale>
<asrwt>0</asrwt>
<pdfrwt beam="2">  1        1 0.34726291E-02 0.94437841E+02</pdfrwt>
<pdfrwt beam="1">  1       -1 0.15196620E-01 0.94437841E+02</pdfrwt>
<totfact> 0.74492312E+04</totfact>
</mgrwt>
</event>
<event>
 5   1  0.1357339E+00  0.8534506E+02  0.7818608E-02  0.1314533E+00
          1   -1    0    0  501    0  0.00000000000E+00  0.00000000000E+00  0.35498707333E+02  0.35498707640E+02  0.46700000000E-02 0. -1.
         -1   -1    0    0    0  501 -0.00000000000E+00 -0.00000000000E+00 -0.51296084296E+02  0.51296084508E+02  0.46700000000E-02 0.  1.
         23    2    1    2    0    0  0.00000000000E+00  0.00000000000E+00 -0.15797376963E+02  0.86794792148E+02  0.85345057415E+02 0.  0.
        -11    1    3    3    0    0  0.10278503514E+02 -0.14446386497E+02 -0.47372960394E+02  0.50582043198E+02  0.51100000000E-03 0.  1.
         11    1    3    3    0    0 -0.10278503514E+02  0.14446386497E+02  0.31575583431E+02  0.36212748951E+02  0.51100000000E-03 0. -1.
<mgrwt>
<rscale>  0 0.85345057E+02</rscale>
<asrwt>0</asrwt>
<pdfrwt beam="1">  1        1 0.54613396E-02 0.85345057E+02</pdfrwt>
<pdfrwt beam="2">  1       -1 0.78917054E-02 0.85345057E+02</pdfrwt>
<totfact> 0.10728586E+05</totfact>
</mgrwt>
</event>
<event>
 5   1  0.1357339E+00  0.8980216E+02  0.7818608E-02  0.1303331E+00
          1   -1    0    0  501    0  0.00000000000E+00  0.00000000000E+00  0.51648015263E+02  0.51648015474E+02  0.46700000000E-02 0. -1.
         -1   -1    0    0    0  501 -0.00000000000E+00 -0.00000000000E+00 -0.39035518719E+02  0.39035518998E+02  0.46700000000E-02 0.  1.
         23    2    1    2    0    0  0.00000000000E+00  0.00000000000E+00  0.12612496544E+02  0.90683534472E+02  0.89802162308E+02 0.  0.
        -11    1    3    3    0    0 -0.38868595091E+02 -0.17301170609E+02  0.20800127433E+02  0.47357612802E+02  0.51100000000E-03 0. -1.
         11    1    3    3    0    0  0.38868595091E+02  0.17301170609E+02 -0.81876308892E+01  0.43325921671E+02  0.51100000000E-03 0.  1.
<mgrwt>
<rscale>  0 0.89802162E+02</rscale>
<asrwt>0</asrwt>
<pdfrwt beam="1">  1        1 0.79458485E-02 0.89802162E+02</pdfrwt>
<pdfrwt beam="2">  1       -1 0.60054645E-02 0.89802162E+02</pdfrwt>
<totfact> 0.98294102E+04</totfact>
</mgrwt>
</event>
<event>
 5   1  0.1357339E+00  0.9125995E+02  0.7818608E-02  0.1299829E+00
         -1   -1    0    0    0  501 -0.00000000000E+00  0.00000000000E+00  0.42739915886E+02  0.42739916141E+02  0.46700000000E-02 0.  1.
          1   -1    0    0  501    0  0.00000000000E+00 -0.00000000000E+00 -0.48715456002E+02  0.48715456226E+02  0.46700000000E-02 0. -1.
         23    2    1    2    0    0  0.00000000000E+00  0.00000000000E+00 -0.59755401167E+01  0.91455372367E+02  0.91259947705E+02 0.  0.
        -11    1    3    3    0    0  0.12372823427E+02  0.29594344357E+01  0.40926719322E+02  0.42858387353E+02  0.51100000000E-03 0.  1.
         11    1    3    3    0    0 -0.12372823427E+02 -0.29594344357E+01 -0.46902259439E+02  0.48596985014E+02  0.51100000000E-03 0. -1.
<mgrwt>
<rscale>  0 0.91259948E+02</rscale>
<asrwt>0</asrwt>
<pdfrwt beam="2">  1        1 0.74946856E-02 0.91259948E+02</pdfrwt>
<pdfrwt beam="1">  1       -1 0.65753717E-02 0.91259948E+02</pdfrwt>
<totfact> 0.93160257E+04</totfact>
</mgrwt>
</event>
<event>
 5   1  0.1357339E+00  0.9328835E+02  0.7818608E-02  0.1295078E+00
          1   -1    0    0  501    0  0.00000000000E+00  0.00000000000E+00  0.15899718736E+03  0.15899718743E+03  0.46700000000E-02 0. -1.
         -1   -1    0    0    0  501 -0.00000000000E+00 -0.00000000000E+00 -0.13683757922E+02  0.13683758719E+02  0.46700000000E-02 0.  1.
         23    2    1    2    0    0  0.00000000000E+00  0.00000000000E+00  0.14531342944E+03  0.17268094615E+03  0.93288350761E+02 0.  0.
        -11    1    3    3    0    0 -0.28965871529E+02 -0.14305770993E+02  0.10377854072E+02  0.33931941479E+02  0.51100000000E-03 0.  1.
         11    1    3    3    0    0  0.28965871529E+02  0.14305770993E+02  0.13493557537E+03  0.13874900467E+03  0.51100000000E-03 0. -1.
<mgrwt>
<rscale>  0 0.93288351E+02</rscale>
<asrwt>0</asrwt>
<pdfrwt beam="1">  1        1 0.24461107E-01 0.93288351E+02</pdfrwt>
<pdfrwt beam="2">  1       -1 0.21051935E-02 0.93288351E+02</pdfrwt>
<totfact> 0.10655285E+05</totfact>
</mgrwt>
</event>
<event>
 5   1  0.1357339E+00  0.9141002E+02  0.7818608E-02  0.1299473E+00
         -1   -1    0    0    0  501 -0.00000000000E+00  0.00000000000E+00  0.65022752603E+01  0.65022769373E+01  0.46700000000E-02 0.  1.
          1   -1    0    0  501    0  0.00000000000E+00 -0.00000000000E+00 -0.32126414186E+03  0.32126414189E+03  0.46700000000E-02 0. -1.
         23    2    1    2    0    0  0.00000000000E+00  0.00000000000E+00 -0.31476186660E+03  0.32776641883E+03  0.91410024877E+02 0.  0.
        -11    1    3    3    0    0 -0.36813029036E+02  0.20120189666E+02 -0.92349937248E+02  0.10143240138E+03  0.51100000000E-03 0.  1.
         11    1    3    3    0    0  0.36813029036E+02 -0.20120189666E+02 -0.22241192935E+03  0.22633401745E+03  0.51100000000E-03 0. -1.
<mgrwt>
<rscale>  0 0.91410025E+02</rscale>
<asrwt>0</asrwt>
<pdfrwt beam="2">  1        1 0.49425240E-01 0.91410025E+02</pdfrwt>
<pdfrwt beam="1">  1       -1 0.10003504E-02 0.91410025E+02</pdfrwt>
<totfact> 0.12890650E+05</totfact>
</mgrwt>
</event>
<event>
 5   1  0.1357339E+00  0.9071685E+02  0.7818608E-02  0.1301125E+00
          1   -1    0    0  501    0  0.00000000000E+00  0.00000000000E+00  0.15094343323E+03  0.15094343330E+03  0.46700000000E-02 0. -1.
         -1   -1    0    0    0  501 -0.00000000000E+00 -0.00000000000E+00 -0.13630184295E+02  0.13630185095E+02  0.46700000000E-02 0.  1.
         23    2    1    2    0    0  0.00000000000E+00  0.00000000000E+00  0.13731324894E+03  0.16457361840E+03  0.90716853667E+02 0.  0.
        -11    1    3    3    0    0  0.17920956729E+02 -0.26097363553E+02  0.97274815806E+01  0.33118831089E+02  0.51100000000E-03 0.  1.
         11    1    3    3    0    0 -0.17920956729E+02  0.26097363553E+02  0.12758576736E+03  0.13145478731E+03  0.51100000000E-03 0. -1.
<mgrwt>
<rscale>  0 0.90716854E+02</rscale>
<asrwt>0</asrwt>
<pdfrwt beam="1">  1        1 0.23222065E-01 0.90716854E+02</pdfrwt>
<pdfrwt beam="2">  1       -1 0.20969516E-02 0.90716854E+02</pdfrwt>
<totfact> 0.11380322E+05</totfact>
</mgrwt>
</event>
<event>
 5   1  0.1357339E+00  0.8825192E+02  0.7818608E-02  0.1307141E+00
          1   -1    0    0  501    0  0.00000000000E+00  0.00000000000E+00  0.30420564353E+02  0.30420564712E+02  0.46700000000E-02 0. -1.
         -1   -1    0    0    0  501 -0.00000000000E+00 -0.00000000000E+00 -0.64006059908E+02  0.64006060078E+02  0.46700000000E-02 0.  1.
         23    2    1    2    0    0  0.00000000000E+00  0.00000000000E+00 -0.33585495555E+02  0.94426624790E+02  0.88251923251E+02 0.  0.
        -11    1    3    3    0    0 -0.12915851634E+02 -0.37225601923E+02  0.44599228335E+01  0.39654199953E+02  0.51100000000E-03 0. -1.
         11    1    3    3    0    0  0.12915851634E+02  0.37225601923E+02 -0.38045418388E+02  0.54772424837E+02  0.51100000000E-03 0.  1.
<mgrwt>
<rscale>  0 0.88251923E+02</rscale>
<asrwt>0</asrwt>
<pdfrwt beam="1">  1        1 0.46800869E-02 0.88251923E+02</pdfrwt>
<pdfrwt beam="2">  1       -1 0.98470862E-02 0.88251923E+02</pdfrwt>
<totfact> 0.95361835E+04</totfact>
</mgrwt>
</event>
<event>
 5   1  0.1357339E+00  0.9203852E+02  0.7818608E-02  0.1297989E+00
          1   -1    0    0  501    0  0.00000000000E+00  0.00000000000E+00  0.13894441503E+03  0.13894441511E+03  0.46700000000E-02 0. -1.
         -1   -1    0    0    0  501 -0.00000000000E+00 -0.00000000000E+00 -0.15241866720E+02  0.15241867435E+02  0.46700000000E-02 0.  1.
         23    2    1    2    0    0  0.00000000000E+00  0.00000000000E+00  0.12370254831E+03  0.15418628254E+03  0.92038520556E+02 0.  0.
        -11    1    3    3    0    0 -0.25875979048E+02  0.37693844033E+02  0.53085424999E+02  0.70060363383E+02  0.51100000000E-03 0.  1.
         11    1    3    3    0    0  0.25875979048E+02 -0.37693844033E+02  0.70617123311E+02  0.84125919161E+02  0.51100000000E-03 0. -1.
<mgrwt>
<rscale>  0 0.92038521E+02</rscale>
<asrwt>0</asrwt>
<pdfrwt beam="1">  1        1 0.21376063E-01 0.92038521E+02</pdfrwt>
<pdfrwt beam="2">  1       -1 0.23449027E-02 0.92038521E+02</pdfrwt>
<totfact> 0.10779911E+05</totfact>
</mgrwt>
</event>
<event>
 5   1  0.1357339E+00  0.9318551E+02  0.7818608E-02  0.1295316E+00
         -1   -1    0    0    0  501 -0.00000000000E+00  0.00000000000E+00  0.10784458875E+03  0.10784458885E+03  0.46700000000E-02 0.  1.
          1   -1    0    0  501    0  0.00000000000E+00 -0.00000000000E+00 -0.20129751759E+02  0.20129752301E+02  0.46700000000E-02 0. -1.
         23    2    1    2    0    0  0.00000000000E+00  0.00000000000E+00  0.87714836990E+02  0.12797434115E+03  0.93185510489E+02 0.  0.
        -11    1    3    3    0    0 -0.67117535342E+01  0.37953642603E+02  0.79045682160E+01  0.39344743249E+02  0.51100000000E-03 0. -1.
         11    1    3    3    0    0  0.67117535342E+01 -0.37953642603E+02  0.79810268774E+02  0.88629597903E+02  0.51100000000E-03 0.  1.
<mgrwt>
<rscale>  0 0.93185510E+02</rscale>
<asrwt>0</asrwt>
<pdfrwt beam="2">  1        1 0.30968850E-02 0.93185510E+02</pdfrwt>
<pdfrwt beam="1">  1       -1 0.16591475E-01 0.93185510E+02</pdfrwt>
<totfact> 0.75824284E+04</totfact>
</mgrwt>
</event>
<event>
 5   1  0.1357339E+00  0.9025125E+02  0.7818608E-02  0.1302244E+00
          1   -1    0    0  501    0  0.00000000000E+00  0.00000000000E+00  0.84280393383E+02  0.84280393512E+02  0.46700000000E-02 0. -1.
         -1   -1    0    0    0  501 -0.00000000000E+00 -0.00000000000E+00 -0.24161277151E+02  0.24161277603E+02  0.46700000000E-02 0.  1.
         23    2    1    2    0    0  0.00000000000E+00  0.00000000000E+00  0.60119116232E+02  0.10844167112E+03  0.90251248732E+02 0.  0.
        -11    1    3    3    0    0  0.24455569347E+01 -0.16587590689E+02  0.80398656019E+02  0.82128392189E+02  0.51100000000E-03 0. -1.
         11    1    3    3    0    0 -0.24455569347E+01  0.16587590689E+02 -0.20279539788E+02  0.26313278926E+02  0.51100000000E-03 0.  1.
<mgrwt>
<rscale>  0 0.90251249E+02</rscale>
<asrwt>0</asrwt>
<pdfrwt beam="1">  1        1 0.12966215E-01 0.90251249E+02</pdfrwt>
<pdfrwt beam="2">  1       -1 0.37171196E-02 0.90251249E+02</pdfrwt>
<totfact> 0.10445722E+05</totfact>
</mgrwt>
</event>
<event>
 5   1  0.1357339E+00  0.9107257E+02  0.7818608E-02  0.1300275E+00
          1   -1    0    0  501    0  0.00000000000E+00  0.00000000000E+00  0.40797347475E+02  0.40797347742E+02  0.46700000000E-02 0. -1.
         -1   -1    0    0    0  501 -0.00000000000E+00 -0.00000000000E+00 -0.50825686762E+02  0.50825686976E+02  0.46700000000E-02 0.  1.
         23    2    1    2    0    0  0.00000000000E+00  0.00000000000E+00 -0.10028339287E+02  0.91623034719E+02  0.91072569428E+02 0.  0.
        -11    1    3    3    0    0  0.20793954362E+02 -0.38571010090E+02  0.74478669201E+01  0.44447520508E+02  0.51100000000E-03 0. -1.
         11    1    3    3    0    0 -0.20793954362E+02  0.38571010090E+02 -0.17476206207E+02  0.47175514211E+02  0.51100000000E-03 0.  1.
<mgrwt>
<rscale>  0 0.91072569E+02</rscale>
<asrwt>0</asrwt>
<pdfrwt beam="1">  1        1 0.62765150E-02 0.91072569E+02</pdfrwt>
<pdfrwt beam="2">  1       -1 0.78193365E-02 0.91072569E+02</pdfrwt>
<totfact> 0.91230145E+04</totfact>
</mgrwt>
</event>
<event>
 5   1  0.1357339E+00  0.8904200E+02  0.7818608E-02  0.1305188E+00
          1   -1    0    0  501    0  0.00000000000E+00  0.00000000000E+00  0.42037798861E+03  0.42037798864E+03  0.46700000000E-02 0. -1.
         -1   -1    0    0    0  501 -0.00000000000E+00 -0.00000000000E+00 -0.47150869675E+01  0.47150892802E+01  0.46700000000E-02 0.  1.
         23    2    1    2    0    0  0.00000000000E+00  0.00000000000E+00  0.41566290165E+03  0.42509307792E+03  0.89041996218E+02 0.  0.
        -11    1    3    3    0    0  0.44063428963E+02 -0.26210708258E+01  0.23553074498E+03  0.23963135775E+03  0.51100000000E-03 0. -1.
         11    1    3    3    0    0 -0.44063428963E+02  0.26210708258E+01  0.18013215666E+03  0.18546172017E+03  0.51100000000E-03 0.  1.
<mgrwt>
<rscale>  0 0.89041996E+02</rscale>
<asrwt>0</asrwt>
<pdfrwt beam="1">  1        1 0.64673520E-01 0.89041996E+02</pdfrwt>
<pdfrwt beam="2">  1       -1 0.72539837E-03 0.89041996E+02</pdfrwt>
<totfact> 0.14477694E+05</totfact>
</mgrwt>
</event>
<event>
 5   1  0.1357339E+00  0.9085122E+02  0.7818608E-02  0.1300803E+00
         -1   -1    0    0    0  501 -0.00000000000E+00  0.00000000000E+00  0.23783518881E+02  0.23783519340E+02  0.46700000000E-02 0.  1.
          1   -1    0    0  501    0  0.00000000000E+00 -0.00000000000E+00 -0.86761165668E+02  0.86761165794E+02  0.46700000000E-02 0. -1.
         23    2    1    2    0    0  0.00000000000E+00  0.00000000000E+00 -0.62977646787E+02  0.11054468513E+03  0.90851215823E+02 0.  0.
        -11    1    3    3    0    0 -0.23955561983E+02  0.15919857499E+02 -0.74269446785E+02  0.79644595163E+02  0.51100000000E-03 0. -1.
         11    1    3    3    0    0  0.23955561983E+02 -0.15919857499E+02  0.11291799998E+02  0.30900089970E+02  0.51100000000E-03 0.  1.
<mgrwt>
<rscale>  0 0.90851216E+02</rscale>
<asrwt>0</asrwt>
<pdfrwt beam="2">  1        1 0.13347872E-01 0.90851216E+02</pdfrwt>
<pdfrwt beam="1">  1       -1 0.36590030E-02 0.90851216E+02</pdfrwt>
<totfact> 0.10305869E+05</totfact>
</mgrwt>
</event>
<event>
 5   1  0.1357339E+00  0.9178448E+02  0.7818608E-02  0.1298587E+00
          1   -1    0    0  501    0  0.00000000000E+00  0.00000000000E+00  0.20618891701E+02  0.20618892230E+02  0.46700000000E-02 0. -1.
         -1   -1    0    0    0  501 -0.00000000000E+00 -0.00000000000E+00 -0.10214406675E+03  0.10214406686E+03  0.46700000000E-02 0.  1.
         23    2    1    2    0    0  0.00000000000E+00  0.00000000000E+00 -0.81525175051E+02  0.12276295909E+03  0.91784475577E+02 0.  0.
        -11    1    3    3    0    0  0.20726779962E+02 -0.28917218585E+02 -0.79534156323E+02  0.87129139560E+02  0.51100000000E-03 0.  1.
         11    1    3    3    0    0 -0.20726779962E+02  0.28917218585E+02 -0.19910187285E+01  0.35633819528E+02  0.51100000000E-03 0. -1.
<mgrwt>
<rscale>  0 0.91784476E+02</rscale>
<asrwt>0</asrwt>
<pdfrwt beam="1">  1        1 0.31721373E-02 0.91784476E+02</pdfrwt>
<pdfrwt beam="2">  1       -1 0.15714472E-01 0.91784476E+02</pdfrwt>
<totfact> 0.79671794E+04</totfact>
</mgrwt>
</event>
<event>
 5   1  0.1357339E+00  0.8983614E+02  0.7818608E-02  0.1303249E+00
         -1   -1    0    0    0  501 -0.00000000000E+00  0.00000000000E+00  0.53966401372E+02  0.53966401574E+02  0.46700000000E-02 0.  1.
          1   -1    0    0  501    0  0.00000000000E+00 -0.00000000000E+00 -0.37386832737E+02  0.37386833028E+02  0.46700000000E-02 0. -1.
         23    2    1    2    0    0  0.00000000000E+00  0.00000000000E+00  0.16579568636E+02  0.91353234603E+02  0.89836136250E+02 0.  0.
        -11    1    3    3    0    0  0.71545079342E+01 -0.16695559339E+02  0.50065223509E+02  0.53258382352E+02  0.51100000000E-03 0.  1.
         11    1    3    3    0    0 -0.71545079342E+01  0.16695559339E+02 -0.33485654874E+02  0.38094852251E+02  0.51100000000E-03 0. -1.
<mgrwt>
<rscale>  0 0.89836136E+02</rscale>
<asrwt>0</asrwt>
<pdfrwt beam="2">  1        1 0.57518205E-02 0.89836136E+02</pdfrwt>
<pdfrwt beam="1">  1       -1 0.83025233E-02 0.89836136E+02</pdfrwt>
<totfact> 0.93573297E+04</totfact>
</mgrwt>
</event>
<event>
 5   1  0.1357339E+00  0.9153044E+02  0.7818608E-02  0.1299187E+00
          1   -1    0    0  501    0  0.00000000000E+00  0.00000000000E+00  0.96645672249E+02  0.96645672362E+02  0.46700000000E-02 0. -1.
         -1   -1    0    0    0  501 -0.00000000000E+00 -0.00000000000E+00 -0.21671487153E+02  0.21671487656E+02  0.46700000000E-02 0.  1.
         23    2    1    2    0    0  0.00000000000E+00  0.00000000000E+00  0.74974185096E+02  0.11831716002E+03  0.91530442607E+02 0.  0.
        -11    1    3    3    0    0 -0.34731505282E+02 -0.17465634002E+02  0.62719921197E+01  0.39378467666E+02  0.51100000000E-03 0.  1.
         11    1    3    3    0    0  0.34731505282E+02  0.17465634002E+02  0.68702192976E+02  0.78938692352E+02  0.51100000000E-03 0. -1.
<mgrwt>
<rscale>  0 0.91530443E+02</rscale>
<asrwt>0</asrwt>
<pdfrwt beam="1">  1        1 0.14868565E-01 0.91530443E+02</pdfrwt>
<pdfrwt beam="2">  1       -1 0.33340750E-02 0.91530443E+02</pdfrwt>
<totfact> 0.10277074E+05</totfact>
</mgrwt>
</event>
<event>
 5   1  0.1357339E+00  0.9456168E+02  0.7818608E-02  0.1292166E+00
          1   -1    0    0  501    0  0.00000000000E+00  0.00000000000E+00  0.24571556623E+03  0.24571556627E+03  0.46700000000E-02 0. -1.
         -1   -1    0    0    0  501 -0.00000000000E+00 -0.00000000000E+00 -0.90978276185E+01  0.90978288171E+01  0.46700000000E-02 0.  1.
         23    2    1    2    0    0  0.00000000000E+00  0.00000000000E+00  0.23661773861E+03  0.25481339509E+03  0.94561684061E+02 0.  0.
        -11    1    3    3    0    0 -0.25523810645E+02 -0.23658163193E+02  0.32066320869E+02  0.47322537230E+02  0.51100000000E-03 0.  1.
         11    1    3    3    0    0  0.25523810645E+02  0.23658163193E+02  0.20455141774E+03  0.20749085786E+03  0.51100000000E-03 0. -1.
<mgrwt>
<rscale>  0 0.94561684E+02</rscale>
<asrwt>0</asrwt>
<pdfrwt beam="1">  1        1 0.37802390E-01 0.94561684E+02</pdfrwt>
<pdfrwt beam="2">  1       -1 0.13996661E-02 0.94561684E+02</pdfrwt>
<totfact> 0.11178641E+05</totfact>
</mgrwt>
</event>
<event>
 5   1  0.1357339E+00  0.9375576E+02  0.7818608E-02  0.1294003E+00
         -1   -1    0    0    0  501 -0.00000000000E+00  0.00000000000E+00  0.48369863822E+02  0.48369864048E+02  0.46700000000E-02 0.  1.
          1   -1    0    0  501    0  0.00000000000E+00 -0.00000000000E+00 -0.45431915128E+02  0.45431915368E+02  0.46700000000E-02 0. -1.
         23    2    1    2    0    0  0.00000000000E+00  0.00000000000E+00  0.29379486947E+01  0.93801779415E+02  0.93755758644E+02 0.  0.
        -11    1    3    3    0    0 -0.91141695561E+01 -0.39171121660E+02 -0.22627920368E+02  0.46146155194E+02  0.51100000000E-03 0.  1.
         11    1    3    3    0    0  0.91141695561E+01  0.39171121660E+02  0.25565869062E+02  0.47655624221E+02  0.51100000000E-03 0. -1.
<mgrwt>
<rscale>  0 0.93755759E+02</rscale>
<asrwt>0</asrwt>
<pdfrwt beam="2">  1        1 0.69895254E-02 0.93755759E+02</pdfrwt>
<pdfrwt beam="1">  1       -1 0.74415176E-02 0.93755759E+02</pdfrwt>
<totfact> 0.85441808E+04</totfact>
</mgrwt>
</event>
<event>
 5   1  0.1357339E+00  0.8751187E+02  0.7818608E-02  0.1308991E+00
         -1   -1    0    0    0  501 -0.00000000000E+00  0.00000000000E+00  0.32713679698E+02  0.32713680031E+02  0.46700000000E-02 0.  1.
          1   -1    0    0  501    0  0.00000000000E+00 -0.00000000000E+00 -0.58525418987E+02  0.58525419174E+02  0.46700000000E-02 0. -1.
         23    2    1    2    0    0  0.00000000000E+00  0.00000000000E+00 -0.25811739289E+02  0.91239099205E+02  0.87511869701E+02 0.  0.
        -11    1    3    3    0    0  0.12746325430E+02 -0.12469676665E+02  0.28753705261E+02  0.33833965399E+02  0.51100000000E-03 0.  1.
         11    1    3    3    0    0 -0.12746325430E+02  0.12469676665E+02 -0.54565444550E+02  0.57405133806E+02  0.51100000000E-03 0. -1.
<mgrwt>
<rscale>  0 0.87511870E+02</rscale>
<asrwt>0</asrwt>
<pdfrwt beam="2">  1        1 0.90039106E-02 0.87511870E+02</pdfrwt>
<pdfrwt beam="1">  1       -1 0.50328738E-02 0.87511870E+02</pdfrwt>
<totfact> 0.10754515E+05</totfact>
</mgrwt>
</event>
<event>
 5   1  0.1357339E+00  0.9436124E+02  0.7818608E-02  0.1292621E+00
         -1   -1    0    0    0  501 -0.00000000000E+00  0.00000000000E+00  0.14547976791E+02  0.14547977541E+02  0.46700000000E-02 0.  1.
          1   -1    0    0  501    0  0.00000000000E+00 -0.00000000000E+00 -0.15301171823E+03  0.15301171830E+03  0.46700000000E-02 0. -1.
         23    2    1    2    0    0  0.00000000000E+00  0.00000000000E+00 -0.13846374143E+03  0.16755969584E+03  0.94361241924E+02 0.  0.
        -11    1    3    3    0    0  0.23271020744E+02  0.18526829312E+02 -0.41998740007E+01  0.30040352074E+02  0.51100000000E-03 0.  1.
         11    1    3    3    0    0 -0.23271020744E+02 -0.18526829312E+02 -0.13426386743E+03  0.13751934376E+03  0.51100000000E-03 0. -1.
<mgrwt>
<rscale>  0 0.94361242E+02</rscale>
<asrwt>0</asrwt>
<pdfrwt beam="2">  1        1 0.23540263E-01 0.94361242E+02</pdfrwt>
<pdfrwt beam="1">  1       -1 0.22381504E-02 0.94361242E+02</pdfrwt>
<totfact> 0.10256681E+05</totfact>
</mgrwt>
</event>
<event>
 5   1  0.1357339E+00  0.9198021E+02  0.7818608E-02  0.1298126E+00
         -1   -1    0    0    0  501 -0.00000000000E+00  0.00000000000E+00  0.90278574218E+01  0.90278586297E+01  0.46700000000E-02 0.  1.
          1   -1    0    0  501    0  0.00000000000E+00 -0.00000000000E+00 -0.23428477264E+03  0.23428477269E+03  0.46700000000E-02 0. -1.
         23    2    1    2    0    0  0.00000000000E+00  0.00000000000E+00 -0.22525691522E+03  0.24331263132E+03  0.91980208222E+02 0.  0.
        -11    1    3    3    0    0 -0.32765209659E+02  0.25517294427E+01 -0.27525528169E+02  0.42868694736E+02  0.51100000000E-03 0.  1.
         11    1    3    3    0    0  0.32765209659E+02 -0.25517294427E+01 -0.19773138705E+03  0.20044393658E+03  0.51100000000E-03 0. -1.
<mgrwt>
<rscale>  0 0.91980208E+02</rscale>
<asrwt>0</asrwt>
<pdfrwt beam="2">  1        1 0.36043807E-01 0.91980208E+02</pdfrwt>
<pdfrwt beam="1">  1       -1 0.13889014E-02 0.91980208E+02</pdfrwt>
<totfact> 0.11927933E+05</totfact>
</mgrwt>
</event>
<event>
 5   1  0.1357339E+00  0.9577064E+02  0.7818608E-02  0.1289450E+00
          1   -1    0    0  501    0  0.00000000000E+00  0.00000000000E+00  0.10257743127E+03  0.10257743138E+03  0.46700000000E-02 0. -1.
         -1   -1    0    0    0  501 -0.00000000000E+00 -0.00000000000E+00 -0.22353882710E+02  0.22353883197E+02  0.46700000000E-02 0.  1.
         23    2    1    2    0    0  0.00000000000E+00  0.00000000000E+00  0.80223548561E+02  0.12493131457E+03  0.95770640687E+02 0.  0.
        -11    1    3    3    0    0 -0.16609924015E+02 -0.39721505866E+02  0.67453604092E+02  0.80022973634E+02  0.51100000000E-03 0. -1.
         11    1    3    3    0    0  0.16609924015E+02  0.39721505866E+02  0.12769944469E+02  0.44908340940E+02  0.51100000000E-03 0.  1.
<mgrwt>
<rscale>  0 0.95770641E+02</rscale>
<asrwt>0</asrwt>
<pdfrwt beam="1">  1        1 0.15781143E-01 0.95770641E+02</pdfrwt>
<pdfrwt beam="2">  1       -1 0.34390589E-02 0.95770641E+02</pdfrwt>
<totfact> 0.91700879E+04</totfact>
</mgrwt>
</event>
<event>
 5   1  0.1357339E+00  0.8764985E+02  0.7818608E-02  0.1308645E+00
          1   -1    0    0  501    0  0.00000000000E+00  0.00000000000E+00  0.55110940695E+02  0.55110940892E+02  0.46700000000E-02 0. -1.
         -1   -1    0    0    0  501 -0.00000000000E+00 -0.00000000000E+00 -0.34850136848E+02  0.34850137161E+02  0.46700000000E-02 0.  1.
         23    2    1    2    0    0  0.00000000000E+00  0.00000000000E+00  0.20260803847E+02  0.89961078053E+02  0.87649845362E+02 0.  0.
        -11    1    3    3    0    0 -0.11531845540E+02  0.40991869681E+02  0.20762464798E+02  0.47375065027E+02  0.51100000000E-03 0. -1.
         11    1    3    3    0    0  0.11531845540E+02 -0.40991869681E+02 -0.50166095098E+00  0.42586013026E+02  0.51100000000E-03 0.  1.
<mgrwt>
<rscale>  0 0.87649845E+02</rscale>
<asrwt>0</asrwt>
<pdfrwt beam="1">  1        1 0.84786062E-02 0.87649845E+02</pdfrwt>
<pdfrwt beam="2">  1       -1 0.53615596E-02 0.87649845E+02</pdfrwt>
<totfact> 0.10614121E+05</totfact>
</mgrwt>
</event>
<event>
 5   1  0.1357339E+00  0.9123911E+02  0.7818608E-02  0.1299878E+00
          1   -1    0    0  501    0  0.00000000000E+00  0.00000000000E+00  0.36551009360E+02  0.36551009659E+02  0.46700000000E-02 0. -1.
         -1   -1    0    0    0  501 -0.00000000000E+00 -0.00000000000E+00 -0.56938061998E+02  0.56938062190E+02  0.46700000000E-02 0.  1.
         23    2    1    2    0    0  0.00000000000E+00  0.00000000000E+00 -0.20387052638E+02  0.93489071848E+02  0.91239106965E+02 0.  0.
        -11    1    3    3    0    0 -0.16379726147E+02 -0.13647816121E+02  0.31131986359E+02  0.37732729671E+02  0.51100000000E-03 0. -1.
         11    1    3    3    0    0  0.16379726147E+02  0.13647816121E+02 -0.51519038997E+02  0.55756342177E+02  0.51100000000E-03 0.  1.
<mgrwt>
<rscale>  0 0.91239107E+02</rscale>
<asrwt>0</asrwt>
<pdfrwt beam="1">  1        1 0.56232322E-02 0.91239107E+02</pdfrwt>
<pdfrwt beam="2">  1       -1 0.87597019E-02 0.91239107E+02</pdfrwt>
<totfact> 0.89248609E+04</totfact>
</mgrwt>
</event>
<event>
 5   1  0.1357339E+00  0.9175782E+02  0.7818608E-02  0.1298650E+00
          1   -1    0    0  501    0  0.00000000000E+00  0.00000000000E+00  0.23670898783E+02  0.23670899243E+02  0.46700000000E-02 0. -1.
         -1   -1    0    0    0  501 -0.00000000000E+00 -0.00000000000E+00 -0.88922446460E+02  0.88922446583E+02  0.46700000000E-02 0.  1.
         23    2    1    2    0    0  0.00000000000E+00  0.00000000000E+00 -0.65251547678E+02  0.11259334583E+03  0.91757817378E+02 0.  0.
        -11    1    3    3    0    0 -0.38270298835E+02 -0.20643130046E+02 -0.50581291656E+02  0.66702486137E+02  0.51100000000E-03 0.  1.
         11    1    3    3    0    0  0.38270298835E+02  0.20643130046E+02 -0.14670256021E+02  0.45890859689E+02  0.51100000000E-03 0. -1.
<mgrwt>
<rscale>  0 0.91757817E+02</rscale>
<asrwt>0</asrwt>
<pdfrwt beam="1">  1        1 0.36416768E-02 0.91757817E+02</pdfrwt>
<pdfrwt beam="2">  1       -1 0.13680376E-01 0.91757817E+02</pdfrwt>
<totfact> 0.81773002E+04</totfact>
</mgrwt>
</event>
<event>
 5   1  0.1357339E+00  0.9217060E+02  0.7818608E-02  0.1297679E+00
          1   -1    0    0  501    0  0.00000000000E+00  0.00000000000E+00  0.35862440270E+02  0.35862440574E+02  0.46700000000E-02 0. -1.
         -1   -1    0    0    0  501 -0.00000000000E+00 -0.00000000000E+00 -0.59222266262E+02  0.59222266446E+02  0.46700000000E-02 0.  1.
         23    2    1    2    0    0  0.00000000000E+00  0.00000000000E+00 -0.23359825992E+02  0.95084707021E+02  0.92170602900E+02 0.  0.
        -11    1    3    3    0    0  0.25091739116E+02 -0.25027035754E+02  0.18711778336E+02  0.40075909712E+02  0.51100000000E-03 0.  1.
         11    1    3    3    0    0 -0.25091739116E+02  0.25027035754E+02 -0.42071604327E+02  0.55008797309E+02  0.51100000000E-03 0. -1.
<mgrwt>
<rscale>  0 0.92170603E+02</rscale>
<asrwt>0</asrwt>
<pdfrwt beam="1">  1        1 0.55172986E-02 0.92170603E+02</pdfrwt>
<pdfrwt beam="2">  1       -1 0.91111179E-02 0.92170603E+02</pdfrwt>
<totfact> 0.86450290E+04</totfact>
</mgrwt>
</event>
<event>
 5   1  0.1357339E+00  0.8528852E+02  0.7818608E-02  0.1314680E+00
         -1   -1    0    0    0  501 -0.00000000000E+00  0.00000000000E+00  0.75586987910E+01  0.75587002336E+01  0.46700000000E-02 0.  1.
          1   -1    0    0  501    0  0.00000000000E+00 -0.00000000000E+00 -0.24058803945E+03  0.24058803950E+03  0.46700000000E-02 0. -1.
         23    2    1    2    0    0  0.00000000000E+00  0.00000000000E+00 -0.23302934066E+03  0.24814673973E+03  0.85288515231E+02 0.  0.
        -11    1    3    3    0    0  0.26894425605E+02  0.30746866874E+02 -0.15213110043E+03  0.15752000403E+03  0.51100000000E-03 0. -1.
         11    1    3    3    0    0 -0.26894425605E+02 -0.30746866874E+02 -0.80898240231E+02  0.90626735701E+02  0.51100000000E-03 0.  1.
<mgrwt>
<rscale>  0 0.85288515E+02</rscale>
<asrwt>0</asrwt>
<pdfrwt beam="2">  1        1 0.37013539E-01 0.85288515E+02</pdfrwt>
<pdfrwt beam="1">  1       -1 0.11628770E-02 0.85288515E+02</pdfrwt>
<totfact> 0.14662324E+05</totfact>
</mgrwt>
</event>
<event>
 5   1  0.1357339E+00  0.8823103E+02  0.7818608E-02  0.1307193E+00
          1   -1    0    0  501    0  0.00000000000E+00  0.00000000000E+00  0.22895332986E+02  0.22895333462E+02  0.46700000000E-02 0. -1.
         -1   -1    0    0    0  501 -0.00000000000E+00 -0.00000000000E+00 -0.85003296989E+02  0.85003297118E+02  0.46700000000E-02 0.  1.
         23    2    1    2    0    0  0.00000000000E+00  0.00000000000E+00 -0.62107964003E+02  0.10789863058E+03  0.88231033591E+02 0.  0.
        -11    1    3    3    0    0  0.29622697833E+02  0.19727353978E+02 -0.62931995179E+02  0.72298746458E+02  0.51100000000E-03 0.  1.
         11    1    3    3    0    0 -0.29622697833E+02 -0.19727353978E+02  0.82403117599E+00  0.35599884122E+02  0.51100000000E-03 0. -1.
<mgrwt>
<rscale>  0 0.88231034E+02</rscale>
<asrwt>0</asrwt>
<pdfrwt beam="1">  1        1 0.35223590E-02 0.88231034E+02</pdfrwt>
<pdfrwt beam="2">  1       -1 0.13077430E-01 0.88231034E+02</pdfrwt>
<totfact> 0.91127674E+04</totfact>
</mgrwt>
</event>
<event>
 5   1  0.1357339E+00  0.8967481E+02  0.7818608E-02  0.1303641E+00
          1   -1    0    0  501    0  0.00000000000E+00  0.00000000000E+00  0.80699583560E+01  0.80699597073E+01  0.46700000000E-02 0. -1.
         -1   -1    0    0    0  501 -0.00000000000E+00 -0.00000000000E+00 -0.24912057002E+03  0.24912057006E+03  0.46700000000E-02 0.  1.
         23    2    1    2    0    0  0.00000000000E+00  0.00000000000E+00 -0.24105061166E+03  0.25719052977E+03  0.89674808170E+02 0.  0.
        -11    1    3    3    0    0  0.12552505881E+02  0.41880750466E+02 -0.92013204560E+02  0.10187243237E+03  0.51100000000E-03 0.  1.
         11    1    3    3    0    0 -0.12552505881E+02 -0.41880750466E+02 -0.14903740710E+03  0.15531809740E+03  0.51100000000E-03 0. -1.
<mgrwt>
<rscale>  0 0.89674808E+02</rscale>
<asrwt>0</asrwt>
<pdfrwt beam="1">  1        1 0.12415324E-02 0.89674808E+02</pdfrwt>
<pdfrwt beam="2">  1       -1 0.38326236E-01 0.89674808E+02</pdfrwt>
<totfact> 0.67713200E+04</totfact>
</mgrwt>
</event>
<event>
 5   1  0.1357339E+00  0.5489740E+02  0.7818608E-02  0.1420585E+00
          1   -1    0    0  501    0  0.00000000000E+00  0.00000000000E+00  0.13770357926E+02  0.13770358718E+02  0.46700000000E-02 0.  1.
         -1   -1    0    0    0  501 -0.00000000000E+00 -0.00000000000E+00 -0.54713976809E+02  0.54713977009E+02  0.46700000000E-02 0. -1.
         23    2    1    2    0    0  0.00000000000E+00  0.00000000000E+00 -0.40943618883E+02  0.68484335727E+02  0.54897398051E+02 0.  0.
        -11    1    3    3    0    0  0.15799819471E+02  0.15152795992E+00 -0.48471761309E+02  0.50982044886E+02  0.51100000000E-03 0. -1.
         11    1    3    3    0    0 -0.15799819471E+02 -0.15152795992E+00  0.75281424265E+01  0.17502290841E+02  0.51100000000E-03 0.  1.
<mgrwt>
<rscale>  0 0.54897398E+02</rscale>
<asrwt>0</asrwt>
<pdfrwt beam="1">  1        1 0.21185167E-02 0.54897398E+02</pdfrwt>
<pdfrwt beam="2">  1       -1 0.84175349E-02 0.54897398E+02</pdfrwt>
<totfact> 0.32118729E+05</totfact>
</mgrwt>
</event>
<event>
 5   1  0.1357339E+00  0.9198499E+02  0.7818608E-02  0.1298115E+00
          1   -1    0    0  501    0  0.00000000000E+00  0.00000000000E+00  0.10312881570E+02  0.10312882627E+02  0.46700000000E-02 0.  1.
         -1   -1    0    0    0  501 -0.00000000000E+00 -0.00000000000E+00 -0.20511331442E+03  0.20511331447E+03  0.46700000000E-02 0. -1.
         23    2    1    2    0    0  0.00000000000E+00  0.00000000000E+00 -0.19480043285E+03  0.21542619710E+03  0.91984986592E+02 0.  0.
        -11    1    3    3    0    0  0.42698093634E+02 -0.79867337673E+01 -0.62006658835E+02  0.75708261480E+02  0.51100000000E-03 0.  1.
         11    1    3    3    0    0 -0.42698093634E+02  0.79867337673E+01 -0.13279377401E+03  0.13971793562E+03  0.51100000000E-03 0. -1.
<mgrwt>
<rscale>  0 0.91984987E+02</rscale>
<asrwt>0</asrwt>
<pdfrwt beam="1">  1        1 0.15865974E-02 0.91984987E+02</pdfrwt>
<pdfrwt beam="2">  1       -1 0.31555892E-01 0.91984987E+02</pdfrwt>
<totfact> 0.67351746E+04</totfact>
</mgrwt>
</event>
<event>
 5   1  0.1357339E+00  0.9191954E+02  0.7818608E-02  0.1298269E+00
          1   -1    0    0  501    0  0.00000000000E+00  0.00000000000E+00  0.17112124530E+03  0.17112124537E+03  0.46700000000E-02 0. -1.
         -1   -1    0    0    0  501 -0.00000000000E+00 -0.00000000000E+00 -0.12343882288E+02  0.12343883172E+02  0.46700000000E-02 0.  1.
         23    2    1    2    0    0  0.00000000000E+00  0.00000000000E+00  0.15877736302E+03  0.18346512854E+03  0.91919542991E+02 0.  0.
        -11    1    3    3    0    0  0.90849338719E+01  0.39438617196E+02  0.35917672149E+02  0.54111179277E+02  0.51100000000E-03 0.  1.
         11    1    3    3    0    0 -0.90849338719E+01 -0.39438617196E+02  0.12285969087E+03  0.12935394926E+03  0.51100000000E-03 0. -1.
<mgrwt>
<rscale>  0 0.91919543E+02</rscale>
<asrwt>0</asrwt>
<pdfrwt beam="1">  1        1 0.26326345E-01 0.91919543E+02</pdfrwt>
<pdfrwt beam="2">  1       -1 0.18990590E-02 0.91919543E+02</pdfrwt>
<totfact> 0.11243400E+05</totfact>
</mgrwt>
</event>
<event>
 5   1  0.1357339E+00  0.9047279E+02  0.7818608E-02  0.1301711E+00
         -1   -1    0    0    0  501 -0.00000000000E+00  0.00000000000E+00  0.97327007398E+02  0.97327007510E+02  0.46700000000E-02 0.  1.
          1   -1    0    0  501    0  0.00000000000E+00 -0.00000000000E+00 -0.21025320885E+02  0.21025321404E+02  0.46700000000E-02 0. -1.
         23    2    1    2    0    0  0.00000000000E+00  0.00000000000E+00  0.76301686512E+02  0.11835232891E+03  0.90472793671E+02 0.  0.
        -11    1    3    3    0    0  0.39599557371E+02  0.13505324450E+02  0.60650056759E+02  0.73681396008E+02  0.51100000000E-03 0.  1.
         11    1    3    3    0    0 -0.39599557371E+02 -0.13505324450E+02  0.15651629753E+02  0.44670932906E+02  0.51100000000E-03 0. -1.
<mgrwt>
<rscale>  0 0.90472794E+02</rscale>
<asrwt>0</asrwt>
<pdfrwt beam="2">  1        1 0.32346648E-02 0.90472794E+02</pdfrwt>
<pdfrwt beam="1">  1       -1 0.14973386E-01 0.90472794E+02</pdfrwt>
<totfact> 0.83425531E+04</totfact>
</mgrwt>
</event>
<event>
 5   1  0.1357339E+00  0.8963314E+02  0.7818608E-02  0.1303743E+00
         -1   -1    0    0    0  501 -0.00000000000E+00  0.00000000000E+00  0.73314812931E+01  0.73314827804E+01  0.46700000000E-02 0.  1.
          1   -1    0    0  501    0  0.00000000000E+00 -0.00000000000E+00 -0.27395891261E+03  0.27395891265E+03  0.46700000000E-02 0. -1.
         23    2    1    2    0    0  0.00000000000E+00  0.00000000000E+00 -0.26662743132E+03  0.28129039543E+03  0.89633138017E+02 0.  0.
        -11    1    3    3    0    0  0.42190482272E+02  0.14069990281E+02 -0.15065187606E+03  0.15707956322E+03  0.51100000000E-03 0.  1.
         11    1    3    3    0    0 -0.42190482272E+02 -0.14069990281E+02 -0.11597555526E+03  0.12421083221E+03  0.51100000000E-03 0. -1.
<mgrwt>
<rscale>  0 0.89633138E+02</rscale>
<asrwt>0</asrwt>
<pdfrwt beam="2">  1        1 0.42147517E-01 0.89633138E+02</pdfrwt>
<pdfrwt beam="1">  1       -1 0.11279205E-02 0.89633138E+02</pdfrwt>
<totfact> 0.13175825E+05</totfact>
</mgrwt>
</event>
<event>
 5   1  0.1357339E+00  0.9201969E+02  0.7818608E-02  0.1298033E+00
          1   -1    0    0  501    0  0.00000000000E+00  0.00000000000E+00  0.12300973690E+03  0.12300973699E+03  0.46700000000E-02 0. -1.
         -1   -1    0    0    0  501 -0.00000000000E+00 -0.00000000000E+00 -0.17209253852E+02  0.17209254486E+02  0.46700000000E-02 0.  1.
         23    2    1    2    0    0  0.00000000000E+00  0.00000000000E+00  0.10580048305E+03  0.14021899147E+03  0.92019690050E+02 0.  0.
        -11    1    3    3    0    0  0.96101145273E+00  0.32136966218E+02  0.27492022516E+01  0.32268657456E+02  0.51100000000E-03 0.  1.
         11    1    3    3    0    0 -0.96101145273E+00 -0.32136966218E+02  0.10305128079E+03  0.10795033402E+03  0.51100000000E-03 0. -1.
<mgrwt>
<rscale>  0 0.92019690E+02</rscale>
<asrwt>0</asrwt>
<pdfrwt beam="1">  1        1 0.18924575E-01 0.92019690E+02</pdfrwt>
<pdfrwt beam="2">  1       -1 0.26475776E-02 0.92019690E+02</pdfrwt>
<totfact> 0.10553638E+05</totfact>
</mgrwt>
</event>
<event>
 5   1  0.1357339E+00  0.8607735E+02  0.7818608E-02  0.1312639E+00
          1   -1    0    0  501    0  0.00000000000E+00  0.00000000000E+00  0.12628337402E+02  0.12628338266E+02  0.46700000000E-02 0. -1.
         -1   -1    0    0    0  501 -0.00000000000E+00 -0.00000000000E+00 -0.14668023803E+03  0.14668023811E+03  0.46700000000E-02 0.  1.
         23    2    1    2    0    0  0.00000000000E+00  0.00000000000E+00 -0.13405190063E+03  0.15930857637E+03  0.86077351512E+02 0.  0.
        -11    1    3    3    0    0  0.21499989954E+02  0.37274070577E+02 -0.68598231354E+02  0.80977300835E+02  0.51100000000E-03 0. -1.
         11    1    3    3    0    0 -0.21499989954E+02 -0.37274070577E+02 -0.65453669274E+02  0.78331275536E+02  0.51100000000E-03 0.  1.
<mgrwt>
<rscale>  0 0.86077352E+02</rscale>
<asrwt>0</asrwt>
<pdfrwt beam="1">  1        1 0.19428213E-02 0.86077352E+02</pdfrwt>
<pdfrwt beam="2">  1       -1 0.22566189E-01 0.86077352E+02</pdfrwt>
<totfact> 0.87257712E+04</totfact>
</mgrwt>
</event>
<event>
 5   1  0.1357339E+00  0.7488907E+02  0.7818608E-02  0.1344215E+00
         -1   -1    0    0    0  501 -0.00000000000E+00  0.00000000000E+00  0.65842163559E+02  0.65842163725E+02  0.46700000000E-02 0.  1.
          1   -1    0    0  501    0  0.00000000000E+00 -0.00000000000E+00 -0.21294764083E+02  0.21294764595E+02  0.46700000000E-02 0. -1.
         23    2    1    2    0    0  0.00000000000E+00  0.00000000000E+00  0.44547399476E+02  0.87136928320E+02  0.74889074483E+02 0.  0.
        -11    1    3    3    0    0 -0.11903935428E+02 -0.17281463274E+02  0.58357542751E+02  0.62015767735E+02  0.51100000000E-03 0.  1.
         11    1    3    3    0    0  0.11903935428E+02  0.17281463274E+02 -0.13810143275E+02  0.25121160584E+02  0.51100000000E-03 0. -1.
<mgrwt>
<rscale>  0 0.74889074E+02</rscale>
<asrwt>0</asrwt>
<pdfrwt beam="2">  1        1 0.32761176E-02 0.74889074E+02</pdfrwt>
<pdfrwt beam="1">  1       -1 0.10129564E-01 0.74889074E+02</pdfrwt>
<totfact> 0.14401150E+05</totfact>
</mgrwt>
</event>
<event>
 5   1  0.1357339E+00  0.9119993E+02  0.7818608E-02  0.1299972E+00
         -1   -1    0    0    0  501 -0.00000000000E+00  0.00000000000E+00  0.14908084440E+03  0.14908084447E+03  0.46700000000E-02 0.  1.
          1   -1    0    0  501    0  0.00000000000E+00 -0.00000000000E+00 -0.13947845756E+02  0.13947846537E+02  0.46700000000E-02 0. -1.
         23    2    1    2    0    0  0.00000000000E+00  0.00000000000E+00  0.13513299864E+03  0.16302869101E+03  0.91199927466E+02 0.  0.
        -11    1    3    3    0    0  0.67484159903E+01  0.43558875576E+02  0.46686028057E+02  0.64206712857E+02  0.51100000000E-03 0. -1.
         11    1    3    3    0    0 -0.67484159903E+01 -0.43558875576E+02  0.88446970585E+02  0.98821978151E+02  0.51100000000E-03 0.  1.
<mgrwt>
<rscale>  0 0.91199927E+02</rscale>
<asrwt>0</asrwt>
<pdfrwt beam="2">  1        1 0.21458224E-02 0.91199927E+02</pdfrwt>
<pdfrwt beam="1">  1       -1 0.22935515E-01 0.91199927E+02</pdfrwt>
<totfact> 0.74846754E+04</totfact>
</mgrwt>
</event>
<event>
 5   1  0.1357339E+00  0.9022883E+02  0.7818608E-02  0.1302299E+00
         -1   -1    0    0    0  501 -0.00000000000E+00  0.00000000000E+00  0.14802964036E+02  0.14802964773E+02  0.46700000000E-02 0.  1.
          1   -1    0    0  501    0  0.00000000000E+00 -0.00000000000E+00 -0.13749342182E+03  0.13749342190E+03  0.46700000000E-02 0. -1.
         23    2    1    2    0    0  0.00000000000E+00  0.00000000000E+00 -0.12269045778E+03  0.15229638667E+03  0.90228825562E+02 0.  0.
        -11    1    3    3    0    0  0.32222221033E+01  0.40391490122E+02 -0.94825722895E+02  0.10312018674E+03  0.51100000000E-03 0. -1.
         11    1    3    3    0    0 -0.32222221033E+01 -0.40391490122E+02 -0.27864734889E+02  0.49176199937E+02  0.51100000000E-03 0.  1.
<mgrwt>
<rscale>  0 0.90228826E+02</rscale>
<asrwt>0</asrwt>
<pdfrwt beam="2">  1        1 0.21152833E-01 0.90228826E+02</pdfrwt>
<pdfrwt beam="1">  1       -1 0.22773792E-02 0.90228826E+02</pdfrwt>
<totfact> 0.11352795E+05</totfact>
</mgrwt>
</event>
<event>
 5   1  0.1357339E+00  0.9210124E+02  0.7818608E-02  0.1297842E+00
         -1   -1    0    0    0  501 -0.00000000000E+00  0.00000000000E+00  0.11989337133E+02  0.11989338043E+02  0.46700000000E-02 0.  1.
          1   -1    0    0  501    0  0.00000000000E+00 -0.00000000000E+00 -0.17687877962E+03  0.17687877969E+03  0.46700000000E-02 0. -1.
         23    2    1    2    0    0  0.00000000000E+00  0.00000000000E+00 -0.16488944249E+03  0.18886811773E+03  0.92101235874E+02 0.  0.
        -11    1    3    3    0    0 -0.23126398698E+02 -0.13793969639E+02 -0.58380220297E+01  0.27553337668E+02  0.51100000000E-03 0.  1.
         11    1    3    3    0    0  0.23126398698E+02  0.13793969639E+02 -0.15905142046E+03  0.16131478006E+03  0.51100000000E-03 0. -1.
<mgrwt>
<rscale>  0 0.92101236E+02</rscale>
<asrwt>0</asrwt>
<pdfrwt beam="2">  1        1 0.27212118E-01 0.92101236E+02</pdfrwt>
<pdfrwt beam="1">  1       -1 0.18445136E-02 0.92101236E+02</pdfrwt>
<totfact> 0.11254141E+05</totfact>
</mgrwt>
</event>
<event>
 5   1  0.1357339E+00  0.9160917E+02  0.7818608E-02  0.1299001E+00
          1   -1    0    0  501    0  0.00000000000E+00  0.00000000000E+00  0.46717346242E+02  0.46717346475E+02  0.46700000000E-02 0. -1.
         -1   -1    0    0    0  501 -0.00000000000E+00 -0.00000000000E+00 -0.44909657433E+02  0.44909657676E+02  0.46700000000E-02 0.  1.
         23    2    1    2    0    0  0.00000000000E+00  0.00000000000E+00  0.18076888089E+01  0.91627004151E+02  0.91609170670E+02 0.  0.
        -11    1    3    3    0    0 -0.35991629245E+02  0.63350055881E+01 -0.26715483558E+02  0.45268606490E+02  0.51100000000E-03 0.  1.
         11    1    3    3    0    0  0.35991629245E+02 -0.63350055881E+01  0.28523172367E+02  0.46358397661E+02  0.51100000000E-03 0. -1.
<mgrwt>
<rscale>  0 0.91609171E+02</rscale>
<asrwt>0</asrwt>
<pdfrwt beam="1">  1        1 0.71872840E-02 0.91609171E+02</pdfrwt>
<pdfrwt beam="2">  1       -1 0.69091781E-02 0.91609171E+02</pdfrwt>
<totfact> 0.91588323E+04</totfact>
</mgrwt>
</event>
<event>
 5   1  0.1357339E+00  0.9198874E+02  0.7818608E-02  0.1298106E+00
         -1   -1    0    0    0  501 -0.00000000000E+00  0.00000000000E+00  0.38192598847E+02  0.38192599133E+02  0.46700000000E-02 0.  1.
          1   -1    0    0  501    0  0.00000000000E+00 -0.00000000000E+00 -0.55389839975E+02  0.55389840172E+02  0.46700000000E-02 0. -1.
         23    2    1    2    0    0  0.00000000000E+00  0.00000000000E+00 -0.17197241127E+02  0.93582439305E+02  0.91988737592E+02 0.  0.
        -11    1    3    3    0    0  0.10929013144E+02  0.16010395808E+02 -0.51031022418E+02  0.54588839074E+02  0.51100000000E-03 0. -1.
         11    1    3    3    0    0 -0.10929013144E+02 -0.16010395808E+02  0.33833781291E+02  0.38993600230E+02  0.51100000000E-03 0.  1.
<mgrwt>
<rscale>  0 0.91988738E+02</rscale>
<asrwt>0</asrwt>
<pdfrwt beam="2">  1        1 0.85215139E-02 0.91988738E+02</pdfrwt>
<pdfrwt beam="1">  1       -1 0.58757845E-02 0.91988738E+02</pdfrwt>
<totfact> 0.92892221E+04</totfact>
</mgrwt>
</event>
<event>
 5   1  0.1357339E+00  0.1030248E+03  0.7818608E-02  0.1274061E+00
         -1   -1    0    0    0  501 -0.00000000000E+00  0.00000000000E+00  0.15653415366E+02  0.15653416063E+02  0.46700000000E-02 0.  1.
          1   -1    0    0  501    0  0.00000000000E+00 -0.00000000000E+00 -0.16951746899E+03  0.16951746905E+03  0.46700000000E-02 0. -1.
         23    2    1    2    0    0  0.00000000000E+00  0.00000000000E+00 -0.15386405362E+03  0.18517088512E+03  0.10302480137E+03 0.  0.
        -11    1    3    3    0    0 -0.33587991163E+02 -0.20219887979E+02 -0.16874672911E+02  0.42681982222E+02  0.51100000000E-03 0.  1.
         11    1    3    3    0    0  0.33587991163E+02  0.20219887979E+02 -0.13698938071E+03  0.14248890290E+03  0.51100000000E-03 0. -1.
<mgrwt>
<rscale>  0 0.10302480E+03</rscale>
<asrwt>0</asrwt>
<pdfrwt beam="2">  1        1 0.26079609E-01 0.10302480E+03</pdfrwt>
<pdfrwt beam="1">  1       -1 0.24082179E-02 0.10302480E+03</pdfrwt>
<totfact> 0.82371903E+04</totfact>
</mgrwt>
</event>
<event>
 5   1  0.1357339E+00  0.9169405E+02  0.7818608E-02  0.1298800E+00
         -1   -1    0    0    0  501 -0.00000000000E+00  0.00000000000E+00  0.30360097186E+02  0.30360097546E+02  0.46700000000E-02 0.  1.
          1   -1    0    0  501    0  0.00000000000E+00 -0.00000000000E+00 -0.69233960139E+02  0.69233960296E+02  0.46700000000E-02 0. -1.
         23    2    1    2    0    0  0.00000000000E+00  0.00000000000E+00 -0.38873862952E+02  0.99594057842E+02  0.91694051806E+02 0.  0.
        -11    1    3    3    0    0 -0.38379163022E+02  0.36152281871E+01  0.75189991809E+01  0.39275506083E+02  0.51100000000E-03 0.  1.
         11    1    3    3    0    0  0.38379163022E+02 -0.36152281871E+01 -0.46392862133E+02  0.60318551759E+02  0.51100000000E-03 0. -1.
<mgrwt>
<rscale>  0 0.91694052E+02</rscale>
<asrwt>0</asrwt>
<pdfrwt beam="2">  1        1 0.10651378E-01 0.91694052E+02</pdfrwt>
<pdfrwt beam="1">  1       -1 0.46707843E-02 0.91694052E+02</pdfrwt>
<totfact> 0.96972271E+04</totfact>
</mgrwt>
</event>
<event>
 5   1  0.1357339E+00  0.9129810E+02  0.7818608E-02  0.1299738E+00
         -1   -1    0    0    0  501 -0.00000000000E+00  0.00000000000E+00  0.20217501690E+03  0.20217501695E+03  0.46700000000E-02 0.  1.
          1   -1    0    0  501    0  0.00000000000E+00 -0.00000000000E+00 -0.10307088674E+02  0.10307089732E+02  0.46700000000E-02 0. -1.
         23    2    1    2    0    0  0.00000000000E+00  0.00000000000E+00  0.19186792822E+03  0.21248210668E+03  0.91298103921E+02 0.  0.
        -11    1    3    3    0    0  0.34223715438E+01  0.45409299034E+02  0.88530639271E+02  0.99555969965E+02  0.51100000000E-03 0.  1.
         11    1    3    3    0    0 -0.34223715438E+01 -0.45409299034E+02  0.10333728895E+03  0.11292613672E+03  0.51100000000E-03 0. -1.
<mgrwt>
<rscale>  0 0.91298104E+02</rscale>
<asrwt>0</asrwt>
<pdfrwt beam="2">  1        1 0.15857061E-02 0.91298104E+02</pdfrwt>
<pdfrwt beam="1">  1       -1 0.31103848E-01 0.91298104E+02</pdfrwt>
<totfact> 0.68969760E+04</totfact>
</mgrwt>
</event>
<event>
 5   1  0.1357339E+00  0.8929563E+02  0.7818608E-02  0.1304566E+00
         -1   -1    0    0    0  501 -0.00000000000E+00  0.00000000000E+00  0.53039858543E+02  0.53039858748E+02  0.46700000000E-02 0.  1.
          1   -1    0    0  501    0  0.00000000000E+00 -0.00000000000E+00 -0.37583571431E+02  0.37583571721E+02  0.46700000000E-02 0. -1.
         23    2    1    2    0    0  0.00000000000E+00  0.00000000000E+00  0.15456287112E+02  0.90623430469E+02  0.89295628889E+02 0.  0.
        -11    1    3    3    0    0  0.11201869932E+02  0.36041128156E+01  0.51437768738E+02  0.52766614182E+02  0.51100000000E-03 0.  1.
         11    1    3    3    0    0 -0.11201869932E+02 -0.36041128156E+01 -0.35981481626E+02  0.37856816287E+02  0.51100000000E-03 0. -1.
<mgrwt>
<rscale>  0 0.89295629E+02</rscale>
<asrwt>0</asrwt>
<pdfrwt beam="2">  1        1 0.57820880E-02 0.89295629E+02</pdfrwt>
<pdfrwt beam="1">  1       -1 0.81599782E-02 0.89295629E+02</pdfrwt>
<totfact> 0.95256265E+04</totfact>
</mgrwt>
</event>
<event>
 5   1  0.1357339E+00  0.9108178E+02  0.7818608E-02  0.1300253E+00
         -1   -1    0    0    0  501 -0.00000000000E+00  0.00000000000E+00  0.10684460033E+02  0.10684461054E+02  0.46700000000E-02 0.  1.
          1   -1    0    0  501    0  0.00000000000E+00 -0.00000000000E+00 -0.19411111770E+03  0.19411111776E+03  0.46700000000E-02 0. -1.
         23    2    1    2    0    0  0.00000000000E+00  0.00000000000E+00 -0.18342665767E+03  0.20479557881E+03  0.91081778404E+02 0.  0.
        -11    1    3    3    0    0 -0.43246680795E+02 -0.11869881821E+02 -0.10953217578E+03  0.11835736997E+03  0.51100000000E-03 0.  1.
         11    1    3    3    0    0  0.43246680795E+02  0.11869881821E+02 -0.73894481889E+02  0.86438208844E+02  0.51100000000E-03 0. -1.
<mgrwt>
<rscale>  0 0.91081778E+02</rscale>
<asrwt>0</asrwt>
<pdfrwt beam="2">  1        1 0.29863246E-01 0.91081778E+02</pdfrwt>
<pdfrwt beam="1">  1       -1 0.16437633E-02 0.91081778E+02</pdfrwt>
<totfact> 0.11805301E+05</totfact>
</mgrwt>
</event>
<event>
 5   1  0.1357339E+00  0.8845838E+02  0.7818608E-02  0.1306628E+00
         -1   -1    0    0    0  501 -0.00000000000E+00  0.00000000000E+00  0.75718835103E+02  0.75718835247E+02  0.46700000000E-02 0.  1.
          1   -1    0    0  501    0  0.00000000000E+00 -0.00000000000E+00 -0.25835331801E+02  0.25835332223E+02  0.46700000000E-02 0. -1.
         23    2    1    2    0    0  0.00000000000E+00  0.00000000000E+00  0.49883503302E+02  0.10155416747E+03  0.88458380207E+02 0.  0.
        -11    1    3    3    0    0  0.89322565964E+01 -0.18248513404E+02  0.70044387981E+02  0.72931541443E+02  0.51100000000E-03 0.  1.
         11    1    3    3    0    0 -0.89322565964E+01  0.18248513404E+02 -0.20160884679E+02  0.28622626027E+02  0.51100000000E-03 0. -1.
<mgrwt>
<rscale>  0 0.88458380E+02</rscale>
<asrwt>0</asrwt>
<pdfrwt beam="2">  1        1 0.39746665E-02 0.88458380E+02</pdfrwt>
<pdfrwt beam="1">  1       -1 0.11649052E-01 0.88458380E+02</pdfrwt>
<totfact> 0.92296161E+04</totfact>
</mgrwt>
</event>
<event>
 5   1  0.1357339E+00  0.8922581E+02  0.7818608E-02  0.1304737E+00
         -1   -1    0    0    0  501 -0.00000000000E+00  0.00000000000E+00  0.83732766934E+02  0.83732767064E+02  0.46700000000E-02 0.  1.
          1   -1    0    0  501    0  0.00000000000E+00 -0.00000000000E+00 -0.23769803737E+02  0.23769804196E+02  0.46700000000E-02 0. -1.
         23    2    1    2    0    0  0.00000000000E+00  0.00000000000E+00  0.59962963197E+02  0.10750257126E+03  0.89225813933E+02 0.  0.
        -11    1    3    3    0    0  0.34551712869E+01  0.27297441244E+02  0.72292076776E+02  0.77351359858E+02  0.51100000000E-03 0.  1.
         11    1    3    3    0    0 -0.34551712869E+01 -0.27297441244E+02 -0.12329113579E+02  0.30151211401E+02  0.51100000000E-03 0. -1.
<mgrwt>
<rscale>  0 0.89225814E+02</rscale>
<asrwt>0</asrwt>
<pdfrwt beam="2">  1        1 0.36568930E-02 0.89225814E+02</pdfrwt>
<pdfrwt beam="1">  1       -1 0.12881964E-01 0.89225814E+02</pdfrwt>
<totfact> 0.88777722E+04</totfact>
</mgrwt>
</event>
<event>
 5   1  0.1357339E+00  0.8984049E+02  0.7818608E-02  0.1303238E+00
         -1   -1    0    0    0  501 -0.00000000000E+00  0.00000000000E+00  0.24872526752E+02  0.24872527190E+02  0.46700000000E-02 0. -1.
          1   -1    0    0  501    0  0.00000000000E+00 -0.00000000000E+00 -0.81126799113E+02  0.81126799247E+02  0.46700000000E-02 0.  1.
         23    2    1    2    0    0  0.00000000000E+00  0.00000000000E+00 -0.56254272361E+02  0.10599932644E+03  0.89840492242E+02 0.  0.
        -11    1    3    3    0    0  0.19465123486E+02 -0.20510579847E+02 -0.69308415427E+02  0.74854735102E+02  0.51100000000E-03 0.  1.
         11    1    3    3    0    0 -0.19465123486E+02  0.20510579847E+02  0.13054143066E+02  0.31144591335E+02  0.51100000000E-03 0. -1.
<mgrwt>
<rscale>  0 0.89840492E+02</rscale>
<asrwt>0</asrwt>
<pdfrwt beam="2">  1        1 0.12481046E-01 0.89840492E+02</pdfrwt>
<pdfrwt beam="1">  1       -1 0.38265426E-02 0.89840492E+02</pdfrwt>
<totfact> 0.10513356E+05</totfact>
</mgrwt>
</event>
<event>
 5   1  0.1357339E+00  0.9234210E+02  0.7818608E-02  0.1297277E+00
         -1   -1    0    0    0  501 -0.00000000000E+00  0.00000000000E+00  0.95133188720E+01  0.95133200182E+01  0.46700000000E-02 0.  1.
          1   -1    0    0  501    0  0.00000000000E+00 -0.00000000000E+00 -0.22408222423E+03  0.22408222428E+03  0.46700000000E-02 0. -1.
         23    2    1    2    0    0  0.00000000000E+00  0.00000000000E+00 -0.21456890536E+03  0.23359554430E+03  0.92342098573E+02 0.  0.
        -11    1    3    3    0    0 -0.35917179672E+02 -0.22397164618E+02 -0.60633435712E+02  0.73946536802E+02  0.51100000000E-03 0.  1.
         11    1    3    3    0    0  0.35917179672E+02  0.22397164618E+02 -0.15393546965E+03  0.15964900750E+03  0.51100000000E-03 0. -1.
<mgrwt>
<rscale>  0 0.92342099E+02</rscale>
<asrwt>0</asrwt>
<pdfrwt beam="2">  1        1 0.34474184E-01 0.92342099E+02</pdfrwt>
<pdfrwt beam="1">  1       -1 0.14635878E-02 0.92342099E+02</pdfrwt>
<totfact> 0.11700584E+05</totfact>
</mgrwt>
</event>
<event>
 5   1  0.1357339E+00  0.8894474E+02  0.7818608E-02  0.1305427E+00
          1   -1    0    0  501    0  0.00000000000E+00  0.00000000000E+00  0.44892759286E+03  0.44892759288E+03  0.46700000000E-02 0. -1.
         -1   -1    0    0    0  501 -0.00000000000E+00 -0.00000000000E+00 -0.44055905045E+01  0.44055929796E+01  0.46700000000E-02 0.  1.
         23    2    1    2    0    0  0.00000000000E+00  0.00000000000E+00  0.44452200236E+03  0.45333318586E+03  0.88944740302E+02 0.  0.
        -11    1    3    3    0    0 -0.20091387273E+02 -0.39140704562E+02  0.18917768758E+03  0.19422630120E+03  0.51100000000E-03 0.  1.
         11    1    3    3    0    0  0.20091387273E+02  0.39140704562E+02  0.25534431477E+03  0.25910688467E+03  0.51100000000E-03 0. -1.
<mgrwt>
<rscale>  0 0.88944740E+02</rscale>
<asrwt>0</asrwt>
<pdfrwt beam="1">  1        1 0.69065720E-01 0.88944740E+02</pdfrwt>
<pdfrwt beam="2">  1       -1 0.67778397E-03 0.88944740E+02</pdfrwt>
<totfact> 0.14662556E+05</totfact>
</mgrwt>
</event>
<event>
 5   1  0.1357339E+00  0.9116915E+02  0.7818608E-02  0.1300045E+00
         -1   -1    0    0    0  501 -0.00000000000E+00  0.00000000000E+00  0.64965528645E+01  0.64965545430E+01  0.46700000000E-02 0.  1.
          1   -1    0    0  501    0  0.00000000000E+00 -0.00000000000E+00 -0.31985472148E+03  0.31985472152E+03  0.46700000000E-02 0. -1.
         23    2    1    2    0    0  0.00000000000E+00  0.00000000000E+00 -0.31335816862E+03  0.32635127606E+03  0.91169147995E+02 0.  0.
        -11    1    3    3    0    0 -0.33919103597E+02 -0.29382093837E+02 -0.18534746170E+03  0.19070263392E+03  0.51100000000E-03 0. -1.
         11    1    3    3    0    0  0.33919103597E+02  0.29382093837E+02 -0.12801070692E+03  0.13564864214E+03  0.51100000000E-03 0.  1.
<mgrwt>
<rscale>  0 0.91169148E+02</rscale>
<asrwt>0</asrwt>
<pdfrwt beam="2">  1        1 0.49208407E-01 0.91169148E+02</pdfrwt>
<pdfrwt beam="1">  1       -1 0.99947005E-03 0.91169148E+02</pdfrwt>
<totfact> 0.12970953E+05</totfact>
</mgrwt>
</event>
<event>
 5   1  0.1357339E+00  0.9067219E+02  0.7818608E-02  0.1301232E+00
         -1   -1    0    0    0  501 -0.00000000000E+00  0.00000000000E+00  0.16047017554E+02  0.16047018234E+02  0.46700000000E-02 0. -1.
          1   -1    0    0  501    0  0.00000000000E+00 -0.00000000000E+00 -0.12808370745E+03  0.12808370754E+03  0.46700000000E-02 0.  1.
         23    2    1    2    0    0  0.00000000000E+00  0.00000000000E+00 -0.11203668990E+03  0.14413072577E+03  0.90672191040E+02 0.  0.
        -11    1    3    3    0    0 -0.81054351461E+01  0.43253823627E+02 -0.38694820921E+02  0.58599321699E+02  0.51100000000E-03 0.  1.
         11    1    3    3    0    0  0.81054351461E+01 -0.43253823627E+02 -0.73341868977E+02  0.85531404072E+02  0.51100000000E-03 0. -1.
<mgrwt>
<rscale>  0 0.90672191E+02</rscale>
<asrwt>0</asrwt>
<pdfrwt beam="2">  1        1 0.19705185E-01 0.90672191E+02</pdfrwt>
<pdfrwt beam="1">  1       -1 0.24687721E-02 0.90672191E+02</pdfrwt>
<totfact> 0.11062839E+05</totfact>
</mgrwt>
</event>
<event>
 5   1  0.1357339E+00  0.8699713E+02  0.7818608E-02  0.1310291E+00
         -1   -1    0    0    0  501 -0.00000000000E+00  0.00000000000E+00  0.51797879123E+02  0.51797879334E+02  0.46700000000E-02 0.  1.
          1   -1    0    0  501    0  0.00000000000E+00 -0.00000000000E+00 -0.36529006051E+02  0.36529006349E+02  0.46700000000E-02 0. -1.
         23    2    1    2    0    0  0.00000000000E+00  0.00000000000E+00  0.15268873073E+02  0.88326885683E+02  0.86997127824E+02 0.  0.
        -11    1    3    3    0    0 -0.11268975900E+02 -0.21347432170E+02 -0.29104610198E+02  0.37812445215E+02  0.51100000000E-03 0.  1.
         11    1    3    3    0    0  0.11268975900E+02  0.21347432170E+02  0.44373483270E+02  0.50514440469E+02  0.51100000000E-03 0. -1.
<mgrwt>
<rscale>  0 0.86997128E+02</rscale>
<asrwt>0</asrwt>
<pdfrwt beam="2">  1        1 0.56198471E-02 0.86997128E+02</pdfrwt>
<pdfrwt beam="1">  1       -1 0.79689045E-02 0.86997128E+02</pdfrwt>
<totfact> 0.10208392E+05</totfact>
</mgrwt>
</event>
<event>
 5   1  0.1357339E+00  0.8503278E+02  0.7818608E-02  0.1315347E+00
          1   -1    0    0  501    0  0.00000000000E+00  0.00000000000E+00  0.16947562847E+02  0.16947563490E+02  0.46700000000E-02 0. -1.
         -1   -1    0    0    0  501 -0.00000000000E+00 -0.00000000000E+00 -0.10666095053E+03  0.10666095063E+03  0.46700000000E-02 0.  1.
         23    2    1    2    0    0  0.00000000000E+00  0.00000000000E+00 -0.89713387683E+02  0.12360851412E+03  0.85032775058E+02 0.  0.
        -11    1    3    3    0    0  0.24671811694E+02 -0.42817501378E+01  0.50910118171E+01  0.25552887862E+02  0.51100000000E-03 0. -1.
         11    1    3    3    0    0 -0.24671811694E+02  0.42817501378E+01 -0.94804399500E+02  0.98055626260E+02  0.51100000000E-03 0.  1.
<mgrwt>
<rscale>  0 0.85032775E+02</rscale>
<asrwt>0</asrwt>
<pdfrwt beam="1">  1        1 0.26073175E-02 0.85032775E+02</pdfrwt>
<pdfrwt beam="2">  1       -1 0.16409377E-01 0.85032775E+02</pdfrwt>
<totfact> 0.96193493E+04</totfact>
</mgrwt>
</event>
<event>
 5   1  0.1357339E+00  0.9715025E+02  0.7818608E-02  0.1286405E+00
         -1   -1    0    0    0  501 -0.00000000000E+00  0.00000000000E+00  0.12790301887E+02  0.12790302739E+02  0.46700000000E-02 0.  1.
          1   -1    0    0  501    0  0.00000000000E+00 -0.00000000000E+00 -0.18447906169E+03  0.18447906175E+03  0.46700000000E-02 0. -1.
         23    2    1    2    0    0  0.00000000000E+00  0.00000000000E+00 -0.17168875980E+03  0.19726936449E+03  0.97150254362E+02 0.  0.
        -11    1    3    3    0    0  0.12345535816E+02 -0.39870911982E+02 -0.35388303896E+02  0.54721421123E+02  0.51100000000E-03 0.  1.
         11    1    3    3    0    0 -0.12345535816E+02  0.39870911982E+02 -0.13630045590E+03  0.14254794336E+03  0.51100000000E-03 0. -1.
<mgrwt>
<rscale>  0 0.97150254E+02</rscale>
<asrwt>0</asrwt>
<pdfrwt beam="2">  1        1 0.28381392E-01 0.97150254E+02</pdfrwt>
<pdfrwt beam="1">  1       -1 0.19677390E-02 0.97150254E+02</pdfrwt>
<totfact> 0.98235340E+04</totfact>
</mgrwt>
</event>
<event>
 5   1  0.1357339E+00  0.9009584E+02  0.7818608E-02  0.1302620E+00
         -1   -1    0    0    0  501 -0.00000000000E+00  0.00000000000E+00  0.91435149138E+02  0.91435149258E+02  0.46700000000E-02 0.  1.
          1   -1    0    0  501    0  0.00000000000E+00 -0.00000000000E+00 -0.22194035498E+02  0.22194035990E+02  0.46700000000E-02 0. -1.
         23    2    1    2    0    0  0.00000000000E+00  0.00000000000E+00  0.69241113640E+02  0.11362918525E+03  0.90095837428E+02 0.  0.
        -11    1    3    3    0    0 -0.26043829334E+02  0.15158293510E+02 -0.76111218806E+01  0.31080284508E+02  0.51100000000E-03 0. -1.
         11    1    3    3    0    0  0.26043829334E+02 -0.15158293510E+02  0.76852235521E+02  0.82548900740E+02  0.51100000000E-03 0.  1.
<mgrwt>
<rscale>  0 0.90095837E+02</rscale>
<asrwt>0</asrwt>
<pdfrwt beam="2">  1        1 0.34144670E-02 0.90095837E+02</pdfrwt>
<pdfrwt beam="1">  1       -1 0.14066946E-01 0.90095837E+02</pdfrwt>
<totfact> 0.85280260E+04</totfact>
</mgrwt>
</event>
<event>
 5   1  0.1357339E+00  0.9178764E+02  0.7818608E-02  0.1298580E+00
         -1   -1    0    0    0  501 -0.00000000000E+00  0.00000000000E+00  0.52924014984E+01  0.52924035588E+01  0.46700000000E-02 0.  1.
          1   -1    0    0  501    0  0.00000000000E+00 -0.00000000000E+00 -0.39797477213E+03  0.39797477215E+03  0.46700000000E-02 0. -1.
         23    2    1    2    0    0  0.00000000000E+00  0.00000000000E+00 -0.39268237063E+03  0.40326717571E+03  0.91787639719E+02 0.  0.
        -11    1    3    3    0    0 -0.40141658380E+02  0.21515028351E+02 -0.17149042536E+03  0.17743510130E+03  0.51100000000E-03 0.  1.
         11    1    3    3    0    0  0.40141658380E+02 -0.21515028351E+02 -0.22119194526E+03  0.22583207441E+03  0.51100000000E-03 0. -1.
<mgrwt>
<rscale>  0 0.91787640E+02</rscale>
<asrwt>0</asrwt>
<pdfrwt beam="2">  1        1 0.61226865E-01 0.91787640E+02</pdfrwt>
<pdfrwt beam="1">  1       -1 0.81421609E-03 0.91787640E+02</pdfrwt>
<totfact> 0.13240869E+05</totfact>
</mgrwt>
</event>
<event>
 5   1  0.1357339E+00  0.9186238E+02  0.7818608E-02  0.1298403E+00
         -1   -1    0    0    0  501 -0.00000000000E+00  0.00000000000E+00  0.19161392809E+03  0.19161392814E+03  0.46700000000E-02 0.  1.
          1   -1    0    0  501    0  0.00000000000E+00 -0.00000000000E+00 -0.11010025733E+02  0.11010026723E+02  0.46700000000E-02 0. -1.
         23    2    1    2    0    0  0.00000000000E+00  0.00000000000E+00  0.18060390235E+03  0.20262395487E+03  0.91862383708E+02 0.  0.
        -11    1    3    3    0    0  0.15390134391E+02  0.34341707677E+02  0.32216758736E+02  0.49539162957E+02  0.51100000000E-03 0.  1.
         11    1    3    3    0    0 -0.15390134391E+02 -0.34341707677E+02  0.14838714362E+03  0.15308479191E+03  0.51100000000E-03 0. -1.
<mgrwt>
<rscale>  0 0.91862384E+02</rscale>
<asrwt>0</asrwt>
<pdfrwt beam="2">  1        1 0.16938503E-02 0.91862384E+02</pdfrwt>
<pdfrwt beam="1">  1       -1 0.29479064E-01 0.91862384E+02</pdfrwt>
<totfact> 0.68908471E+04</totfact>
</mgrwt>
</event>
<event>
 5   1  0.1357339E+00  0.9170591E+02  0.7818608E-02  0.1298772E+00
          1   -1    0    0  501    0  0.00000000000E+00  0.00000000000E+00  0.85354639690E+02  0.85354639817E+02  0.46700000000E-02 0. -1.
         -1   -1    0    0    0  501 -0.00000000000E+00 -0.00000000000E+00 -0.24632444689E+02  0.24632445132E+02  0.46700000000E-02 0.  1.
         23    2    1    2    0    0  0.00000000000E+00  0.00000000000E+00  0.60722195000E+02  0.10998708495E+03  0.91705909788E+02 0.  0.
        -11    1    3    3    0    0  0.44392712715E+02  0.70414976473E+00  0.44103144557E+02  0.62580317426E+02  0.51100000000E-03 0. -1.
         11    1    3    3    0    0 -0.44392712715E+02 -0.70414976473E+00  0.16619050443E+02  0.47406767523E+02  0.51100000000E-03 0.  1.
<mgrwt>
<rscale>  0 0.91705910E+02</rscale>
<asrwt>0</asrwt>
<pdfrwt beam="1">  1        1 0.13131483E-01 0.91705910E+02</pdfrwt>
<pdfrwt beam="2">  1       -1 0.37896070E-02 0.91705910E+02</pdfrwt>
<totfact> 0.10018455E+05</totfact>
</mgrwt>
</event>
<event>
 5   1  0.1357339E+00  0.9267355E+02  0.7818608E-02  0.1296503E+00
         -1   -1    0    0    0  501 -0.00000000000E+00  0.00000000000E+00  0.11012929988E+02  0.11012930978E+02  0.46700000000E-02 0. -1.
          1   -1    0    0  501    0  0.00000000000E+00 -0.00000000000E+00 -0.19496144904E+03  0.19496144910E+03  0.46700000000E-02 0.  1.
         23    2    1    2    0    0  0.00000000000E+00  0.00000000000E+00 -0.18394851905E+03  0.20597438007E+03  0.92673553861E+02 0.  0.
        -11    1    3    3    0    0  0.58026317598E+01  0.45053547378E+02 -0.11229649647E+03  0.12113626949E+03  0.51100000000E-03 0.  1.
         11    1    3    3    0    0 -0.58026317598E+01 -0.45053547378E+02 -0.71652022583E+02  0.84838110582E+02  0.51100000000E-03 0. -1.
<mgrwt>
<rscale>  0 0.92673554E+02</rscale>
<asrwt>0</asrwt>
<pdfrwt beam="2">  1        1 0.29994067E-01 0.92673554E+02</pdfrwt>
<pdfrwt beam="1">  1       -1 0.16942971E-02 0.92673554E+02</pdfrwt>
<totfact> 0.11277763E+05</totfact>
</mgrwt>
</event>
<event>
 5   1  0.1357339E+00  0.8926752E+02  0.7818608E-02  0.1304635E+00
          1   -1    0    0  501    0  0.00000000000E+00  0.00000000000E+00  0.26939798663E+02  0.26939799067E+02  0.46700000000E-02 0. -1.
         -1   -1    0    0    0  501 -0.00000000000E+00 -0.00000000000E+00 -0.73949053843E+02  0.73949053991E+02  0.46700000000E-02 0.  1.
         23    2    1    2    0    0  0.00000000000E+00  0.00000000000E+00 -0.47009255181E+02  0.10088885306E+03  0.89267522642E+02 0.  0.
        -11    1    3    3    0    0  0.75424125379E+01 -0.39698690385E+02 -0.44927489663E+02  0.60426429093E+02  0.51100000000E-03 0.  1.
         11    1    3    3    0    0 -0.75424125379E+01  0.39698690385E+02 -0.20817655176E+01  0.40462423965E+02  0.51100000000E-03 0. -1.
<mgrwt>
<rscale>  0 0.89267523E+02</rscale>
<asrwt>0</asrwt>
<pdfrwt beam="1">  1        1 0.41445845E-02 0.89267523E+02</pdfrwt>
<pdfrwt beam="2">  1       -1 0.11376777E-01 0.89267523E+02</pdfrwt>
<totfact> 0.90525810E+04</totfact>
</mgrwt>
</event>
<event>
 5   1  0.1357339E+00  0.9131065E+02  0.7818608E-02  0.1299708E+00
         -1   -1    0    0    0  501 -0.00000000000E+00  0.00000000000E+00  0.40100274466E+02  0.40100274737E+02  0.46700000000E-02 0.  1.
          1   -1    0    0  501    0  0.00000000000E+00 -0.00000000000E+00 -0.51979906055E+02  0.51979906264E+02  0.46700000000E-02 0. -1.
         23    2    1    2    0    0  0.00000000000E+00  0.00000000000E+00 -0.11879631589E+02  0.92080181002E+02  0.91310646075E+02 0.  0.
        -11    1    3    3    0    0 -0.38182624979E+02  0.16365662667E+00  0.19300483615E+02  0.42783738755E+02  0.51100000000E-03 0.  1.
         11    1    3    3    0    0  0.38182624979E+02 -0.16365662667E+00 -0.31180115205E+02  0.49296442247E+02  0.51100000000E-03 0. -1.
<mgrwt>
<rscale>  0 0.91310646E+02</rscale>
<asrwt>0</asrwt>
<pdfrwt beam="2">  1        1 0.79969087E-02 0.91310646E+02</pdfrwt>
<pdfrwt beam="1">  1       -1 0.61692730E-02 0.91310646E+02</pdfrwt>
<totfact> 0.93926521E+04</totfact>
</mgrwt>
</event>
<event>
 5   1  0.1357339E+00  0.8711175E+02  0.7818608E-02  0.1310001E+00
         -1   -1    0    0    0  501 -0.00000000000E+00  0.00000000000E+00  0.21279043706E+02  0.21279044218E+02  0.46700000000E-02 0.  1.
          1   -1    0    0  501    0  0.00000000000E+00 -0.00000000000E+00 -0.89154102132E+02  0.89154102255E+02  0.46700000000E-02 0. -1.
         23    2    1    2    0    0  0.00000000000E+00  0.00000000000E+00 -0.67875058426E+02  0.11043314647E+03  0.87111745956E+02 0.  0.
        -11    1    3    3    0    0 -0.35107534812E+02  0.25778378087E+02 -0.33653228595E+02  0.55041834748E+02  0.51100000000E-03 0. -1.
         11    1    3    3    0    0  0.35107534812E+02 -0.25778378087E+02 -0.34221829832E+02  0.55391311725E+02  0.51100000000E-03 0.  1.
<mgrwt>
<rscale>  0 0.87111746E+02</rscale>
<asrwt>0</asrwt>
<pdfrwt beam="2">  1        1 0.13716016E-01 0.87111746E+02</pdfrwt>
<pdfrwt beam="1">  1       -1 0.32736991E-02 0.87111746E+02</pdfrwt>
<totfact> 0.11606806E+05</totfact>
</mgrwt>
</event>
<event>
 5   1  0.1357339E+00  0.9049579E+02  0.7818608E-02  0.1301655E+00
          1   -1    0    0  501    0  0.00000000000E+00  0.00000000000E+00  0.11909870496E+03  0.11909870505E+03  0.46700000000E-02 0. -1.
         -1   -1    0    0    0  501 -0.00000000000E+00 -0.00000000000E+00 -0.17190549073E+02  0.17190549707E+02  0.46700000000E-02 0.  1.
         23    2    1    2    0    0  0.00000000000E+00  0.00000000000E+00  0.10190815588E+03  0.13628925475E+03  0.90495793968E+02 0.  0.
        -11    1    3    3    0    0 -0.20413030608E+02  0.18574858001E+02 -0.30461316961E+01  0.27766816291E+02  0.51100000000E-03 0.  1.
         11    1    3    3    0    0  0.20413030608E+02 -0.18574858001E+02  0.10495428758E+03  0.10852243846E+03  0.51100000000E-03 0. -1.
<mgrwt>
<rscale>  0 0.90495794E+02</rscale>
<asrwt>0</asrwt>
<pdfrwt beam="1">  1        1 0.18322878E-01 0.90495794E+02</pdfrwt>
<pdfrwt beam="2">  1       -1 0.26446999E-02 0.90495794E+02</pdfrwt>
<totfact> 0.10980637E+05</totfact>
</mgrwt>
</event>
<event>
 5   1  0.1357339E+00  0.7840163E+02  0.7818608E-02  0.1333650E+00
          1   -1    0    0  501    0  0.00000000000E+00  0.00000000000E+00  0.50602437851E+02  0.50602438066E+02  0.46700000000E-02 0. -1.
         -1   -1    0    0    0  501 -0.00000000000E+00 -0.00000000000E+00 -0.30368175660E+02  0.30368176019E+02  0.46700000000E-02 0.  1.
         23    2    1    2    0    0  0.00000000000E+00  0.00000000000E+00  0.20234262191E+02  0.80970614085E+02  0.78401626124E+02 0.  0.
        -11    1    3    3    0    0 -0.65295195528E+01  0.16685706293E+02  0.46125858197E+02  0.49483757080E+02  0.51100000000E-03 0. -1.
         11    1    3    3    0    0  0.65295195528E+01 -0.16685706293E+02 -0.25891596006E+02  0.31486857005E+02  0.51100000000E-03 0.  1.
<mgrwt>
<rscale>  0 0.78401626E+02</rscale>
<asrwt>0</asrwt>
<pdfrwt beam="1">  1        1 0.77849904E-02 0.78401626E+02</pdfrwt>
<pdfrwt beam="2">  1       -1 0.46720271E-02 0.78401626E+02</pdfrwt>
<totfact> 0.14247209E+05</totfact>
</mgrwt>
</event>
<event>
 5   1  0.1357339E+00  0.9110672E+02  0.7818608E-02  0.1300194E+00
          1   -1    0    0  501    0  0.00000000000E+00  0.00000000000E+00  0.18994540593E+03  0.18994540599E+03  0.46700000000E-02 0. -1.
         -1   -1    0    0    0  501 -0.00000000000E+00 -0.00000000000E+00 -0.10924763124E+02  0.10924764123E+02  0.46700000000E-02 0.  1.
         23    2    1    2    0    0  0.00000000000E+00  0.00000000000E+00  0.17902064281E+03  0.20087017011E+03  0.91106721429E+02 0.  0.
        -11    1    3    3    0    0 -0.12721978661E+02 -0.43220288832E+02  0.10434416842E+03  0.11365538963E+03  0.51100000000E-03 0. -1.
         11    1    3    3    0    0  0.12721978661E+02  0.43220288832E+02  0.74676474384E+02  0.87214780481E+02  0.51100000000E-03 0.  1.
<mgrwt>
<rscale>  0 0.91106721E+02</rscale>
<asrwt>0</asrwt>
<pdfrwt beam="1">  1        1 0.29222369E-01 0.91106721E+02</pdfrwt>
<pdfrwt beam="2">  1       -1 0.16807329E-02 0.91106721E+02</pdfrwt>
<totfact> 0.11747332E+05</totfact>
</mgrwt>
</event>
<event>
 5   1  0.1357339E+00  0.8844053E+02  0.7818608E-02  0.1306673E+00
          1   -1    0    0  501    0  0.00000000000E+00  0.00000000000E+00  0.83472217856E+02  0.83472217987E+02  0.46700000000E-02 0. -1.
         -1   -1    0    0    0  501 -0.00000000000E+00 -0.00000000000E+00 -0.23426136893E+02  0.23426137358E+02  0.46700000000E-02 0.  1.
         23    2    1    2    0    0  0.00000000000E+00  0.00000000000E+00  0.60046080963E+02  0.10689835535E+03  0.88440525420E+02 0.  0.
        -11    1    3    3    0    0 -0.32444845657E+01  0.36718209504E+02  0.49805189443E+00  0.36864639497E+02  0.51100000000E-03 0.  1.
         11    1    3    3    0    0  0.32444845657E+01 -0.36718209504E+02  0.59548029069E+02  0.70033715848E+02  0.51100000000E-03 0. -1.
<mgrwt>
<rscale>  0 0.88440525E+02</rscale>
<asrwt>0</asrwt>
<pdfrwt beam="1">  1        1 0.12841880E-01 0.88440525E+02</pdfrwt>
<pdfrwt beam="2">  1       -1 0.36040210E-02 0.88440525E+02</pdfrwt>
<totfact> 0.11023327E+05</totfact>
</mgrwt>
</event>
<event>
 5   1  0.1357339E+00  0.8690530E+02  0.7818608E-02  0.1310524E+00
         -1   -1    0    0    0  501 -0.00000000000E+00  0.00000000000E+00  0.76966898555E+02  0.76966898696E+02  0.46700000000E-02 0.  1.
          1   -1    0    0  501    0  0.00000000000E+00 -0.00000000000E+00 -0.24531752995E+02  0.24531753439E+02  0.46700000000E-02 0. -1.
         23    2    1    2    0    0  0.00000000000E+00  0.00000000000E+00  0.52435145560E+02  0.10149865214E+03  0.86905304185E+02 0.  0.
        -11    1    3    3    0    0 -0.53194750002E+01 -0.30680708517E+02  0.61614106170E+02  0.69035503682E+02  0.51100000000E-03 0.  1.
         11    1    3    3    0    0  0.53194750002E+01  0.30680708517E+02 -0.91789606097E+01  0.32463148453E+02  0.51100000000E-03 0. -1.
<mgrwt>
<rscale>  0 0.86905304E+02</rscale>
<asrwt>0</asrwt>
<pdfrwt beam="2">  1        1 0.37741159E-02 0.86905304E+02</pdfrwt>
<pdfrwt beam="1">  1       -1 0.11841061E-01 0.86905304E+02</pdfrwt>
<totfact> 0.96306447E+04</totfact>
</mgrwt>
</event>
<event>
 5   1  0.1357339E+00  0.9628658E+02  0.7818608E-02  0.1288304E+00
         -1   -1    0    0    0  501 -0.00000000000E+00  0.00000000000E+00  0.23509672680E+03  0.23509672685E+03  0.46700000000E-02 0.  1.
          1   -1    0    0  501    0  0.00000000000E+00 -0.00000000000E+00 -0.98588189666E+01  0.98588200726E+01  0.46700000000E-02 0. -1.
         23    2    1    2    0    0  0.00000000000E+00  0.00000000000E+00  0.22523790783E+03  0.24495554692E+03  0.96286576641E+02 0.  0.
        -11    1    3    3    0    0  0.27379844708E+02  0.39597607366E+02  0.11163429852E+03  0.12157237767E+03  0.51100000000E-03 0. -1.
         11    1    3    3    0    0 -0.27379844708E+02 -0.39597607366E+02  0.11360360931E+03  0.12338316925E+03  0.51100000000E-03 0.  1.
<mgrwt>
<rscale>  0 0.96286577E+02</rscale>
<asrwt>0</asrwt>
<pdfrwt beam="2">  1        1 0.15167415E-02 0.96286577E+02</pdfrwt>
<pdfrwt beam="1">  1       -1 0.36168726E-01 0.96286577E+02</pdfrwt>
<totfact> 0.57308965E+04</totfact>
</mgrwt>
</event>
<event>
 5   1  0.1357339E+00  0.9108991E+02  0.7818608E-02  0.1300234E+00
         -1   -1    0    0    0  501 -0.00000000000E+00  0.00000000000E+00  0.15533374567E+03  0.15533374574E+03  0.46700000000E-02 0.  1.
          1   -1    0    0  501    0  0.00000000000E+00 -0.00000000000E+00 -0.13354102064E+02  0.13354102880E+02  0.46700000000E-02 0. -1.
         23    2    1    2    0    0  0.00000000000E+00  0.00000000000E+00  0.14197964360E+03  0.16868784862E+03  0.91089906539E+02 0.  0.
        -11    1    3    3    0    0 -0.38766354714E+02  0.13762675560E+02  0.10718933952E+03  0.11481200287E+03  0.51100000000E-03 0.  1.
         11    1    3    3    0    0  0.38766354714E+02 -0.13762675560E+02  0.34790304084E+02  0.53875845746E+02  0.51100000000E-03 0. -1.
<mgrwt>
<rscale>  0 0.91089907E+02</rscale>
<asrwt>0</asrwt>
<pdfrwt beam="2">  1        1 0.20544772E-02 0.91089907E+02</pdfrwt>
<pdfrwt beam="1">  1       -1 0.23897501E-01 0.91089907E+02</pdfrwt>
<totfact> 0.74356424E+04</totfact>
</mgrwt>
</event>
<event>
 5   1  0.1357339E+00  0.8518204E+02  0.7818608E-02  0.1314957E+00
          1   -1    0    0  501    0  0.00000000000E+00  0.00000000000E+00  0.25670110147E+03  0.25670110151E+03  0.46700000000E-02 0. -1.
         -1   -1    0    0    0  501 -0.00000000000E+00 -0.00000000000E+00 -0.70665634903E+01  0.70665650334E+01  0.46700000000E-02 0.  1.
         23    2    1    2    0    0  0.00000000000E+00  0.00000000000E+00  0.24963453798E+03  0.26376766654E+03  0.85182036619E+02 0.  0.
        -11    1    3    3    0    0  0.17134336238E+02  0.32646059699E+02  0.19084241049E+03  0.19437123330E+03  0.51100000000E-03 0. -1.
         11    1    3    3    0    0 -0.17134336238E+02 -0.32646059699E+02  0.58792127482E+02  0.69396433239E+02  0.51100000000E-03 0.  1.
<mgrwt>
<rscale>  0 0.85182037E+02</rscale>
<asrwt>0</asrwt>
<pdfrwt beam="1">  1        1 0.39492482E-01 0.85182037E+02</pdfrwt>
<pdfrwt beam="2">  1       -1 0.10871636E-02 0.85182037E+02</pdfrwt>
<totfact> 0.14895387E+05</totfact>
</mgrwt>
</event>
<event>
 5   1  0.1357339E+00  0.9205060E+02  0.7818608E-02  0.1297960E+00
          1   -1    0    0  501    0  0.00000000000E+00  0.00000000000E+00  0.66236874162E+02  0.66236874326E+02  0.46700000000E-02 0. -1.
         -1   -1    0    0    0  501 -0.00000000000E+00 -0.00000000000E+00 -0.31981102574E+02  0.31981102915E+02  0.46700000000E-02 0.  1.
         23    2    1    2    0    0  0.00000000000E+00  0.00000000000E+00  0.34255771588E+02  0.98217977241E+02  0.92050601118E+02 0.  0.
        -11    1    3    3    0    0 -0.19014624757E+02 -0.92266524873E+00 -0.27583367781E+02  0.33514913758E+02  0.51100000000E-03 0.  1.
         11    1    3    3    0    0  0.19014624757E+02  0.92266524873E+00  0.61839139369E+02  0.64703063482E+02  0.51100000000E-03 0. -1.
<mgrwt>
<rscale>  0 0.92050601E+02</rscale>
<asrwt>0</asrwt>
<pdfrwt beam="1">  1        1 0.10190288E-01 0.92050601E+02</pdfrwt>
<pdfrwt beam="2">  1       -1 0.49201697E-02 0.92050601E+02</pdfrwt>
<totfact> 0.95283469E+04</totfact>
</mgrwt>
</event>
<event>
 5   1  0.1357339E+00  0.9180871E+02  0.7818608E-02  0.1298530E+00
         -1   -1    0    0    0  501 -0.00000000000E+00  0.00000000000E+00  0.10613368185E+02  0.10613369212E+02  0.46700000000E-02 0.  1.
          1   -1    0    0  501    0  0.00000000000E+00 -0.00000000000E+00 -0.19854296158E+03  0.19854296163E+03  0.46700000000E-02 0. -1.
         23    2    1    2    0    0  0.00000000000E+00  0.00000000000E+00 -0.18792959339E+03  0.20915633084E+03  0.91808706885E+02 0.  0.
        -11    1    3    3    0    0  0.30734372398E+02 -0.62894253461E+01 -0.17618687008E+02  0.35980225820E+02  0.51100000000E-03 0.  1.
         11    1    3    3    0    0 -0.30734372398E+02  0.62894253461E+01 -0.17031090638E+03  0.17317610503E+03  0.51100000000E-03 0. -1.
<mgrwt>
<rscale>  0 0.91808707E+02</rscale>
<asrwt>0</asrwt>
<pdfrwt beam="2">  1        1 0.30545068E-01 0.91808707E+02</pdfrwt>
<pdfrwt beam="1">  1       -1 0.16328261E-02 0.91808707E+02</pdfrwt>
<totfact> 0.11606571E+05</totfact>
</mgrwt>
</event>
<event>
 5   1  0.1357339E+00  0.9126846E+02  0.7818608E-02  0.1299809E+00
         -1   -1    0    0    0  501 -0.00000000000E+00  0.00000000000E+00  0.28094580069E+02  0.28094580457E+02  0.46700000000E-02 0.  1.
          1   -1    0    0  501    0  0.00000000000E+00 -0.00000000000E+00 -0.74124012711E+02  0.74124012858E+02  0.46700000000E-02 0. -1.
         23    2    1    2    0    0  0.00000000000E+00  0.00000000000E+00 -0.46029432642E+02  0.10221859332E+03  0.91268461969E+02 0.  0.
        -11    1    3    3    0    0 -0.89109561935E+01  0.90762885847E+01  0.26069155123E+02  0.29006637238E+02  0.51100000000E-03 0.  1.
         11    1    3    3    0    0  0.89109561935E+01 -0.90762885847E+01 -0.72098587765E+02  0.73211956078E+02  0.51100000000E-03 0. -1.
<mgrwt>
<rscale>  0 0.91268462E+02</rscale>
<asrwt>0</asrwt>
<pdfrwt beam="2">  1        1 0.11403694E-01 0.91268462E+02</pdfrwt>
<pdfrwt beam="1">  1       -1 0.43222432E-02 0.91268462E+02</pdfrwt>
<totfact> 0.99271597E+04</totfact>
</mgrwt>
</event>
<event>
 5   1  0.1357339E+00  0.8928165E+02  0.7818608E-02  0.1304601E+00
          1   -1    0    0  501    0  0.00000000000E+00  0.00000000000E+00  0.14838884293E+03  0.14838884301E+03  0.46700000000E-02 0.  1.
         -1   -1    0    0    0  501 -0.00000000000E+00 -0.00000000000E+00 -0.13429602295E+02  0.13429603107E+02  0.46700000000E-02 0. -1.
         23    2    1    2    0    0  0.00000000000E+00  0.00000000000E+00  0.13495924064E+03  0.16181844611E+03  0.89281649118E+02 0.  0.
        -11    1    3    3    0    0  0.90325342431E+01  0.23209463874E+02  0.13462681998E+03  0.13691108993E+03  0.51100000000E-03 0.  1.
         11    1    3    3    0    0 -0.90325342431E+01 -0.23209463874E+02  0.33242065707E+00  0.24907356181E+02  0.51100000000E-03 0. -1.
<mgrwt>
<rscale>  0 0.89281649E+02</rscale>
<asrwt>0</asrwt>
<pdfrwt beam="1">  1        1 0.22829052E-01 0.89281649E+02</pdfrwt>
<pdfrwt beam="2">  1       -1 0.20660928E-02 0.89281649E+02</pdfrwt>
<totfact> 0.11842381E+05</totfact>
</mgrwt>
</event>
<event>
 5   1  0.1357339E+00  0.9442015E+02  0.7818608E-02  0.1292487E+00
         -1   -1    0    0    0  501 -0.00000000000E+00  0.00000000000E+00  0.69832423291E+01  0.69832438906E+01  0.46700000000E-02 0.  1.
          1   -1    0    0  501    0  0.00000000000E+00 -0.00000000000E+00 -0.31916278249E+03  0.31916278252E+03  0.46700000000E-02 0. -1.
         23    2    1    2    0    0  0.00000000000E+00  0.00000000000E+00 -0.31217954016E+03  0.32614602641E+03  0.94420152780E+02 0.  0.
        -11    1    3    3    0    0 -0.19326841478E+02 -0.38460771747E+02 -0.89107372477E+02  0.98958989459E+02  0.51100000000E-03 0. -1.
         11    1    3    3    0    0  0.19326841478E+02  0.38460771747E+02 -0.22307216768E+03  0.22718703695E+03  0.51100000000E-03 0.  1.
<mgrwt>
<rscale>  0 0.94420153E+02</rscale>
<asrwt>0</asrwt>
<pdfrwt beam="2">  1        1 0.49101955E-01 0.94420153E+02</pdfrwt>
<pdfrwt beam="1">  1       -1 0.10743453E-02 0.94420153E+02</pdfrwt>
<totfact> 0.11808336E+05</totfact>
</mgrwt>
</event>
<event>
 5   1  0.1357339E+00  0.8631090E+02  0.7818608E-02  0.1312040E+00
         -1   -1    0    0    0  501 -0.00000000000E+00  0.00000000000E+00  0.79221218520E+02  0.79221218658E+02  0.46700000000E-02 0.  1.
          1   -1    0    0  501    0  0.00000000000E+00 -0.00000000000E+00 -0.23508764087E+02  0.23508764551E+02  0.46700000000E-02 0. -1.
         23    2    1    2    0    0  0.00000000000E+00  0.00000000000E+00  0.55712454433E+02  0.10272998321E+03  0.86310902388E+02 0.  0.
        -11    1    3    3    0    0  0.38161327014E+02  0.13148899174E+02  0.46032612007E+02  0.61222396208E+02  0.51100000000E-03 0. -1.
         11    1    3    3    0    0 -0.38161327014E+02 -0.13148899174E+02  0.96798424260E+01  0.41507587001E+02  0.51100000000E-03 0.  1.
<mgrwt>
<rscale>  0 0.86310902E+02</rscale>
<asrwt>0</asrwt>
<pdfrwt beam="2">  1        1 0.36167330E-02 0.86310902E+02</pdfrwt>
<pdfrwt beam="1">  1       -1 0.12187880E-01 0.86310902E+02</pdfrwt>
<totfact> 0.97546393E+04</totfact>
</mgrwt>
</event>
<event>
 5   1  0.1357339E+00  0.9784693E+02  0.7818608E-02  0.1284890E+00
         -1   -1    0    0    0  501 -0.00000000000E+00  0.00000000000E+00  0.91166823606E+02  0.91166823726E+02  0.46700000000E-02 0.  1.
          1   -1    0    0  501    0  0.00000000000E+00 -0.00000000000E+00 -0.26254126984E+02  0.26254127399E+02  0.46700000000E-02 0. -1.
         23    2    1    2    0    0  0.00000000000E+00  0.00000000000E+00  0.64912696623E+02  0.11742095113E+03  0.97846929335E+02 0.  0.
        -11    1    3    3    0    0  0.47749232061E+02  0.10340325139E+02  0.29374793843E+02  0.57006929403E+02  0.51100000000E-03 0. -1.
         11    1    3    3    0    0 -0.47749232061E+02 -0.10340325139E+02  0.35537902779E+02  0.60414021722E+02  0.51100000000E-03 0.  1.
<mgrwt>
<rscale>  0 0.97846929E+02</rscale>
<asrwt>0</asrwt>
<pdfrwt beam="2">  1        1 0.40390966E-02 0.97846929E+02</pdfrwt>
<pdfrwt beam="1">  1       -1 0.14025665E-01 0.97846929E+02</pdfrwt>
<totfact> 0.69003615E+04</totfact>
</mgrwt>
</event>
<event>
 5   1  0.1357339E+00  0.9118133E+02  0.7818608E-02  0.1300016E+00
          1   -1    0    0  501    0  0.00000000000E+00  0.00000000000E+00  0.30522435175E+03  0.30522435179E+03  0.46700000000E-02 0. -1.
         -1   -1    0    0    0  501 -0.00000000000E+00 -0.00000000000E+00 -0.68097728498E+01  0.68097744510E+01  0.46700000000E-02 0.  1.
         23    2    1    2    0    0  0.00000000000E+00  0.00000000000E+00  0.29841457890E+03  0.31203412624E+03  0.91181330524E+02 0.  0.
        -11    1    3    3    0    0 -0.39438778834E+02 -0.17581061686E+02  0.99146144814E+02  0.10814096836E+03  0.51100000000E-03 0. -1.
         11    1    3    3    0    0  0.39438778834E+02  0.17581061686E+02  0.19926843409E+03  0.20389315788E+03  0.51100000000E-03 0.  1.
<mgrwt>
<rscale>  0 0.91181331E+02</rscale>
<asrwt>0</asrwt>
<pdfrwt beam="1">  1        1 0.46957579E-01 0.91181331E+02</pdfrwt>
<pdfrwt beam="2">  1       -1 0.10476578E-02 0.91181331E+02</pdfrwt>
<totfact> 0.12852629E+05</totfact>
</mgrwt>
</event>
<event>
 5   1  0.1357339E+00  0.9113717E+02  0.7818608E-02  0.1300121E+00
          1   -1    0    0  501    0  0.00000000000E+00  0.00000000000E+00  0.12498217011E+03  0.12498217020E+03  0.46700000000E-02 0. -1.
         -1   -1    0    0    0  501 -0.00000000000E+00 -0.00000000000E+00 -0.16614335224E+02  0.16614335880E+02  0.46700000000E-02 0.  1.
         23    2    1    2    0    0  0.00000000000E+00  0.00000000000E+00  0.10836783489E+03  0.14159650608E+03  0.91137165282E+02 0.  0.
        -11    1    3    3    0    0 -0.10612598213E+02  0.35348654856E+02  0.95708935964E+02  0.10257853121E+03  0.51100000000E-03 0. -1.
         11    1    3    3    0    0  0.10612598213E+02 -0.35348654856E+02  0.12658898925E+02  0.39017974873E+02  0.51100000000E-03 0.  1.
<mgrwt>
<rscale>  0 0.91137165E+02</rscale>
<asrwt>0</asrwt>
<pdfrwt beam="1">  1        1 0.19228027E-01 0.91137165E+02</pdfrwt>
<pdfrwt beam="2">  1       -1 0.25560516E-02 0.91137165E+02</pdfrwt>
<totfact> 0.10863667E+05</totfact>
</mgrwt>
</event>
<event>
 5   1  0.1357339E+00  0.9112624E+02  0.7818608E-02  0.1300147E+00
         -1   -1    0    0    0  501 -0.00000000000E+00  0.00000000000E+00  0.13922978343E+02  0.13922979126E+02  0.46700000000E-02 0.  1.
          1   -1    0    0  501    0  0.00000000000E+00 -0.00000000000E+00 -0.14910587561E+03  0.14910587569E+03  0.46700000000E-02 0. -1.
         23    2    1    2    0    0  0.00000000000E+00  0.00000000000E+00 -0.13518289727E+03  0.16302885481E+03  0.91126240936E+02 0.  0.
        -11    1    3    3    0    0 -0.24898721895E+02 -0.34040878699E+02 -0.98437294886E+02  0.10709168408E+03  0.51100000000E-03 0. -1.
         11    1    3    3    0    0  0.24898721895E+02  0.34040878699E+02 -0.36745602385E+02  0.55937170732E+02  0.51100000000E-03 0.  1.
<mgrwt>
<rscale>  0 0.91126241E+02</rscale>
<asrwt>0</asrwt>
<pdfrwt beam="2">  1        1 0.22939364E-01 0.91126241E+02</pdfrwt>
<pdfrwt beam="1">  1       -1 0.21419968E-02 0.91126241E+02</pdfrwt>
<totfact> 0.11217763E+05</totfact>
</mgrwt>
</event>
<event>
 5   1  0.1357339E+00  0.9773960E+02  0.7818608E-02  0.1285122E+00
         -1   -1    0    0    0  501 -0.00000000000E+00  0.00000000000E+00  0.16889666311E+03  0.16889666318E+03  0.46700000000E-02 0.  1.
          1   -1    0    0  501    0  0.00000000000E+00 -0.00000000000E+00 -0.14140345363E+02  0.14140346134E+02  0.46700000000E-02 0. -1.
         23    2    1    2    0    0  0.00000000000E+00  0.00000000000E+00  0.15475631775E+03  0.18303700931E+03  0.97739597371E+02 0.  0.
        -11    1    3    3    0    0 -0.31152124571E+02  0.37653492172E+02  0.77134813766E+02  0.91312758326E+02  0.51100000000E-03 0.  1.
         11    1    3    3    0    0  0.31152124571E+02 -0.37653492172E+02  0.77621503981E+02  0.91724250984E+02  0.51100000000E-03 0. -1.
<mgrwt>
<rscale>  0 0.97739597E+02</rscale>
<asrwt>0</asrwt>
<pdfrwt beam="2">  1        1 0.21754377E-02 0.97739597E+02</pdfrwt>
<pdfrwt beam="1">  1       -1 0.25984103E-01 0.97739597E+02</pdfrwt>
<totfact> 0.60619216E+04</totfact>
</mgrwt>
</event>
<event>
 5   1  0.1357339E+00  0.9407268E+02  0.7818608E-02  0.1293278E+00
         -1   -1    0    0    0  501 -0.00000000000E+00  0.00000000000E+00  0.19391835898E+03  0.19391835903E+03  0.46700000000E-02 0.  1.
          1   -1    0    0  501    0  0.00000000000E+00 -0.00000000000E+00 -0.11409013144E+02  0.11409014100E+02  0.46700000000E-02 0. -1.
         23    2    1    2    0    0  0.00000000000E+00  0.00000000000E+00  0.18250934583E+03  0.20532737313E+03  0.94072678507E+02 0.  0.
        -11    1    3    3    0    0  0.45966947452E+02 -0.67120446199E+01  0.75155469739E+02  0.88353587551E+02  0.51100000000E-03 0. -1.
         11    1    3    3    0    0 -0.45966947452E+02  0.67120446199E+01  0.10735387609E+03  0.11697378558E+03  0.51100000000E-03 0.  1.
<mgrwt>
<rscale>  0 0.94072679E+02</rscale>
<asrwt>0</asrwt>
<pdfrwt beam="2">  1        1 0.17552329E-02 0.94072679E+02</pdfrwt>
<pdfrwt beam="1">  1       -1 0.29833594E-01 0.94072679E+02</pdfrwt>
<totfact> 0.64547913E+04</totfact>
</mgrwt>
</event>
<event>
 5   1  0.1357339E+00  0.9375969E+02  0.7818608E-02  0.1293994E+00
          1   -1    0    0  501    0  0.00000000000E+00  0.00000000000E+00  0.83719630826E+02  0.83719630956E+02  0.46700000000E-02 0. -1.
         -1   -1    0    0    0  501 -0.00000000000E+00 -0.00000000000E+00 -0.26250947808E+02  0.26250948223E+02  0.46700000000E-02 0.  1.
         23    2    1    2    0    0  0.00000000000E+00  0.00000000000E+00  0.57468683018E+02  0.10997057918E+03  0.93759686205E+02 0.  0.
        -11    1    3    3    0    0  0.40220362660E+02  0.70069925143E+01  0.55760529689E+02  0.69108698353E+02  0.51100000000E-03 0. -1.
         11    1    3    3    0    0 -0.40220362660E+02 -0.70069925143E+01  0.17081533292E+01  0.40861880826E+02  0.51100000000E-03 0.  1.
<mgrwt>
<rscale>  0 0.93759686E+02</rscale>
<asrwt>0</asrwt>
<pdfrwt beam="1">  1        1 0.12879943E-01 0.93759686E+02</pdfrwt>
<pdfrwt beam="2">  1       -1 0.40386074E-02 0.93759686E+02</pdfrwt>
<totfact> 0.93973863E+04</totfact>
</mgrwt>
</event>
<event>
 5   1  0.1357339E+00  0.9138371E+02  0.7818608E-02  0.1299535E+00
          1   -1    0    0  501    0  0.00000000000E+00  0.00000000000E+00  0.34885970412E+02  0.34885970725E+02  0.46700000000E-02 0. -1.
         -1   -1    0    0    0  501 -0.00000000000E+00 -0.00000000000E+00 -0.59844853479E+02  0.59844853661E+02  0.46700000000E-02 0.  1.
         23    2    1    2    0    0  0.00000000000E+00  0.00000000000E+00 -0.24958883066E+02  0.94730824386E+02  0.91383714331E+02 0.  0.
        -11    1    3    3    0    0  0.11514171070E+02 -0.20002990228E+02  0.28399034560E+02  0.36595094175E+02  0.51100000000E-03 0. -1.
         11    1    3    3    0    0 -0.11514171070E+02  0.20002990228E+02 -0.53357917626E+02  0.58135730211E+02  0.51100000000E-03 0.  1.
<mgrwt>
<rscale>  0 0.91383714E+02</rscale>
<asrwt>0</asrwt>
<pdfrwt beam="1">  1        1 0.53670724E-02 0.91383714E+02</pdfrwt>
<pdfrwt beam="2">  1       -1 0.92069006E-02 0.91383714E+02</pdfrwt>
<totfact> 0.88207486E+04</totfact>
</mgrwt>
</event>
<event>
 5   1  0.1357339E+00  0.9226748E+02  0.7818608E-02  0.1297452E+00
          1   -1    0    0  501    0  0.00000000000E+00  0.00000000000E+00  0.13033437006E+03  0.13033437014E+03  0.46700000000E-02 0. -1.
         -1   -1    0    0    0  501 -0.00000000000E+00 -0.00000000000E+00 -0.16329707307E+02  0.16329707975E+02  0.46700000000E-02 0.  1.
         23    2    1    2    0    0  0.00000000000E+00  0.00000000000E+00  0.11400466275E+03  0.14666407811E+03  0.92267484416E+02 0.  0.
        -11    1    3    3    0    0 -0.43742652313E+02  0.14572103590E+02  0.54460867176E+02  0.71356512585E+02  0.51100000000E-03 0.  1.
         11    1    3    3    0    0  0.43742652313E+02 -0.14572103590E+02  0.59543795573E+02  0.75307565529E+02  0.51100000000E-03 0. -1.
<mgrwt>
<rscale>  0 0.92267484E+02</rscale>
<asrwt>0</asrwt>
<pdfrwt beam="1">  1        1 0.20051441E-01 0.92267484E+02</pdfrwt>
<pdfrwt beam="2">  1       -1 0.25122628E-02 0.92267484E+02</pdfrwt>
<totfact> 0.10584945E+05</totfact>
</mgrwt>
</event>
<event>
 5   1  0.1357339E+00  0.9097111E+02  0.7818608E-02  0.1300517E+00
          1   -1    0    0  501    0  0.00000000000E+00  0.00000000000E+00  0.21634751135E+03  0.21634751140E+03  0.46700000000E-02 0. -1.
         -1   -1    0    0    0  501 -0.00000000000E+00 -0.00000000000E+00 -0.95630199883E+01  0.95630211286E+01  0.46700000000E-02 0.  1.
         23    2    1    2    0    0  0.00000000000E+00  0.00000000000E+00  0.20678449136E+03  0.22591053253E+03  0.90971109918E+02 0.  0.
        -11    1    3    3    0    0  0.23310460844E+02 -0.37938913559E+02  0.80336510891E+02  0.91851476467E+02  0.51100000000E-03 0. -1.
         11    1    3    3    0    0 -0.23310460844E+02  0.37938913559E+02  0.12644798047E+03  0.13405905606E+03  0.51100000000E-03 0.  1.
<mgrwt>
<rscale>  0 0.90971110E+02</rscale>
<asrwt>0</asrwt>
<pdfrwt beam="1">  1        1 0.33284230E-01 0.90971110E+02</pdfrwt>
<pdfrwt beam="2">  1       -1 0.14712341E-02 0.90971110E+02</pdfrwt>
<totfact> 0.12095962E+05</totfact>
</mgrwt>
</event>
<event>
 5   1  0.1357339E+00  0.9059823E+02  0.7818608E-02  0.1301409E+00
          1   -1    0    0  501    0  0.00000000000E+00  0.00000000000E+00  0.18719397520E+02  0.18719398102E+02  0.46700000000E-02 0. -1.
         -1   -1    0    0    0  501 -0.00000000000E+00 -0.00000000000E+00 -0.10961944448E+03  0.10961944458E+03  0.46700000000E-02 0.  1.
         23    2    1    2    0    0  0.00000000000E+00  0.00000000000E+00 -0.90900046965E+02  0.12833884269E+03  0.90598234000E+02 0.  0.
        -11    1    3    3    0    0  0.14142958172E+02 -0.32443864141E+02 -0.53988097710E+01  0.35801881703E+02  0.51100000000E-03 0. -1.
         11    1    3    3    0    0 -0.14142958172E+02  0.32443864141E+02 -0.85501237194E+02  0.92536960984E+02  0.51100000000E-03 0.  1.
<mgrwt>
<rscale>  0 0.90598234E+02</rscale>
<asrwt>0</asrwt>
<pdfrwt beam="1">  1        1 0.28799074E-02 0.90598234E+02</pdfrwt>
<pdfrwt beam="2">  1       -1 0.16864530E-01 0.90598234E+02</pdfrwt>
<totfact> 0.81284867E+04</totfact>
</mgrwt>
</event>
<event>
 5   1  0.1357339E+00  0.9120844E+02  0.7818608E-02  0.1299951E+00
          1   -1    0    0  501    0  0.00000000000E+00  0.00000000000E+00  0.15569935303E+03  0.15569935310E+03  0.46700000000E-02 0. -1.
         -1   -1    0    0    0  501 -0.00000000000E+00 -0.00000000000E+00 -0.13357440748E+02  0.13357441564E+02  0.46700000000E-02 0.  1.
         23    2    1    2    0    0  0.00000000000E+00  0.00000000000E+00  0.14234191228E+03  0.16905679466E+03  0.91208441658E+02 0.  0.
        -11    1    3    3    0    0 -0.49199422731E+01  0.33318055768E+02  0.12816323525E+03  0.13251457860E+03  0.51100000000E-03 0. -1.
         11    1    3    3    0    0  0.49199422731E+01 -0.33318055768E+02  0.14178677034E+02  0.36542216063E+02  0.51100000000E-03 0.  1.
<mgrwt>
<rscale>  0 0.91208442E+02</rscale>
<asrwt>0</asrwt>
<pdfrwt beam="1">  1        1 0.23953746E-01 0.91208442E+02</pdfrwt>
<pdfrwt beam="2">  1       -1 0.20549910E-02 0.91208442E+02</pdfrwt>
<totfact> 0.11280167E+05</totfact>
</mgrwt>
</event>
<event>
 5   1  0.1357339E+00  0.9376291E+02  0.7818608E-02  0.1293987E+00
         -1   -1    0    0    0  501 -0.00000000000E+00  0.00000000000E+00  0.21064837731E+03  0.21064837736E+03  0.46700000000E-02 0. -1.
          1   -1    0    0  501    0  0.00000000000E+00 -0.00000000000E+00 -0.10433836125E+02  0.10433837170E+02  0.46700000000E-02 0.  1.
         23    2    1    2    0    0  0.00000000000E+00  0.00000000000E+00  0.20021454118E+03  0.22108221453E+03  0.93762908873E+02 0.  0.
        -11    1    3    3    0    0  0.96618011674E+00  0.34741832770E+02  0.17429424843E+03  0.17772566918E+03  0.51100000000E-03 0. -1.
         11    1    3    3    0    0 -0.96618011674E+00 -0.34741832770E+02  0.25920292751E+02  0.43356545352E+02  0.51100000000E-03 0.  1.
<mgrwt>
<rscale>  0 0.93762909E+02</rscale>
<asrwt>0</asrwt>
<pdfrwt beam="2">  1        1 0.16052055E-02 0.93762909E+02</pdfrwt>
<pdfrwt beam="1">  1       -1 0.32407445E-01 0.93762909E+02</pdfrwt>
<totfact> 0.63566557E+04</totfact>
</mgrwt>
</event>
<event>
 5   1  0.1357339E+00  0.9879147E+02  0.7818608E-02  0.1282858E+00
         -1   -1    0    0    0  501 -0.00000000000E+00  0.00000000000E+00  0.25766486022E+02  0.25766486446E+02  0.46700000000E-02 0.  1.
          1   -1    0    0  501    0  0.00000000000E+00 -0.00000000000E+00 -0.94694268614E+02  0.94694268729E+02  0.46700000000E-02 0. -1.
         23    2    1    2    0    0  0.00000000000E+00  0.00000000000E+00 -0.68927782591E+02  0.12046075517E+03  0.98791468884E+02 0.  0.
        -11    1    3    3    0    0  0.14391343835E+02  0.37417833684E+02  0.72285936326E+00  0.40096478410E+02  0.51100000000E-03 0.  1.
         11    1    3    3    0    0 -0.14391343835E+02 -0.37417833684E+02 -0.69650641955E+02  0.80364276765E+02  0.51100000000E-03 0. -1.
<mgrwt>
<rscale>  0 0.98791469E+02</rscale>
<asrwt>0</asrwt>
<pdfrwt beam="2">  1        1 0.14568349E-01 0.98791469E+02</pdfrwt>
<pdfrwt beam="1">  1       -1 0.39640749E-02 0.98791469E+02</pdfrwt>
<totfact> 0.83045781E+04</totfact>
</mgrwt>
</event>
<event>
 5   1  0.1357339E+00  0.9182368E+02  0.7818608E-02  0.1298495E+00
         -1   -1    0    0    0  501 -0.00000000000E+00  0.00000000000E+00  0.39301612985E+02  0.39301613263E+02  0.46700000000E-02 0.  1.
          1   -1    0    0  501    0  0.00000000000E+00 -0.00000000000E+00 -0.53633854256E+02  0.53633854459E+02  0.46700000000E-02 0. -1.
         23    2    1    2    0    0  0.00000000000E+00  0.00000000000E+00 -0.14332241271E+02  0.92935467722E+02  0.91823678977E+02 0.  0.
        -11    1    3    3    0    0  0.18909625232E+02 -0.23846902692E+02 -0.41957441652E+02  0.51833151598E+02  0.51100000000E-03 0. -1.
         11    1    3    3    0    0 -0.18909625232E+02  0.23846902692E+02  0.27625200381E+02  0.41102316124E+02  0.51100000000E-03 0.  1.
<mgrwt>
<rscale>  0 0.91823679E+02</rscale>
<asrwt>0</asrwt>
<pdfrwt beam="2">  1        1 0.82513623E-02 0.91823679E+02</pdfrwt>
<pdfrwt beam="1">  1       -1 0.60464020E-02 0.91823679E+02</pdfrwt>
<totfact> 0.92905387E+04</totfact>
</mgrwt>
</event>
<event>
 5   1  0.1357339E+00  0.9306597E+02  0.7818608E-02  0.1295592E+00
         -1   -1    0    0    0  501 -0.00000000000E+00  0.00000000000E+00  0.13004051352E+02  0.13004052191E+02  0.46700000000E-02 0.  1.
          1   -1    0    0  501    0  0.00000000000E+00 -0.00000000000E+00 -0.16651107294E+03  0.16651107300E+03  0.46700000000E-02 0. -1.
         23    2    1    2    0    0  0.00000000000E+00  0.00000000000E+00 -0.15350702159E+03  0.17951512519E+03  0.93065968523E+02 0.  0.
        -11    1    3    3    0    0  0.45943824856E+02  0.54472121605E+01 -0.86361584288E+02  0.97973620959E+02  0.51100000000E-03 0. -1.
         11    1    3    3    0    0 -0.45943824856E+02 -0.54472121605E+01 -0.67145437297E+02  0.81541504235E+02  0.51100000000E-03 0.  1.
<mgrwt>
<rscale>  0 0.93065969E+02</rscale>
<asrwt>0</asrwt>
<pdfrwt beam="2">  1        1 0.25617087E-01 0.93065969E+02</pdfrwt>
<pdfrwt beam="1">  1       -1 0.20006235E-02 0.93065969E+02</pdfrwt>
<totfact> 0.10817804E+05</totfact>
</mgrwt>
</event>
<event>
 5   1  0.1357339E+00  0.9273650E+02  0.7818608E-02  0.1296357E+00
         -1   -1    0    0    0  501 -0.00000000000E+00  0.00000000000E+00  0.12841166400E+03  0.12841166408E+03  0.46700000000E-02 0.  1.
          1   -1    0    0  501    0  0.00000000000E+00 -0.00000000000E+00 -0.16743141860E+02  0.16743142511E+02  0.46700000000E-02 0. -1.
         23    2    1    2    0    0  0.00000000000E+00  0.00000000000E+00  0.11166852214E+03  0.14515480659E+03  0.92736503282E+02 0.  0.
        -11    1    3    3    0    0 -0.21458154862E+01  0.30504215755E+02  0.11039139126E+03  0.11454855288E+03  0.51100000000E-03 0.  1.
         11    1    3    3    0    0  0.21458154862E+01 -0.30504215755E+02  0.12771308812E+01  0.30606253715E+02  0.51100000000E-03 0. -1.
<mgrwt>
<rscale>  0 0.92736503E+02</rscale>
<asrwt>0</asrwt>
<pdfrwt beam="2">  1        1 0.25758681E-02 0.92736503E+02</pdfrwt>
<pdfrwt beam="1">  1       -1 0.19755640E-01 0.92736503E+02</pdfrwt>
<totfact> 0.74097750E+04</totfact>
</mgrwt>
</event>
<event>
 5   1  0.1357339E+00  0.9999237E+02  0.7818608E-02  0.1280312E+00
          1   -1    0    0  501    0  0.00000000000E+00  0.00000000000E+00  0.18761879483E+03  0.18761879489E+03  0.46700000000E-02 0. -1.
         -1   -1    0    0    0  501 -0.00000000000E+00 -0.00000000000E+00 -0.13322858251E+02  0.13322859070E+02  0.46700000000E-02 0.  1.
         23    2    1    2    0    0  0.00000000000E+00  0.00000000000E+00  0.17429593658E+03  0.20094165396E+03  0.99992373647E+02 0.  0.
        -11    1    3    3    0    0 -0.29238930650E+01 -0.47483100233E+02  0.11804733319E+03  0.12727280476E+03  0.51100000000E-03 0. -1.
         11    1    3    3    0    0  0.29238930650E+01  0.47483100233E+02  0.56248603387E+02  0.73668849195E+02  0.51100000000E-03 0.  1.
<mgrwt>
<rscale>  0 0.99992374E+02</rscale>
<asrwt>0</asrwt>
<pdfrwt beam="1">  1        1 0.28864429E-01 0.99992374E+02</pdfrwt>
<pdfrwt beam="2">  1       -1 0.20496706E-02 0.99992374E+02</pdfrwt>
<totfact> 0.91152281E+04</totfact>
</mgrwt>
</event>
<event>
 5   1  0.1357339E+00  0.9114413E+02  0.7818608E-02  0.1300104E+00
         -1   -1    0    0    0  501 -0.00000000000E+00  0.00000000000E+00  0.10539110276E+03  0.10539110287E+03  0.46700000000E-02 0.  1.
          1   -1    0    0  501    0  0.00000000000E+00 -0.00000000000E+00 -0.19705770233E+02  0.19705770786E+02  0.46700000000E-02 0. -1.
         23    2    1    2    0    0  0.00000000000E+00  0.00000000000E+00  0.85685332532E+02  0.12509687365E+03  0.91144125355E+02 0.  0.
        -11    1    3    3    0    0  0.12794868916E+02  0.34502913424E+02  0.79738959476E+02  0.87820620380E+02  0.51100000000E-03 0.  1.
         11    1    3    3    0    0 -0.12794868916E+02 -0.34502913424E+02  0.59463730556E+01  0.37276253274E+02  0.51100000000E-03 0. -1.
<mgrwt>
<rscale>  0 0.91144125E+02</rscale>
<asrwt>0</asrwt>
<pdfrwt beam="2">  1        1 0.30316569E-02 0.91144125E+02</pdfrwt>
<pdfrwt beam="1">  1       -1 0.16214016E-01 0.91144125E+02</pdfrwt>
<totfact> 0.80644468E+04</totfact>
</mgrwt>
</event>
<event>
 5   1  0.1357339E+00  0.9107905E+02  0.7818608E-02  0.1300259E+00
          1   -1    0    0  501    0  0.00000000000E+00  0.00000000000E+00  0.92110359687E+01  0.92110371525E+01  0.46700000000E-02 0. -1.
         -1   -1    0    0    0  501 -0.00000000000E+00 -0.00000000000E+00 -0.22514819125E+03  0.22514819130E+03  0.46700000000E-02 0.  1.
         23    2    1    2    0    0  0.00000000000E+00  0.00000000000E+00 -0.21593715528E+03  0.23435922845E+03  0.91079047695E+02 0.  0.
        -11    1    3    3    0    0  0.37054206793E+02  0.21452055217E+02 -0.14788489638E+03  0.15395826542E+03  0.51100000000E-03 0.  1.
         11    1    3    3    0    0 -0.37054206793E+02 -0.21452055217E+02 -0.68052258896E+02  0.80400963024E+02  0.51100000000E-03 0. -1.
<mgrwt>
<rscale>  0 0.91079048E+02</rscale>
<asrwt>0</asrwt>
<pdfrwt beam="1">  1        1 0.14170827E-02 0.91079048E+02</pdfrwt>
<pdfrwt beam="2">  1       -1 0.34638179E-01 0.91079048E+02</pdfrwt>
<totfact> 0.67197522E+04</totfact>
</mgrwt>
</event>
<event>
 5   1  0.1357339E+00  0.9042265E+02  0.7818608E-02  0.1301831E+00
         -1   -1    0    0    0  501 -0.00000000000E+00  0.00000000000E+00  0.76686387415E+01  0.76686401635E+01  0.46700000000E-02 0.  1.
          1   -1    0    0  501    0  0.00000000000E+00 -0.00000000000E+00 -0.26654845188E+03  0.26654845192E+03  0.46700000000E-02 0. -1.
         23    2    1    2    0    0  0.00000000000E+00  0.00000000000E+00 -0.25887981314E+03  0.27421709209E+03  0.90422651701E+02 0.  0.
        -11    1    3    3    0    0 -0.41065597767E+02 -0.57849970465E+01 -0.18404504117E+03  0.18865955235E+03  0.51100000000E-03 0. -1.
         11    1    3    3    0    0  0.41065597767E+02  0.57849970465E+01 -0.74834771968E+02  0.85557539741E+02  0.51100000000E-03 0.  1.
<mgrwt>
<rscale>  0 0.90422652E+02</rscale>
<asrwt>0</asrwt>
<pdfrwt beam="2">  1        1 0.41007447E-01 0.90422652E+02</pdfrwt>
<pdfrwt beam="1">  1       -1 0.11797909E-02 0.90422652E+02</pdfrwt>
<totfact> 0.12803214E+05</totfact>
</mgrwt>
</event>
<event>
 5   1  0.1357339E+00  0.9291452E+02  0.7818608E-02  0.1295943E+00
         -1   -1    0    0    0  501 -0.00000000000E+00  0.00000000000E+00  0.14733486277E+03  0.14733486284E+03  0.46700000000E-02 0.  1.
          1   -1    0    0  501    0  0.00000000000E+00 -0.00000000000E+00 -0.14648785069E+02  0.14648785813E+02  0.46700000000E-02 0. -1.
         23    2    1    2    0    0  0.00000000000E+00  0.00000000000E+00  0.13268607770E+03  0.16198364866E+03  0.92914515640E+02 0.  0.
        -11    1    3    3    0    0  0.15718806679E+02 -0.16458156334E+02  0.13695081988E+03  0.13882895541E+03  0.51100000000E-03 0.  1.
         11    1    3    3    0    0 -0.15718806679E+02  0.16458156334E+02 -0.42647421803E+01  0.23154693249E+02  0.51100000000E-03 0. -1.
<mgrwt>
<rscale>  0 0.92914516E+02</rscale>
<asrwt>0</asrwt>
<pdfrwt beam="2">  1        1 0.22536595E-02 0.92914516E+02</pdfrwt>
<pdfrwt beam="1">  1       -1 0.22666901E-01 0.92914516E+02</pdfrwt>
<totfact> 0.71506252E+04</totfact>
</mgrwt>
</event>
<event>
 5   1  0.1357339E+00  0.9134597E+02  0.7818608E-02  0.1299625E+00
          1   -1    0    0  501    0  0.00000000000E+00  0.00000000000E+00  0.83301527423E+02  0.83301527554E+02  0.46700000000E-02 0. -1.
         -1   -1    0    0    0  501 -0.00000000000E+00 -0.00000000000E+00 -0.25041818713E+02  0.25041819149E+02  0.46700000000E-02 0.  1.
         23    2    1    2    0    0  0.00000000000E+00  0.00000000000E+00  0.58259708710E+02  0.10834334670E+03  0.91345974820E+02 0.  0.
        -11    1    3    3    0    0 -0.42304962850E+02  0.70224289670E+01  0.10489291901E+02  0.44148042258E+02  0.51100000000E-03 0.  1.
         11    1    3    3    0    0  0.42304962850E+02 -0.70224289670E+01  0.47770416809E+02  0.64195304445E+02  0.51100000000E-03 0. -1.
<mgrwt>
<rscale>  0 0.91345975E+02</rscale>
<asrwt>0</asrwt>
<pdfrwt beam="1">  1        1 0.12815620E-01 0.91345975E+02</pdfrwt>
<pdfrwt beam="2">  1       -1 0.38525875E-02 0.91345975E+02</pdfrwt>
<totfact> 0.10087762E+05</totfact>
</mgrwt>
</event>
<event>
 5   1  0.1357339E+00  0.8264586E+02  0.7818608E-02  0.1321706E+00
          1   -1    0    0  501    0  0.00000000000E+00  0.00000000000E+00  0.28269049319E+03  0.28269049323E+03  0.46700000000E-02 0. -1.
         -1   -1    0    0    0  501 -0.00000000000E+00 -0.00000000000E+00 -0.60404728262E+01  0.60404746315E+01  0.46700000000E-02 0.  1.
         23    2    1    2    0    0  0.00000000000E+00  0.00000000000E+00  0.27665002037E+03  0.28873096786E+03  0.82645859147E+02 0.  0.
        -11    1    3    3    0    0 -0.40201277087E+01  0.40374705751E+02  0.11097077813E+03  0.11815579499E+03  0.51100000000E-03 0.  1.
         11    1    3    3    0    0  0.40201277087E+01 -0.40374705751E+02  0.16567924224E+03  0.17057517287E+03  0.51100000000E-03 0. -1.
<mgrwt>
<rscale>  0 0.82645859E+02</rscale>
<asrwt>0</asrwt>
<pdfrwt beam="1">  1        1 0.43490854E-01 0.82645859E+02</pdfrwt>
<pdfrwt beam="2">  1       -1 0.92930347E-03 0.82645859E+02</pdfrwt>
<totfact> 0.16436385E+05</totfact>
</mgrwt>
</event>
<event>
 5   1  0.1357339E+00  0.8913875E+02  0.7818608E-02  0.1304951E+00
          1   -1    0    0  501    0  0.00000000000E+00  0.00000000000E+00  0.86931176540E+01  0.86931189084E+01  0.46700000000E-02 0. -1.
         -1   -1    0    0    0  501 -0.00000000000E+00 -0.00000000000E+00 -0.22850596209E+03  0.22850596214E+03  0.46700000000E-02 0.  1.
         23    2    1    2    0    0  0.00000000000E+00  0.00000000000E+00 -0.21981284444E+03  0.23719908105E+03  0.89138754031E+02 0.  0.
        -11    1    3    3    0    0 -0.98459888399E+01  0.40076124016E+02 -0.15470237954E+03  0.16011204030E+03  0.51100000000E-03 0.  1.
         11    1    3    3    0    0  0.98459888399E+01 -0.40076124016E+02 -0.65110464901E+02  0.77087040755E+02  0.51100000000E-03 0. -1.
<mgrwt>
<rscale>  0 0.89138754E+02</rscale>
<asrwt>0</asrwt>
<pdfrwt beam="1">  1        1 0.13374030E-02 0.89138754E+02</pdfrwt>
<pdfrwt beam="2">  1       -1 0.35154759E-01 0.89138754E+02</pdfrwt>
<totfact> 0.70745169E+04</totfact>
</mgrwt>
</event>
<event>
 5   1  0.1357339E+00  0.9007293E+02  0.7818608E-02  0.1302675E+00
          1   -1    0    0  501    0  0.00000000000E+00  0.00000000000E+00  0.15796415520E+03  0.15796415527E+03  0.46700000000E-02 0. -1.
         -1   -1    0    0    0  501 -0.00000000000E+00 -0.00000000000E+00 -0.12840148993E+02  0.12840149843E+02  0.46700000000E-02 0.  1.
         23    2    1    2    0    0  0.00000000000E+00  0.00000000000E+00  0.14512400621E+03  0.17080430511E+03  0.90072934156E+02 0.  0.
        -11    1    3    3    0    0 -0.36926220001E+02  0.46475161106E+01  0.12065221249E+03  0.12626203510E+03  0.51100000000E-03 0.  1.
         11    1    3    3    0    0  0.36926220001E+02 -0.46475161106E+01  0.24471793718E+02  0.44542270009E+02  0.51100000000E-03 0. -1.
<mgrwt>
<rscale>  0 0.90072934E+02</rscale>
<asrwt>0</asrwt>
<pdfrwt beam="1">  1        1 0.24302176E-01 0.90072934E+02</pdfrwt>
<pdfrwt beam="2">  1       -1 0.19754078E-02 0.90072934E+02</pdfrwt>
<totfact> 0.11698243E+05</totfact>
</mgrwt>
</event>
<event>
 5   1  0.1357339E+00  0.9304651E+02  0.7818608E-02  0.1295637E+00
         -1   -1    0    0    0  501 -0.00000000000E+00  0.00000000000E+00  0.67987202109E+01  0.67987218148E+01  0.46700000000E-02 0.  1.
          1   -1    0    0  501    0  0.00000000000E+00 -0.00000000000E+00 -0.31835596895E+03  0.31835596898E+03  0.46700000000E-02 0. -1.
         23    2    1    2    0    0  0.00000000000E+00  0.00000000000E+00 -0.31155724874E+03  0.32515469080E+03  0.93046513673E+02 0.  0.
        -11    1    3    3    0    0  0.42214356779E+02  0.15716417171E+02 -0.19643496218E+03  0.20153350107E+03  0.51100000000E-03 0. -1.
         11    1    3    3    0    0 -0.42214356779E+02 -0.15716417171E+02 -0.11512228656E+03  0.12362118973E+03  0.51100000000E-03 0.  1.
<mgrwt>
<rscale>  0 0.93046514E+02</rscale>
<asrwt>0</asrwt>
<pdfrwt beam="2">  1        1 0.48977830E-01 0.93046514E+02</pdfrwt>
<pdfrwt beam="1">  1       -1 0.10459573E-02 0.93046514E+02</pdfrwt>
<totfact> 0.12273946E+05</totfact>
</mgrwt>
</event>
<event>
 5   1  0.1357339E+00  0.9013106E+02  0.7818608E-02  0.1302535E+00
          1   -1    0    0  501    0  0.00000000000E+00  0.00000000000E+00  0.31484008182E+03  0.31484008185E+03  0.46700000000E-02 0. -1.
         -1   -1    0    0    0  501 -0.00000000000E+00 -0.00000000000E+00 -0.64505817054E+01  0.64505833959E+01  0.46700000000E-02 0.  1.
         23    2    1    2    0    0  0.00000000000E+00  0.00000000000E+00  0.30838950011E+03  0.32129066525E+03  0.90131058998E+02 0.  0.
        -11    1    3    3    0    0  0.30069741720E+02 -0.32779940434E+02  0.17994665270E+03  0.18536318858E+03  0.51100000000E-03 0. -1.
         11    1    3    3    0    0 -0.30069741720E+02  0.32779940434E+02  0.12844284740E+03  0.13592747666E+03  0.51100000000E-03 0.  1.
<mgrwt>
<rscale>  0 0.90131059E+02</rscale>
<asrwt>0</asrwt>
<pdfrwt beam="1">  1        1 0.48436951E-01 0.90131059E+02</pdfrwt>
<pdfrwt beam="2">  1       -1 0.99239701E-03 0.90131059E+02</pdfrwt>
<totfact> 0.13332684E+05</totfact>
</mgrwt>
</event>
<event>
 5   1  0.1357339E+00  0.8865261E+02  0.7818608E-02  0.1306148E+00
         -1   -1    0    0    0  501 -0.00000000000E+00  0.00000000000E+00  0.15313537187E+02  0.15313537899E+02  0.46700000000E-02 0.  1.
          1   -1    0    0  501    0  0.00000000000E+00 -0.00000000000E+00 -0.12830616808E+03  0.12830616817E+03  0.46700000000E-02 0. -1.
         23    2    1    2    0    0  0.00000000000E+00  0.00000000000E+00 -0.11299263089E+03  0.14361970607E+03  0.88652610418E+02 0.  0.
        -11    1    3    3    0    0 -0.88922878520E+01  0.21102996190E+02  0.49882186045E+01  0.23436969867E+02  0.51100000000E-03 0.  1.
         11    1    3    3    0    0  0.88922878520E+01 -0.21102996190E+02 -0.11798084950E+03  0.12018273620E+03  0.51100000000E-03 0. -1.
<mgrwt>
<rscale>  0 0.88652610E+02</rscale>
<asrwt>0</asrwt>
<pdfrwt beam="2">  1        1 0.19739410E-01 0.88652610E+02</pdfrwt>
<pdfrwt beam="1">  1       -1 0.23559289E-02 0.88652610E+02</pdfrwt>
<totfact> 0.11760094E+05</totfact>
</mgrwt>
</event>
<event>
 5   1  0.1357339E+00  0.8979755E+02  0.7818608E-02  0.1303343E+00
         -1   -1    0    0    0  501 -0.00000000000E+00  0.00000000000E+00  0.21064087063E+02  0.21064087581E+02  0.46700000000E-02 0.  1.
          1   -1    0    0  501    0  0.00000000000E+00 -0.00000000000E+00 -0.95703176933E+02  0.95703177047E+02  0.46700000000E-02 0. -1.
         23    2    1    2    0    0  0.00000000000E+00  0.00000000000E+00 -0.74639089870E+02  0.11676726463E+03  0.89797552039E+02 0.  0.
        -11    1    3    3    0    0 -0.37811407471E+02  0.18135912011E+02 -0.16461917955E+02  0.45051177370E+02  0.51100000000E-03 0.  1.
         11    1    3    3    0    0  0.37811407471E+02 -0.18135912011E+02 -0.58177171914E+02  0.71716087258E+02  0.51100000000E-03 0. -1.
<mgrwt>
<rscale>  0 0.89797552E+02</rscale>
<asrwt>0</asrwt>
<pdfrwt beam="2">  1        1 0.14723565E-01 0.89797552E+02</pdfrwt>
<pdfrwt beam="1">  1       -1 0.32406289E-02 0.89797552E+02</pdfrwt>
<totfact> 0.10809341E+05</totfact>
</mgrwt>
</event>
<event>
 5   1  0.1357339E+00  0.8945645E+02  0.7818608E-02  0.1304173E+00
         -1   -1    0    0    0  501 -0.00000000000E+00  0.00000000000E+00  0.31646356759E+02  0.31646357103E+02  0.46700000000E-02 0.  1.
          1   -1    0    0  501    0  0.00000000000E+00 -0.00000000000E+00 -0.63217830119E+02  0.63217830292E+02  0.46700000000E-02 0. -1.
         23    2    1    2    0    0  0.00000000000E+00  0.00000000000E+00 -0.31571473360E+02  0.94864187395E+02  0.89456448174E+02 0.  0.
        -11    1    3    3    0    0  0.25995320779E+02  0.14279009251E+02 -0.51290538842E+02  0.59248343290E+02  0.51100000000E-03 0. -1.
         11    1    3    3    0    0 -0.25995320779E+02 -0.14279009251E+02  0.19719065482E+02  0.35615844105E+02  0.51100000000E-03 0.  1.
<mgrwt>
<rscale>  0 0.89456448E+02</rscale>
<asrwt>0</asrwt>
<pdfrwt beam="2">  1        1 0.97258201E-02 0.89456448E+02</pdfrwt>
<pdfrwt beam="1">  1       -1 0.48686703E-02 0.89456448E+02</pdfrwt>
<totfact> 0.10238610E+05</totfact>
</mgrwt>
</event>
<event>
 5   1  0.1357339E+00  0.9566596E+02  0.7818608E-02  0.1289683E+00
          1   -1    0    0  501    0  0.00000000000E+00  0.00000000000E+00  0.14307418076E+02  0.14307418838E+02  0.46700000000E-02 0. -1.
         -1   -1    0    0    0  501 -0.00000000000E+00 -0.00000000000E+00 -0.15991663170E+03  0.15991663176E+03  0.46700000000E-02 0.  1.
         23    2    1    2    0    0  0.00000000000E+00  0.00000000000E+00 -0.14560921362E+03  0.17422405060E+03  0.95665964257E+02 0.  0.
        -11    1    3    3    0    0 -0.45308864666E+02 -0.72390203441E+01 -0.97420580015E+02  0.10768503166E+03  0.51100000000E-03 0.  1.
         11    1    3    3    0    0  0.45308864666E+02  0.72390203441E+01 -0.48188633605E+02  0.66539018943E+02  0.51100000000E-03 0. -1.
<mgrwt>
<rscale>  0 0.95665964E+02</rscale>
<asrwt>0</asrwt>
<pdfrwt beam="1">  1        1 0.22011414E-02 0.95665964E+02</pdfrwt>
<pdfrwt beam="2">  1       -1 0.24602558E-01 0.95665964E+02</pdfrwt>
<totfact> 0.64990903E+04</totfact>
</mgrwt>
</event>
<event>
 5   1  0.1357339E+00  0.9044540E+02  0.7818608E-02  0.1301777E+00
         -1   -1    0    0    0  501 -0.00000000000E+00  0.00000000000E+00  0.13685755714E+02  0.13685756510E+02  0.46700000000E-02 0.  1.
          1   -1    0    0  501    0  0.00000000000E+00 -0.00000000000E+00 -0.14943220904E+03  0.14943220911E+03  0.46700000000E-02 0. -1.
         23    2    1    2    0    0  0.00000000000E+00  0.00000000000E+00 -0.13574645332E+03  0.16311796562E+03  0.90445404074E+02 0.  0.
        -11    1    3    3    0    0 -0.21072165518E+02 -0.22389182946E+02 -0.12768248545E+03  0.13133213150E+03  0.51100000000E-03 0. -1.
         11    1    3    3    0    0  0.21072165518E+02  0.22389182946E+02 -0.80639678700E+01  0.31785834120E+02  0.51100000000E-03 0.  1.
<mgrwt>
<rscale>  0 0.90445404E+02</rscale>
<asrwt>0</asrwt>
<pdfrwt beam="2">  1        1 0.22989570E-01 0.90445404E+02</pdfrwt>
<pdfrwt beam="1">  1       -1 0.21055011E-02 0.90445404E+02</pdfrwt>
<totfact> 0.11451380E+05</totfact>
</mgrwt>
</event>
<event>
 5   1  0.1357339E+00  0.9209661E+02  0.7818608E-02  0.1297852E+00
         -1   -1    0    0    0  501 -0.00000000000E+00  0.00000000000E+00  0.37576891236E+03  0.37576891238E+03  0.46700000000E-02 0.  1.
          1   -1    0    0  501    0  0.00000000000E+00 -0.00000000000E+00 -0.56429519466E+01  0.56429538790E+01  0.46700000000E-02 0. -1.
         23    2    1    2    0    0  0.00000000000E+00  0.00000000000E+00  0.37012596041E+03  0.38141186626E+03  0.92096607744E+02 0.  0.
        -11    1    3    3    0    0  0.63186113242E+01 -0.45418033771E+02  0.20249818815E+03  0.20762523653E+03  0.51100000000E-03 0.  1.
         11    1    3    3    0    0 -0.63186113242E+01  0.45418033771E+02  0.16762777226E+03  0.17378662974E+03  0.51100000000E-03 0. -1.
<mgrwt>
<rscale>  0 0.92096608E+02</rscale>
<asrwt>0</asrwt>
<pdfrwt beam="2">  1        1 0.86814654E-03 0.92096608E+02</pdfrwt>
<pdfrwt beam="1">  1       -1 0.57810606E-01 0.92096608E+02</pdfrwt>
<totfact> 0.53525144E+04</totfact>
</mgrwt>
</event>
<event>
 5   1  0.1357339E+00  0.8974221E+02  0.7818608E-02  0.1303477E+00
          1   -1    0    0  501    0  0.00000000000E+00  0.00000000000E+00  0.14328672825E+03  0.14328672833E+03  0.46700000000E-02 0. -1.
         -1   -1    0    0    0  501 -0.00000000000E+00 -0.00000000000E+00 -0.14051657737E+02  0.14051658513E+02  0.46700000000E-02 0.  1.
         23    2    1    2    0    0  0.00000000000E+00  0.00000000000E+00  0.12923507051E+03  0.15733838684E+03  0.89742211488E+02 0.  0.
        -11    1    3    3    0    0  0.23604352909E+02  0.28507067694E+02  0.10909552831E+03  0.11520265918E+03  0.51100000000E-03 0. -1.
         11    1    3    3    0    0 -0.23604352909E+02 -0.28507067694E+02  0.20139542199E+02  0.42135727655E+02  0.51100000000E-03 0.  1.
<mgrwt>
<rscale>  0 0.89742211E+02</rscale>
<asrwt>0</asrwt>
<pdfrwt beam="1">  1        1 0.22044111E-01 0.89742211E+02</pdfrwt>
<pdfrwt beam="2">  1       -1 0.21617937E-02 0.89742211E+02</pdfrwt>
<totfact> 0.11605536E+05</totfact>
</mgrwt>
</event>
<event>
 5   1  0.1357339E+00  0.9143232E+02  0.7818608E-02  0.1299420E+00
          1   -1    0    0  501    0  0.00000000000E+00  0.00000000000E+00  0.26635929608E+03  0.26635929612E+03  0.46700000000E-02 0. -1.
         -1   -1    0    0    0  501 -0.00000000000E+00 -0.00000000000E+00 -0.78464200682E+01  0.78464214580E+01  0.46700000000E-02 0.  1.
         23    2    1    2    0    0  0.00000000000E+00  0.00000000000E+00  0.25851287601E+03  0.27420571758E+03  0.91432316437E+02 0.  0.
        -11    1    3    3    0    0 -0.32893982833E+02  0.17244992748E+02  0.20919901643E+03  0.21247030936E+03  0.51100000000E-03 0. -1.
         11    1    3    3    0    0  0.32893982833E+02 -0.17244992748E+02  0.49313859581E+02  0.61735408224E+02  0.51100000000E-03 0.  1.
<mgrwt>
<rscale>  0 0.91432316E+02</rscale>
<asrwt>0</asrwt>
<pdfrwt beam="1">  1        1 0.40978359E-01 0.91432316E+02</pdfrwt>
<pdfrwt beam="2">  1       -1 0.12071415E-02 0.91432316E+02</pdfrwt>
<totfact> 0.12427780E+05</totfact>
</mgrwt>
</event>
<event>
 5   1  0.1357339E+00  0.9011262E+02  0.7818608E-02  0.1302579E+00
         -1   -1    0    0    0  501 -0.00000000000E+00  0.00000000000E+00  0.15008797442E+02  0.15008798169E+02  0.46700000000E-02 0.  1.
          1   -1    0    0  501    0  0.00000000000E+00 -0.00000000000E+00 -0.13525872930E+03  0.13525872938E+03  0.46700000000E-02 0. -1.
         23    2    1    2    0    0  0.00000000000E+00  0.00000000000E+00 -0.12024993186E+03  0.15026752755E+03  0.90112616897E+02 0.  0.
        -11    1    3    3    0    0  0.42443002291E+02 -0.13062538977E+02 -0.47421699296E+02  0.64968114736E+02  0.51100000000E-03 0. -1.
         11    1    3    3    0    0 -0.42443002291E+02  0.13062538977E+02 -0.72828232559E+02  0.85299412811E+02  0.51100000000E-03 0.  1.
<mgrwt>
<rscale>  0 0.90112617E+02</rscale>
<asrwt>0</asrwt>
<pdfrwt beam="2">  1        1 0.20809035E-01 0.90112617E+02</pdfrwt>
<pdfrwt beam="1">  1       -1 0.23090459E-02 0.90112617E+02</pdfrwt>
<totfact> 0.11358924E+05</totfact>
</mgrwt>
</event>
<event>
 5   1  0.1357339E+00  0.9194954E+02  0.7818608E-02  0.1298198E+00
          1   -1    0    0  501    0  0.00000000000E+00  0.00000000000E+00  0.18826600037E+02  0.18826600616E+02  0.46700000000E-02 0. -1.
         -1   -1    0    0    0  501 -0.00000000000E+00 -0.00000000000E+00 -0.11227091293E+03  0.11227091302E+03  0.46700000000E-02 0.  1.
         23    2    1    2    0    0  0.00000000000E+00  0.00000000000E+00 -0.93444312891E+02  0.13109751364E+03  0.91949543071E+02 0.  0.
        -11    1    3    3    0    0  0.16451234891E+02 -0.42912392429E+02 -0.44939641107E+02  0.64278207011E+02  0.51100000000E-03 0. -1.
         11    1    3    3    0    0 -0.16451234891E+02  0.42912392429E+02 -0.48504671784E+02  0.66819306630E+02  0.51100000000E-03 0.  1.
<mgrwt>
<rscale>  0 0.91949543E+02</rscale>
<asrwt>0</asrwt>
<pdfrwt beam="1">  1        1 0.28964001E-02 0.91949543E+02</pdfrwt>
<pdfrwt beam="2">  1       -1 0.17272448E-01 0.91949543E+02</pdfrwt>
<totfact> 0.77870533E+04</totfact>
</mgrwt>
</event>
<event>
 5   1  0.1357339E+00  0.9105177E+02  0.7818608E-02  0.1300324E+00
          1   -1    0    0  501    0  0.00000000000E+00  0.00000000000E+00  0.69454646078E+02  0.69454646235E+02  0.46700000000E-02 0. -1.
         -1   -1    0    0    0  501 -0.00000000000E+00 -0.00000000000E+00 -0.29841144132E+02  0.29841144498E+02  0.46700000000E-02 0.  1.
         23    2    1    2    0    0  0.00000000000E+00  0.00000000000E+00  0.39613501946E+02  0.99295790733E+02  0.91051768356E+02 0.  0.
        -11    1    3    3    0    0 -0.29860304834E+02 -0.29202325553E+02  0.50397636967E-01  0.41766208383E+02  0.51100000000E-03 0.  1.
         11    1    3    3    0    0  0.29860304834E+02  0.29202325553E+02  0.39563104309E+02  0.57529582350E+02  0.51100000000E-03 0. -1.
<mgrwt>
<rscale>  0 0.91051768E+02</rscale>
<asrwt>0</asrwt>
<pdfrwt beam="1">  1        1 0.10685330E-01 0.91051768E+02</pdfrwt>
<pdfrwt beam="2">  1       -1 0.45909454E-02 0.91051768E+02</pdfrwt>
<totfact> 0.98922229E+04</totfact>
</mgrwt>
</event>
<event>
 5   1  0.1357339E+00  0.9424094E+02  0.7818608E-02  0.1292895E+00
         -1   -1    0    0    0  501 -0.00000000000E+00  0.00000000000E+00  0.90296271449E+02  0.90296271570E+02  0.46700000000E-02 0.  1.
          1   -1    0    0  501    0  0.00000000000E+00 -0.00000000000E+00 -0.24589485784E+02  0.24589486228E+02  0.46700000000E-02 0. -1.
         23    2    1    2    0    0  0.00000000000E+00  0.00000000000E+00  0.65706785665E+02  0.11488575780E+03  0.94240944723E+02 0.  0.
        -11    1    3    3    0    0 -0.14158600890E+02  0.16866314345E+02  0.83637334455E+02  0.86487815637E+02  0.51100000000E-03 0.  1.
         11    1    3    3    0    0  0.14158600890E+02 -0.16866314345E+02 -0.17930548790E+02  0.28397942160E+02  0.51100000000E-03 0. -1.
<mgrwt>
<rscale>  0 0.94240945E+02</rscale>
<asrwt>0</asrwt>
<pdfrwt beam="2">  1        1 0.37829978E-02 0.94240945E+02</pdfrwt>
<pdfrwt beam="1">  1       -1 0.13891734E-01 0.94240945E+02</pdfrwt>
<totfact> 0.76137710E+04</totfact>
</mgrwt>
</event>
<event>
 5   1  0.1357339E+00  0.9224928E+02  0.7818608E-02  0.1297494E+00
         -1   -1    0    0    0  501 -0.00000000000E+00  0.00000000000E+00  0.25910605048E+02  0.25910605469E+02  0.46700000000E-02 0.  1.
          1   -1    0    0  501    0  0.00000000000E+00 -0.00000000000E+00 -0.82108554191E+02  0.82108554323E+02  0.46700000000E-02 0. -1.
         23    2    1    2    0    0  0.00000000000E+00  0.00000000000E+00 -0.56197949143E+02  0.10801915979E+03  0.92249278557E+02 0.  0.
        -11    1    3    3    0    0 -0.39027871928E+02 -0.19745348521E+02 -0.45245627081E+02  0.62930281627E+02  0.51100000000E-03 0. -1.
         11    1    3    3    0    0  0.39027871928E+02  0.19745348521E+02 -0.10952322062E+02  0.45088878166E+02  0.51100000000E-03 0.  1.
<mgrwt>
<rscale>  0 0.92249279E+02</rscale>
<asrwt>0</asrwt>
<pdfrwt beam="2">  1        1 0.12632085E-01 0.92249279E+02</pdfrwt>
<pdfrwt beam="1">  1       -1 0.39862470E-02 0.92249279E+02</pdfrwt>
<totfact> 0.97961667E+04</totfact>
</mgrwt>
</event>
<event>
 5   1  0.1357339E+00  0.9310756E+02  0.7818608E-02  0.1295496E+00
          1   -1    0    0  501    0  0.00000000000E+00  0.00000000000E+00  0.21751506745E+02  0.21751507246E+02  0.46700000000E-02 0. -1.
         -1   -1    0    0    0  501 -0.00000000000E+00 -0.00000000000E+00 -0.99636978782E+02  0.99636978891E+02  0.46700000000E-02 0.  1.
         23    2    1    2    0    0  0.00000000000E+00  0.00000000000E+00 -0.77885472037E+02  0.12138848614E+03  0.93107560447E+02 0.  0.
        -11    1    3    3    0    0  0.21190293095E+02 -0.55023808832E+01 -0.92506649838E+02  0.95062005982E+02  0.51100000000E-03 0.  1.
         11    1    3    3    0    0 -0.21190293095E+02  0.55023808832E+01  0.14621177801E+02  0.26326480156E+02  0.51100000000E-03 0. -1.
<mgrwt>
<rscale>  0 0.93107560E+02</rscale>
<asrwt>0</asrwt>
<pdfrwt beam="1">  1        1 0.33463858E-02 0.93107560E+02</pdfrwt>
<pdfrwt beam="2">  1       -1 0.15328766E-01 0.93107560E+02</pdfrwt>
<totfact> 0.77143162E+04</totfact>
</mgrwt>
</event>
<event>
 5   1  0.1357339E+00  0.8963614E+02  0.7818608E-02  0.1303735E+00
         -1   -1    0    0    0  501 -0.00000000000E+00  0.00000000000E+00  0.33300985846E+02  0.33300986173E+02  0.46700000000E-02 0.  1.
          1   -1    0    0  501    0  0.00000000000E+00 -0.00000000000E+00 -0.60318315901E+02  0.60318316082E+02  0.46700000000E-02 0. -1.
         23    2    1    2    0    0  0.00000000000E+00  0.00000000000E+00 -0.27017330056E+02  0.93619302255E+02  0.89636140208E+02 0.  0.
        -11    1    3    3    0    0 -0.29007187566E+02 -0.33649646639E+02 -0.19682671188E+02  0.48591390130E+02  0.51100000000E-03 0. -1.
         11    1    3    3    0    0  0.29007187566E+02  0.33649646639E+02 -0.73346588678E+01  0.45027912125E+02  0.51100000000E-03 0.  1.
<mgrwt>
<rscale>  0 0.89636140E+02</rscale>
<asrwt>0</asrwt>
<pdfrwt beam="2">  1        1 0.92797409E-02 0.89636140E+02</pdfrwt>
<pdfrwt beam="1">  1       -1 0.51232287E-02 0.89636140E+02</pdfrwt>
<totfact> 0.10110635E+05</totfact>
</mgrwt>
</event>
<event>
 5   1  0.1357339E+00  0.9065352E+02  0.7818608E-02  0.1301277E+00
         -1   -1    0    0    0  501 -0.00000000000E+00  0.00000000000E+00  0.18208443602E+03  0.18208443608E+03  0.46700000000E-02 0.  1.
          1   -1    0    0  501    0  0.00000000000E+00 -0.00000000000E+00 -0.11283308703E+02  0.11283309669E+02  0.46700000000E-02 0. -1.
         23    2    1    2    0    0  0.00000000000E+00  0.00000000000E+00  0.17080112732E+03  0.19336774575E+03  0.90653516222E+02 0.  0.
        -11    1    3    3    0    0  0.95182395247E+01 -0.33724908258E+02  0.14672500474E+03  0.15085156061E+03  0.51100000000E-03 0.  1.
         11    1    3    3    0    0 -0.95182395247E+01  0.33724908258E+02  0.24076122578E+02  0.42516185145E+02  0.51100000000E-03 0. -1.
<mgrwt>
<rscale>  0 0.90653516E+02</rscale>
<asrwt>0</asrwt>
<pdfrwt beam="2">  1        1 0.17358937E-02 0.90653516E+02</pdfrwt>
<pdfrwt beam="1">  1       -1 0.28012991E-01 0.90653516E+02</pdfrwt>
<totfact> 0.72325209E+04</totfact>
</mgrwt>
</event>
<event>
 5   1  0.1357339E+00  0.9557475E+02  0.7818608E-02  0.1289887E+00
         -1   -1    0    0    0  501 -0.00000000000E+00  0.00000000000E+00  0.61604135277E+02  0.61604135454E+02  0.46700000000E-02 0.  1.
          1   -1    0    0  501    0  0.00000000000E+00 -0.00000000000E+00 -0.37069482274E+02  0.37069482568E+02  0.46700000000E-02 0. -1.
         23    2    1    2    0    0  0.00000000000E+00  0.00000000000E+00  0.24534653004E+02  0.98673618022E+02  0.95574754488E+02 0.  0.
        -11    1    3    3    0    0  0.27923722783E+02 -0.12815825914E+02  0.50055346910E+02  0.58732592676E+02  0.51100000000E-03 0.  1.
         11    1    3    3    0    0 -0.27923722783E+02  0.12815825914E+02 -0.25520693906E+02  0.39941025346E+02  0.51100000000E-03 0. -1.
<mgrwt>
<rscale>  0 0.95574754E+02</rscale>
<asrwt>0</asrwt>
<pdfrwt beam="2">  1        1 0.57029974E-02 0.95574754E+02</pdfrwt>
<pdfrwt beam="1">  1       -1 0.94775592E-02 0.95574754E+02</pdfrwt>
<totfact> 0.78354728E+04</totfact>
</mgrwt>
</event>
<event>
 5   1  0.1357339E+00  0.8982529E+02  0.7818608E-02  0.1303275E+00
         -1   -1    0    0    0  501 -0.00000000000E+00  0.00000000000E+00  0.58274590008E+02  0.58274590196E+02  0.46700000000E-02 0.  1.
          1   -1    0    0  501    0  0.00000000000E+00 -0.00000000000E+00 -0.34614497332E+02  0.34614497647E+02  0.46700000000E-02 0. -1.
         23    2    1    2    0    0  0.00000000000E+00  0.00000000000E+00  0.23660092676E+02  0.92889087843E+02  0.89825289617E+02 0.  0.
        -11    1    3    3    0    0  0.14154755458E+02  0.35865828933E+02 -0.11986592460E+02  0.40378127572E+02  0.51100000000E-03 0. -1.
         11    1    3    3    0    0 -0.14154755458E+02 -0.35865828933E+02  0.35646685136E+02  0.52510960271E+02  0.51100000000E-03 0.  1.
<mgrwt>
<rscale>  0 0.89825290E+02</rscale>
<asrwt>0</asrwt>
<pdfrwt beam="2">  1        1 0.53253074E-02 0.89825290E+02</pdfrwt>
<pdfrwt beam="1">  1       -1 0.89653215E-02 0.89825290E+02</pdfrwt>
<totfact> 0.92513985E+04</totfact>
</mgrwt>
</event>
<event>
 5   1  0.1357339E+00  0.9096485E+02  0.7818608E-02  0.1300532E+00
         -1   -1    0    0    0  501 -0.00000000000E+00  0.00000000000E+00  0.16044815651E+03  0.16044815657E+03  0.46700000000E-02 0.  1.
          1   -1    0    0  501    0  0.00000000000E+00 -0.00000000000E+00 -0.12892955300E+02  0.12892956146E+02  0.46700000000E-02 0. -1.
         23    2    1    2    0    0  0.00000000000E+00  0.00000000000E+00  0.14755520121E+03  0.17334111272E+03  0.90964850113E+02 0.  0.
        -11    1    3    3    0    0 -0.20518113646E+02  0.22365097674E+02  0.13832768679E+03  0.14161828806E+03  0.51100000000E-03 0.  1.
         11    1    3    3    0    0  0.20518113646E+02 -0.22365097674E+02  0.92275144173E+01  0.31722824656E+02  0.51100000000E-03 0. -1.
<mgrwt>
<rscale>  0 0.90964850E+02</rscale>
<asrwt>0</asrwt>
<pdfrwt beam="2">  1        1 0.19835315E-02 0.90964850E+02</pdfrwt>
<pdfrwt beam="1">  1       -1 0.24684334E-01 0.90964850E+02</pdfrwt>
<totfact> 0.74039395E+04</totfact>
</mgrwt>
</event>
<event>
 5   1  0.1357339E+00  0.9122770E+02  0.7818608E-02  0.1299906E+00
         -1   -1    0    0    0  501 -0.00000000000E+00  0.00000000000E+00  0.17837447294E+02  0.17837447905E+02  0.46700000000E-02 0.  1.
          1   -1    0    0  501    0  0.00000000000E+00 -0.00000000000E+00 -0.11664356123E+03  0.11664356132E+03  0.46700000000E-02 0. -1.
         23    2    1    2    0    0  0.00000000000E+00  0.00000000000E+00 -0.98806113937E+02  0.13448100923E+03  0.91227702438E+02 0.  0.
        -11    1    3    3    0    0 -0.94846103001E+00 -0.34070583131E+02 -0.94089201669E+02  0.10007238422E+03  0.51100000000E-03 0. -1.
         11    1    3    3    0    0  0.94846103001E+00  0.34070583131E+02 -0.47169122685E+01  0.34408625006E+02  0.51100000000E-03 0.  1.
<mgrwt>
<rscale>  0 0.91227702E+02</rscale>
<asrwt>0</asrwt>
<pdfrwt beam="2">  1        1 0.17945163E-01 0.91227702E+02</pdfrwt>
<pdfrwt beam="1">  1       -1 0.27442228E-02 0.91227702E+02</pdfrwt>
<totfact> 0.10704861E+05</totfact>
</mgrwt>
</event>
<event>
 5   1  0.1357339E+00  0.9521035E+02  0.7818608E-02  0.1290703E+00
         -1   -1    0    0    0  501 -0.00000000000E+00  0.00000000000E+00  0.16137483396E+02  0.16137484071E+02  0.46700000000E-02 0. -1.
          1   -1    0    0  501    0  0.00000000000E+00 -0.00000000000E+00 -0.14043406877E+03  0.14043406885E+03  0.46700000000E-02 0.  1.
         23    2    1    2    0    0  0.00000000000E+00  0.00000000000E+00 -0.12429658537E+03  0.15657155292E+03  0.95210346328E+02 0.  0.
        -11    1    3    3    0    0  0.20669396511E+02  0.39968810415E+02 -0.36591418215E+02  0.57997083077E+02  0.51100000000E-03 0. -1.
         11    1    3    3    0    0 -0.20669396511E+02 -0.39968810415E+02 -0.87705167159E+02  0.98574469843E+02  0.51100000000E-03 0.  1.
<mgrwt>
<rscale>  0 0.95210346E+02</rscale>
<asrwt>0</asrwt>
<pdfrwt beam="2">  1        1 0.21605241E-01 0.95210346E+02</pdfrwt>
<pdfrwt beam="1">  1       -1 0.24826899E-02 0.95210346E+02</pdfrwt>
<totfact> 0.98524816E+04</totfact>
</mgrwt>
</event>
<event>
 5   1  0.1357339E+00  0.9231284E+02  0.7818608E-02  0.1297346E+00
         -1   -1    0    0    0  501 -0.00000000000E+00  0.00000000000E+00  0.57774818042E+02  0.57774818231E+02  0.46700000000E-02 0.  1.
          1   -1    0    0  501    0  0.00000000000E+00 -0.00000000000E+00 -0.36874454743E+02  0.36874455039E+02  0.46700000000E-02 0. -1.
         23    2    1    2    0    0  0.00000000000E+00  0.00000000000E+00  0.20900363299E+02  0.94649273270E+02  0.92312836293E+02 0.  0.
        -11    1    3    3    0    0 -0.66510479050E+01 -0.27093215942E+02 -0.27251906159E+02  0.38999297146E+02  0.51100000000E-03 0. -1.
         11    1    3    3    0    0  0.66510479050E+01  0.27093215942E+02  0.48152269458E+02  0.55649976124E+02  0.51100000000E-03 0.  1.
<mgrwt>
<rscale>  0 0.92312836E+02</rscale>
<asrwt>0</asrwt>
<pdfrwt beam="2">  1        1 0.56729931E-02 0.92312836E+02</pdfrwt>
<pdfrwt beam="1">  1       -1 0.88884335E-02 0.92312836E+02</pdfrwt>
<totfact> 0.86446276E+04</totfact>
</mgrwt>
</event>
<event>
 5   1  0.1357339E+00  0.9078468E+02  0.7818608E-02  0.1300963E+00
         -1   -1    0    0    0  501 -0.00000000000E+00  0.00000000000E+00  0.16782105269E+02  0.16782105919E+02  0.46700000000E-02 0.  1.
          1   -1    0    0  501    0  0.00000000000E+00 -0.00000000000E+00 -0.12277748471E+03  0.12277748480E+03  0.46700000000E-02 0. -1.
         23    2    1    2    0    0  0.00000000000E+00  0.00000000000E+00 -0.10599537945E+03  0.13955959072E+03  0.90784684274E+02 0.  0.
        -11    1    3    3    0    0 -0.43582403977E+02  0.75984021123E+01 -0.68622103104E+02  0.81646522802E+02  0.51100000000E-03 0. -1.
         11    1    3    3    0    0  0.43582403977E+02 -0.75984021123E+01 -0.37373276342E+02  0.57913067920E+02  0.51100000000E-03 0.  1.
<mgrwt>
<rscale>  0 0.90784684E+02</rscale>
<asrwt>0</asrwt>
<pdfrwt beam="2">  1        1 0.18888843E-01 0.90784684E+02</pdfrwt>
<pdfrwt beam="1">  1       -1 0.25818625E-02 0.90784684E+02</pdfrwt>
<totfact> 0.10944023E+05</totfact>
</mgrwt>
</event>
<event>
 5   1  0.1357339E+00  0.9505616E+02  0.7818608E-02  0.1291050E+00
          1   -1    0    0  501    0  0.00000000000E+00  0.00000000000E+00  0.16388341751E+03  0.16388341757E+03  0.46700000000E-02 0. -1.
         -1   -1    0    0    0  501 -0.00000000000E+00 -0.00000000000E+00 -0.13783690429E+02  0.13783691220E+02  0.46700000000E-02 0.  1.
         23    2    1    2    0    0  0.00000000000E+00  0.00000000000E+00  0.15009972708E+03  0.17766710879E+03  0.95056159600E+02 0.  0.
        -11    1    3    3    0    0  0.46637399639E+02  0.65303443160E+01  0.63049014100E+02  0.78694794118E+02  0.51100000000E-03 0.  1.
         11    1    3    3    0    0 -0.46637399639E+02 -0.65303443160E+01  0.87050712976E+02  0.98972314674E+02  0.51100000000E-03 0. -1.
<mgrwt>
<rscale>  0 0.95056160E+02</rscale>
<asrwt>0</asrwt>
<pdfrwt beam="1">  1        1 0.25212833E-01 0.95056160E+02</pdfrwt>
<pdfrwt beam="2">  1       -1 0.21205679E-02 0.95056160E+02</pdfrwt>
<totfact> 0.10185607E+05</totfact>
</mgrwt>
</event>
<event>
 5   1  0.1357339E+00  0.9613422E+02  0.7818608E-02  0.1288642E+00
          1   -1    0    0  501    0  0.00000000000E+00  0.00000000000E+00  0.15616487726E+02  0.15616488424E+02  0.46700000000E-02 0. -1.
         -1   -1    0    0    0  501 -0.00000000000E+00 -0.00000000000E+00 -0.14794921159E+03  0.14794921166E+03  0.46700000000E-02 0.  1.
         23    2    1    2    0    0  0.00000000000E+00  0.00000000000E+00 -0.13233272386E+03  0.16356570008E+03  0.96134220960E+02 0.  0.
        -11    1    3    3    0    0 -0.44554197039E+02  0.76412095696E+01 -0.93967057736E+02  0.10427498500E+03  0.51100000000E-03 0.  1.
         11    1    3    3    0    0  0.44554197039E+02 -0.76412095696E+01 -0.38365666125E+02  0.59290715082E+02  0.51100000000E-03 0. -1.
<mgrwt>
<rscale>  0 0.96134221E+02</rscale>
<asrwt>0</asrwt>
<pdfrwt beam="1">  1        1 0.24025367E-02 0.96134221E+02</pdfrwt>
<pdfrwt beam="2">  1       -1 0.22761416E-01 0.96134221E+02</pdfrwt>
<totfact> 0.65379486E+04</totfact>
</mgrwt>
</event>
<event>
 5   1  0.1357339E+00  0.9244352E+02  0.7818608E-02  0.1297040E+00
         -1   -1    0    0    0  501 -0.00000000000E+00  0.00000000000E+00  0.25159172562E+02  0.25159172995E+02  0.46700000000E-02 0.  1.
          1   -1    0    0  501    0  0.00000000000E+00 -0.00000000000E+00 -0.84917387335E+02  0.84917387463E+02  0.46700000000E-02 0. -1.
         23    2    1    2    0    0  0.00000000000E+00  0.00000000000E+00 -0.59758214773E+02  0.11007656046E+03  0.92443522918E+02 0.  0.
        -11    1    3    3    0    0 -0.27666782266E+02 -0.32783229353E+02 -0.93837702679E+01  0.43911799239E+02  0.51100000000E-03 0.  1.
         11    1    3    3    0    0  0.27666782266E+02  0.32783229353E+02 -0.50374444505E+02  0.66164761219E+02  0.51100000000E-03 0. -1.
<mgrwt>
<rscale>  0 0.92443523E+02</rscale>
<asrwt>0</asrwt>
<pdfrwt beam="2">  1        1 0.13064213E-01 0.92443523E+02</pdfrwt>
<pdfrwt beam="1">  1       -1 0.38706420E-02 0.92443523E+02</pdfrwt>
<totfact> 0.97924138E+04</totfact>
</mgrwt>
</event>
<event>
 5   1  0.1357339E+00  0.9085407E+02  0.7818608E-02  0.1300797E+00
         -1   -1    0    0    0  501 -0.00000000000E+00  0.00000000000E+00  0.60592208823E+01  0.60592226820E+01  0.46700000000E-02 0.  1.
          1   -1    0    0  501    0  0.00000000000E+00 -0.00000000000E+00 -0.34057432585E+03  0.34057432588E+03  0.46700000000E-02 0. -1.
         23    2    1    2    0    0  0.00000000000E+00  0.00000000000E+00 -0.33451510497E+03  0.34663354856E+03  0.90854067265E+02 0.  0.
        -11    1    3    3    0    0  0.17497086099E+02  0.38476192079E+02 -0.23076216941E+03  0.23460124512E+03  0.51100000000E-03 0. -1.
         11    1    3    3    0    0 -0.17497086099E+02 -0.38476192079E+02 -0.10375293556E+03  0.11203230345E+03  0.51100000000E-03 0.  1.
<mgrwt>
<rscale>  0 0.90854067E+02</rscale>
<asrwt>0</asrwt>
<pdfrwt beam="2">  1        1 0.52396035E-01 0.90854067E+02</pdfrwt>
<pdfrwt beam="1">  1       -1 0.93218823E-03 0.90854067E+02</pdfrwt>
<totfact> 0.13242969E+05</totfact>
</mgrwt>
</event>
<event>
 5   1  0.1357339E+00  0.8850809E+02  0.7818608E-02  0.1306505E+00
          1   -1    0    0  501    0  0.00000000000E+00  0.00000000000E+00  0.67436360798E+02  0.67436360960E+02  0.46700000000E-02 0. -1.
         -1   -1    0    0    0  501 -0.00000000000E+00 -0.00000000000E+00 -0.29041014329E+02  0.29041014705E+02  0.46700000000E-02 0.  1.
         23    2    1    2    0    0  0.00000000000E+00  0.00000000000E+00  0.38395346469E+02  0.96477375665E+02  0.88508086550E+02 0.  0.
        -11    1    3    3    0    0  0.30072083331E+02 -0.98157592627E+01  0.52931574848E+02  0.61663854420E+02  0.51100000000E-03 0. -1.
         11    1    3    3    0    0 -0.30072083331E+02  0.98157592627E+01 -0.14536228379E+02  0.34813521245E+02  0.51100000000E-03 0.  1.
<mgrwt>
<rscale>  0 0.88508087E+02</rscale>
<asrwt>0</asrwt>
<pdfrwt beam="1">  1        1 0.10374825E-01 0.88508087E+02</pdfrwt>
<pdfrwt beam="2">  1       -1 0.44678484E-02 0.88508087E+02</pdfrwt>
<totfact> 0.10646344E+05</totfact>
</mgrwt>
</event>
<event>
 5   1  0.1357339E+00  0.9414170E+02  0.7818608E-02  0.1293121E+00
          1   -1    0    0  501    0  0.00000000000E+00  0.00000000000E+00  0.10731544733E+02  0.10731545750E+02  0.46700000000E-02 0. -1.
         -1   -1    0    0    0  501 -0.00000000000E+00 -0.00000000000E+00 -0.20646282102E+03  0.20646282108E+03  0.46700000000E-02 0.  1.
         23    2    1    2    0    0  0.00000000000E+00  0.00000000000E+00 -0.19573127629E+03  0.21719436682E+03  0.94141704163E+02 0.  0.
        -11    1    3    3    0    0 -0.41789202995E+02  0.82114411538E+01 -0.14411709642E+03  0.15027808468E+03  0.51100000000E-03 0.  1.
         11    1    3    3    0    0  0.41789202995E+02 -0.82114411538E+01 -0.51614179864E+02  0.66916282145E+02  0.51100000000E-03 0. -1.
<mgrwt>
<rscale>  0 0.94141704E+02</rscale>
<asrwt>0</asrwt>
<pdfrwt beam="1">  1        1 0.16510071E-02 0.94141704E+02</pdfrwt>
<pdfrwt beam="2">  1       -1 0.31763508E-01 0.94141704E+02</pdfrwt>
<totfact> 0.63275016E+04</totfact>
</mgrwt>
</event>
<event>
 5   1  0.1357339E+00  0.8708739E+02  0.7818608E-02  0.1310062E+00
          1   -1    0    0  501    0  0.00000000000E+00  0.00000000000E+00  0.12444674122E+03  0.12444674131E+03  0.46700000000E-02 0. -1.
         -1   -1    0    0    0  501 -0.00000000000E+00 -0.00000000000E+00 -0.15235860369E+02  0.15235861085E+02  0.46700000000E-02 0.  1.
         23    2    1    2    0    0  0.00000000000E+00  0.00000000000E+00  0.10921088085E+03  0.13968260239E+03  0.87087386659E+02 0.  0.
        -11    1    3    3    0    0  0.14065487509E+02 -0.35688741724E+02  0.21557778239E+02  0.44002977486E+02  0.51100000000E-03 0.  1.
         11    1    3    3    0    0 -0.14065487509E+02  0.35688741724E+02  0.87653102611E+02  0.95679624907E+02  0.51100000000E-03 0. -1.
<mgrwt>
<rscale>  0 0.87087387E+02</rscale>
<asrwt>0</asrwt>
<pdfrwt beam="1">  1        1 0.19145653E-01 0.87087387E+02</pdfrwt>
<pdfrwt beam="2">  1       -1 0.23439785E-02 0.87087387E+02</pdfrwt>
<totfact> 0.12272854E+05</totfact>
</mgrwt>
</event>
<event>
 5   1  0.1357339E+00  0.9123315E+02  0.7818608E-02  0.1299893E+00
         -1   -1    0    0    0  501 -0.00000000000E+00  0.00000000000E+00  0.28589938615E+02  0.28589938996E+02  0.46700000000E-02 0.  1.
          1   -1    0    0  501    0  0.00000000000E+00 -0.00000000000E+00 -0.72783371145E+02  0.72783371295E+02  0.46700000000E-02 0. -1.
         23    2    1    2    0    0  0.00000000000E+00  0.00000000000E+00 -0.44193432530E+02  0.10137331029E+03  0.91233154942E+02 0.  0.
        -11    1    3    3    0    0 -0.18074310100E+02  0.37132826598E+02 -0.43623841925E+02  0.60071349921E+02  0.51100000000E-03 0.  1.
         11    1    3    3    0    0  0.18074310100E+02 -0.37132826598E+02 -0.56959060531E+00  0.41301960371E+02  0.51100000000E-03 0. -1.
<mgrwt>
<rscale>  0 0.91233155E+02</rscale>
<asrwt>0</asrwt>
<pdfrwt beam="2">  1        1 0.11197442E-01 0.91233155E+02</pdfrwt>
<pdfrwt beam="1">  1       -1 0.43984522E-02 0.91233155E+02</pdfrwt>
<totfact> 0.99095600E+04</totfact>
</mgrwt>
</event>
<event>
 5   1  0.1357339E+00  0.9806173E+02  0.7818608E-02  0.1284425E+00
         -1   -1    0    0    0  501 -0.00000000000E+00  0.00000000000E+00  0.32118335408E+02  0.32118335748E+02  0.46700000000E-02 0.  1.
          1   -1    0    0  501    0  0.00000000000E+00 -0.00000000000E+00 -0.74849014759E+02  0.74849014905E+02  0.46700000000E-02 0. -1.
         23    2    1    2    0    0  0.00000000000E+00  0.00000000000E+00 -0.42730679350E+02  0.10696735065E+03  0.98061731312E+02 0.  0.
        -11    1    3    3    0    0  0.70638803410E+01  0.22101285892E+02  0.25750615094E+02  0.34662074686E+02  0.51100000000E-03 0.  1.
         11    1    3    3    0    0 -0.70638803410E+01 -0.22101285892E+02 -0.68481294444E+02  0.72305275967E+02  0.51100000000E-03 0. -1.
<mgrwt>
<rscale>  0 0.98061731E+02</rscale>
<asrwt>0</asrwt>
<pdfrwt beam="2">  1        1 0.11515233E-01 0.98061731E+02</pdfrwt>
<pdfrwt beam="1">  1       -1 0.49412824E-02 0.98061731E+02</pdfrwt>
<totfact> 0.81504990E+04</totfact>
</mgrwt>
</event>
<event>
 5   1  0.1357339E+00  0.8911202E+02  0.7818608E-02  0.1305016E+00
         -1   -1    0    0    0  501 -0.00000000000E+00  0.00000000000E+00  0.69580581631E+01  0.69580597303E+01  0.46700000000E-02 0.  1.
          1   -1    0    0  501    0  0.00000000000E+00 -0.00000000000E+00 -0.28531491798E+03  0.28531491802E+03  0.46700000000E-02 0. -1.
         23    2    1    2    0    0  0.00000000000E+00  0.00000000000E+00 -0.27835685982E+03  0.29227297775E+03  0.89112020036E+02 0.  0.
        -11    1    3    3    0    0  0.37287243316E+02 -0.19975904425E+02 -0.18508008097E+03  0.18985260505E+03  0.51100000000E-03 0. -1.
         11    1    3    3    0    0 -0.37287243316E+02  0.19975904425E+02 -0.93276778854E+02  0.10242037271E+03  0.51100000000E-03 0.  1.
<mgrwt>
<rscale>  0 0.89112020E+02</rscale>
<asrwt>0</asrwt>
<pdfrwt beam="2">  1        1 0.43894594E-01 0.89112020E+02</pdfrwt>
<pdfrwt beam="1">  1       -1 0.10704708E-02 0.89112020E+02</pdfrwt>
<totfact> 0.13487145E+05</totfact>
</mgrwt>
</event>
<event>
 5   1  0.1357339E+00  0.9291114E+02  0.7818608E-02  0.1295951E+00
         -1   -1    0    0    0  501 -0.00000000000E+00  0.00000000000E+00  0.68496347344E+01  0.68496363264E+01  0.46700000000E-02 0.  1.
          1   -1    0    0  501    0  0.00000000000E+00 -0.00000000000E+00 -0.31507078726E+03  0.31507078729E+03  0.46700000000E-02 0. -1.
         23    2    1    2    0    0  0.00000000000E+00  0.00000000000E+00 -0.30822115252E+03  0.32192042362E+03  0.92911141851E+02 0.  0.
        -11    1    3    3    0    0  0.45402394301E+02 -0.64753925939E+01 -0.12845874536E+03  0.13639999039E+03  0.51100000000E-03 0.  1.
         11    1    3    3    0    0 -0.45402394301E+02  0.64753925939E+01 -0.17976240716E+03  0.18552043323E+03  0.51100000000E-03 0. -1.
<mgrwt>
<rscale>  0 0.92911142E+02</rscale>
<asrwt>0</asrwt>
<pdfrwt beam="2">  1        1 0.48472418E-01 0.92911142E+02</pdfrwt>
<pdfrwt beam="1">  1       -1 0.10537903E-02 0.92911142E+02</pdfrwt>
<totfact> 0.12297747E+05</totfact>
</mgrwt>
</event>
<event>
 5   1  0.1357339E+00  0.8995866E+02  0.7818608E-02  0.1302952E+00
          1   -1    0    0  501    0  0.00000000000E+00  0.00000000000E+00  0.18504707629E+02  0.18504708219E+02  0.46700000000E-02 0. -1.
         -1   -1    0    0    0  501 -0.00000000000E+00 -0.00000000000E+00 -0.10933111074E+03  0.10933111084E+03  0.46700000000E-02 0.  1.
         23    2    1    2    0    0  0.00000000000E+00  0.00000000000E+00 -0.90826403111E+02  0.12783581906E+03  0.89958663464E+02 0.  0.
        -11    1    3    3    0    0 -0.35051616276E+02 -0.28121144392E+02 -0.42670272880E+02  0.61969079011E+02  0.51100000000E-03 0. -1.
         11    1    3    3    0    0  0.35051616276E+02  0.28121144392E+02 -0.48156130230E+02  0.65866740048E+02  0.51100000000E-03 0.  1.
<mgrwt>
<rscale>  0 0.89958663E+02</rscale>
<asrwt>0</asrwt>
<pdfrwt beam="1">  1        1 0.28468782E-02 0.89958663E+02</pdfrwt>
<pdfrwt beam="2">  1       -1 0.16820171E-01 0.89958663E+02</pdfrwt>
<totfact> 0.82824606E+04</totfact>
</mgrwt>
</event>
<event>
 5   1  0.1357339E+00  0.9415228E+02  0.7818608E-02  0.1293097E+00
          1   -1    0    0  501    0  0.00000000000E+00  0.00000000000E+00  0.31634971333E+02  0.31634971678E+02  0.46700000000E-02 0. -1.
         -1   -1    0    0    0  501 -0.00000000000E+00 -0.00000000000E+00 -0.70054211301E+02  0.70054211457E+02  0.46700000000E-02 0.  1.
         23    2    1    2    0    0  0.00000000000E+00  0.00000000000E+00 -0.38419239968E+02  0.10168918313E+03  0.94152280731E+02 0.  0.
        -11    1    3    3    0    0 -0.14500459323E+02 -0.43727467721E+02 -0.29670408022E+02  0.54796787007E+02  0.51100000000E-03 0.  1.
         11    1    3    3    0    0  0.14500459323E+02  0.43727467721E+02 -0.87488319454E+01  0.46892396127E+02  0.51100000000E-03 0. -1.
<mgrwt>
<rscale>  0 0.94152281E+02</rscale>
<asrwt>0</asrwt>
<pdfrwt beam="1">  1        1 0.48669187E-02 0.94152281E+02</pdfrwt>
<pdfrwt beam="2">  1       -1 0.10777571E-01 0.94152281E+02</pdfrwt>
<totfact> 0.79719147E+04</totfact>
</mgrwt>
</event>
<event>
 5   1  0.1357339E+00  0.8849964E+02  0.7818608E-02  0.1306526E+00
          1   -1    0    0  501    0  0.00000000000E+00  0.00000000000E+00  0.92434955993E+01  0.92434967790E+01  0.46700000000E-02 0. -1.
         -1   -1    0    0    0  501 -0.00000000000E+00 -0.00000000000E+00 -0.21182966600E+03  0.21182966605E+03  0.46700000000E-02 0.  1.
         23    2    1    2    0    0  0.00000000000E+00  0.00000000000E+00 -0.20258617040E+03  0.22107316283E+03  0.88499643424E+02 0.  0.
        -11    1    3    3    0    0  0.16261957539E+02  0.37431356190E+02 -0.58571309415E+02  0.71387365661E+02  0.51100000000E-03 0. -1.
         11    1    3    3    0    0 -0.16261957539E+02 -0.37431356190E+02 -0.14401486098E+03  0.14968579717E+03  0.51100000000E-03 0.  1.
<mgrwt>
<rscale>  0 0.88499643E+02</rscale>
<asrwt>0</asrwt>
<pdfrwt beam="1">  1        1 0.14220765E-02 0.88499643E+02</pdfrwt>
<pdfrwt beam="2">  1       -1 0.32589176E-01 0.88499643E+02</pdfrwt>
<totfact> 0.73775503E+04</totfact>
</mgrwt>
</event>
<event>
 5   1  0.1357339E+00  0.9188781E+02  0.7818608E-02  0.1298343E+00
         -1   -1    0    0    0  501 -0.00000000000E+00  0.00000000000E+00  0.75538190028E+01  0.75538204463E+01  0.46700000000E-02 0.  1.
          1   -1    0    0  501    0  0.00000000000E+00 -0.00000000000E+00 -0.27944042383E+03  0.27944042386E+03  0.46700000000E-02 0. -1.
         23    2    1    2    0    0  0.00000000000E+00  0.00000000000E+00 -0.27188660482E+03  0.28699424431E+03  0.91887814130E+02 0.  0.
        -11    1    3    3    0    0 -0.33724643182E+02 -0.30103978076E+02 -0.16155474845E+03  0.16776035825E+03  0.51100000000E-03 0.  1.
         11    1    3    3    0    0  0.33724643182E+02  0.30103978076E+02 -0.11033185637E+03  0.11923388606E+03  0.51100000000E-03 0. -1.
<mgrwt>
<rscale>  0 0.91887814E+02</rscale>
<asrwt>0</asrwt>
<pdfrwt beam="2">  1        1 0.42990827E-01 0.91887814E+02</pdfrwt>
<pdfrwt beam="1">  1       -1 0.11621263E-02 0.91887814E+02</pdfrwt>
<totfact> 0.12378999E+05</totfact>
</mgrwt>
</event>
<event>
 5   1  0.1357339E+00  0.9173116E+02  0.7818608E-02  0.1298713E+00
         -1   -1    0    0    0  501 -0.00000000000E+00  0.00000000000E+00  0.16408805283E+03  0.16408805290E+03  0.46700000000E-02 0.  1.
          1   -1    0    0  501    0  0.00000000000E+00 -0.00000000000E+00 -0.12820259653E+02  0.12820260504E+02  0.46700000000E-02 0. -1.
         23    2    1    2    0    0  0.00000000000E+00  0.00000000000E+00  0.15126779318E+03  0.17690831340E+03  0.91731162086E+02 0.  0.
        -11    1    3    3    0    0 -0.41738580672E+02  0.18598395136E+02  0.83261339368E+02  0.94976102530E+02  0.51100000000E-03 0.  1.
         11    1    3    3    0    0  0.41738580672E+02 -0.18598395136E+02  0.68006453813E+02  0.81932210874E+02  0.51100000000E-03 0. -1.
<mgrwt>
<rscale>  0 0.91731162E+02</rscale>
<asrwt>0</asrwt>
<pdfrwt beam="2">  1        1 0.19723478E-02 0.91731162E+02</pdfrwt>
<pdfrwt beam="1">  1       -1 0.25244314E-01 0.91731162E+02</pdfrwt>
<totfact> 0.72041887E+04</totfact>
</mgrwt>
</event>
<event>
 5   1  0.1357339E+00  0.9137091E+02  0.7818608E-02  0.1299565E+00
         -1   -1    0    0    0  501 -0.00000000000E+00  0.00000000000E+00  0.21529582128E+02  0.21529582635E+02  0.46700000000E-02 0.  1.
          1   -1    0    0  501    0  0.00000000000E+00 -0.00000000000E+00 -0.96943862652E+02  0.96943862764E+02  0.46700000000E-02 0. -1.
         23    2    1    2    0    0  0.00000000000E+00  0.00000000000E+00 -0.75414280523E+02  0.11847344540E+03  0.91370911989E+02 0.  0.
        -11    1    3    3    0    0  0.18954778749E+02 -0.41030809199E+02 -0.29072194431E+02  0.53740147285E+02  0.51100000000E-03 0.  1.
         11    1    3    3    0    0 -0.18954778749E+02  0.41030809199E+02 -0.46342086092E+02  0.64733298113E+02  0.51100000000E-03 0. -1.
<mgrwt>
<rscale>  0 0.91370912E+02</rscale>
<asrwt>0</asrwt>
<pdfrwt beam="2">  1        1 0.14914440E-01 0.91370912E+02</pdfrwt>
<pdfrwt beam="1">  1       -1 0.33122435E-02 0.91370912E+02</pdfrwt>
<totfact> 0.10331432E+05</totfact>
</mgrwt>
</event>
<event>
 5   1  0.1357339E+00  0.9151463E+02  0.7818608E-02  0.1299225E+00
         -1   -1    0    0    0  501 -0.00000000000E+00  0.00000000000E+00  0.38986649005E+02  0.38986649285E+02  0.46700000000E-02 0.  1.
          1   -1    0    0  501    0  0.00000000000E+00 -0.00000000000E+00 -0.53703815968E+02  0.53703816171E+02  0.46700000000E-02 0. -1.
         23    2    1    2    0    0  0.00000000000E+00  0.00000000000E+00 -0.14717166963E+02  0.92690465456E+02  0.91514629339E+02 0.  0.
        -11    1    3    3    0    0 -0.23153437991E+01 -0.25520766004E+02  0.31037083826E+02  0.40248861935E+02  0.51100000000E-03 0.  1.
         11    1    3    3    0    0  0.23153437991E+01  0.25520766004E+02 -0.45754250789E+02  0.52441603521E+02  0.51100000000E-03 0. -1.
<mgrwt>
<rscale>  0 0.91514629E+02</rscale>
<asrwt>0</asrwt>
<pdfrwt beam="2">  1        1 0.82621256E-02 0.91514629E+02</pdfrwt>
<pdfrwt beam="1">  1       -1 0.59979460E-02 0.91514629E+02</pdfrwt>
<totfact> 0.93802269E+04</totfact>
</mgrwt>
</event>
<event>
 5   1  0.1357339E+00  0.8920019E+02  0.7818608E-02  0.1304800E+00
         -1   -1    0    0    0  501 -0.00000000000E+00  0.00000000000E+00  0.60798205278E+02  0.60798205458E+02  0.46700000000E-02 0.  1.
          1   -1    0    0  501    0  0.00000000000E+00 -0.00000000000E+00 -0.32717552306E+02  0.32717552639E+02  0.46700000000E-02 0. -1.
         23    2    1    2    0    0  0.00000000000E+00  0.00000000000E+00  0.28080652972E+02  0.93515758097E+02  0.89200190252E+02 0.  0.
        -11    1    3    3    0    0 -0.56505007896E+01  0.43707971314E+02  0.21216457509E+02  0.48912707807E+02  0.51100000000E-03 0.  1.
         11    1    3    3    0    0  0.56505007896E+01 -0.43707971314E+02  0.68641954631E+01  0.44603050290E+02  0.51100000000E-03 0. -1.
<mgrwt>
<rscale>  0 0.89200190E+02</rscale>
<asrwt>0</asrwt>
<pdfrwt beam="2">  1        1 0.50334696E-02 0.89200190E+02</pdfrwt>
<pdfrwt beam="1">  1       -1 0.93535700E-02 0.89200190E+02</pdfrwt>
<totfact> 0.93552401E+04</totfact>
</mgrwt>
</event>
<event>
 5   1  0.1357339E+00  0.9119368E+02  0.7818608E-02  0.1299987E+00
         -1   -1    0    0    0  501 -0.00000000000E+00  0.00000000000E+00  0.36589668548E+02  0.36589668846E+02  0.46700000000E-02 0.  1.
          1   -1    0    0  501    0  0.00000000000E+00 -0.00000000000E+00 -0.56821274825E+02  0.56821275017E+02  0.46700000000E-02 0. -1.
         23    2    1    2    0    0  0.00000000000E+00  0.00000000000E+00 -0.20231606277E+02  0.93410943862E+02  0.91193675991E+02 0.  0.
        -11    1    3    3    0    0  0.13855310664E+01  0.23522758268E+02 -0.50101212969E+02  0.55365796247E+02  0.51100000000E-03 0. -1.
         11    1    3    3    0    0 -0.13855310664E+01 -0.23522758268E+02  0.29869606691E+02  0.38045147615E+02  0.51100000000E-03 0.  1.
<mgrwt>
<rscale>  0 0.91193676E+02</rscale>
<asrwt>0</asrwt>
<pdfrwt beam="2">  1        1 0.87417346E-02 0.91193676E+02</pdfrwt>
<pdfrwt beam="1">  1       -1 0.56291798E-02 0.91193676E+02</pdfrwt>
<totfact> 0.95533439E+04</totfact>
</mgrwt>
</event>
<event>
 5   1  0.1357339E+00  0.9141967E+02  0.7818608E-02  0.1299450E+00
          1   -1    0    0  501    0  0.00000000000E+00  0.00000000000E+00  0.88097232556E+02  0.88097232679E+02  0.46700000000E-02 0. -1.
         -1   -1    0    0    0  501 -0.00000000000E+00 -0.00000000000E+00 -0.23716852290E+02  0.23716852750E+02  0.46700000000E-02 0.  1.
         23    2    1    2    0    0  0.00000000000E+00  0.00000000000E+00  0.64380380265E+02  0.11181408543E+03  0.91419671500E+02 0.  0.
        -11    1    3    3    0    0  0.43015937986E+02  0.91231921730E+01  0.47456019876E+02  0.64696811197E+02  0.51100000000E-03 0. -1.
         11    1    3    3    0    0 -0.43015937986E+02 -0.91231921730E+01  0.16924360389E+02  0.47117274232E+02  0.51100000000E-03 0.  1.
<mgrwt>
<rscale>  0 0.91419672E+02</rscale>
<asrwt>0</asrwt>
<pdfrwt beam="1">  1        1 0.13553420E-01 0.91419672E+02</pdfrwt>
<pdfrwt beam="2">  1       -1 0.36487466E-02 0.91419672E+02</pdfrwt>
<totfact> 0.10156337E+05</totfact>
</mgrwt>
</event>
<event>
 5   1  0.1357339E+00  0.9097498E+02  0.7818608E-02  0.1300508E+00
          1   -1    0    0  501    0  0.00000000000E+00  0.00000000000E+00  0.23853240787E+02  0.23853241244E+02  0.46700000000E-02 0. -1.
         -1   -1    0    0    0  501 -0.00000000000E+00 -0.00000000000E+00 -0.86743428766E+02  0.86743428892E+02  0.46700000000E-02 0.  1.
         23    2    1    2    0    0  0.00000000000E+00  0.00000000000E+00 -0.62890187979E+02  0.11059667014E+03  0.90974983931E+02 0.  0.
        -11    1    3    3    0    0  0.15616845500E+02 -0.26258983052E+02  0.95234304587E+01  0.32001809046E+02  0.51100000000E-03 0. -1.
         11    1    3    3    0    0 -0.15616845500E+02  0.26258983052E+02 -0.72413618438E+02  0.78594861090E+02  0.51100000000E-03 0.  1.
<mgrwt>
<rscale>  0 0.90974984E+02</rscale>
<asrwt>0</asrwt>
<pdfrwt beam="1">  1        1 0.36697294E-02 0.90974984E+02</pdfrwt>
<pdfrwt beam="2">  1       -1 0.13345143E-01 0.90974984E+02</pdfrwt>
<totfact> 0.83958176E+04</totfact>
</mgrwt>
</event>
<event>
 5   1  0.1357339E+00  0.9769825E+02  0.7818608E-02  0.1285212E+00
         -1   -1    0    0    0  501 -0.00000000000E+00  0.00000000000E+00  0.55943000330E+02  0.55943000525E+02  0.46700000000E-02 0.  1.
          1   -1    0    0  501    0  0.00000000000E+00 -0.00000000000E+00 -0.42654794456E+02  0.42654794712E+02  0.46700000000E-02 0. -1.
         23    2    1    2    0    0  0.00000000000E+00  0.00000000000E+00  0.13288205874E+02  0.98597795236E+02  0.97698253875E+02 0.  0.
        -11    1    3    3    0    0  0.41194044322E+02 -0.31165765667E+00  0.33138261590E+02  0.52869564019E+02  0.51100000000E-03 0.  1.
         11    1    3    3    0    0 -0.41194044322E+02  0.31165765667E+00 -0.19850055716E+02  0.45728231217E+02  0.51100000000E-03 0. -1.
<mgrwt>
<rscale>  0 0.97698254E+02</rscale>
<asrwt>0</asrwt>
<pdfrwt beam="2">  1        1 0.65622761E-02 0.97698254E+02</pdfrwt>
<pdfrwt beam="1">  1       -1 0.86066155E-02 0.97698254E+02</pdfrwt>
<totfact> 0.75268935E+04</totfact>
</mgrwt>
</event>
<event>
 5   1  0.1357339E+00  0.9043677E+02  0.7818608E-02  0.1301797E+00
          1   -1    0    0  501    0  0.00000000000E+00  0.00000000000E+00  0.16841031561E+02  0.16841032208E+02  0.46700000000E-02 0. -1.
         -1   -1    0    0    0  501 -0.00000000000E+00 -0.00000000000E+00 -0.12141194340E+03  0.12141194349E+03  0.46700000000E-02 0.  1.
         23    2    1    2    0    0  0.00000000000E+00  0.00000000000E+00 -0.10457091184E+03  0.13825297570E+03  0.90436771760E+02 0.  0.
        -11    1    3    3    0    0 -0.11234224190E+01 -0.37900443312E+02 -0.89949124157E+02  0.97614295152E+02  0.51100000000E-03 0.  1.
         11    1    3    3    0    0  0.11234224190E+01  0.37900443312E+02 -0.14621787682E+02  0.40638680545E+02  0.51100000000E-03 0. -1.
<mgrwt>
<rscale>  0 0.90436772E+02</rscale>
<asrwt>0</asrwt>
<pdfrwt beam="1">  1        1 0.25909281E-02 0.90436772E+02</pdfrwt>
<pdfrwt beam="2">  1       -1 0.18678760E-01 0.90436772E+02</pdfrwt>
<totfact> 0.80009629E+04</totfact>
</mgrwt>
</event>
<event>
 5   1  0.1357339E+00  0.9224447E+02  0.7818608E-02  0.1297506E+00
          1   -1    0    0  501    0  0.00000000000E+00  0.00000000000E+00  0.99839420273E+02  0.99839420382E+02  0.46700000000E-02 0. -1.
         -1   -1    0    0    0  501 -0.00000000000E+00 -0.00000000000E+00 -0.21306820459E+02  0.21306820971E+02  0.46700000000E-02 0.  1.
         23    2    1    2    0    0  0.00000000000E+00  0.00000000000E+00  0.78532599814E+02  0.12114624135E+03  0.92244471706E+02 0.  0.
        -11    1    3    3    0    0  0.27296660483E+02  0.34710211633E+02  0.21776279981E+02  0.49235280391E+02  0.51100000000E-03 0.  1.
         11    1    3    3    0    0 -0.27296660483E+02 -0.34710211633E+02  0.56756319833E+02  0.71910960962E+02  0.51100000000E-03 0. -1.
<mgrwt>
<rscale>  0 0.92244472E+02</rscale>
<asrwt>0</asrwt>
<pdfrwt beam="1">  1        1 0.15359911E-01 0.92244472E+02</pdfrwt>
<pdfrwt beam="2">  1       -1 0.32779725E-02 0.92244472E+02</pdfrwt>
<totfact> 0.10115638E+05</totfact>
</mgrwt>
</event>
<event>
 5   1  0.1357339E+00  0.9159420E+02  0.7818608E-02  0.1299036E+00
          1   -1    0    0  501    0  0.00000000000E+00  0.00000000000E+00  0.18814494574E+03  0.18814494580E+03  0.46700000000E-02 0. -1.
         -1   -1    0    0    0  501 -0.00000000000E+00 -0.00000000000E+00 -0.11147651199E+02  0.11147652177E+02  0.46700000000E-02 0.  1.
         23    2    1    2    0    0  0.00000000000E+00  0.00000000000E+00  0.17699729454E+03  0.19929259798E+03  0.91594199231E+02 0.  0.
        -11    1    3    3    0    0  0.40984582076E+02 -0.16485954912E+02  0.11477583479E+03  0.12298379945E+03  0.51100000000E-03 0.  1.
         11    1    3    3    0    0 -0.40984582076E+02  0.16485954912E+02  0.62221459758E+02  0.76308798523E+02  0.51100000000E-03 0. -1.
<mgrwt>
<rscale>  0 0.91594199E+02</rscale>
<asrwt>0</asrwt>
<pdfrwt beam="1">  1        1 0.28945377E-01 0.91594199E+02</pdfrwt>
<pdfrwt beam="2">  1       -1 0.17150233E-02 0.91594199E+02</pdfrwt>
<totfact> 0.11558827E+05</totfact>
</mgrwt>
</event>
<event>
 5   1  0.1357339E+00  0.9214093E+02  0.7818608E-02  0.1297748E+00
         -1   -1    0    0    0  501 -0.00000000000E+00  0.00000000000E+00  0.95275309546E+02  0.95275309661E+02  0.46700000000E-02 0.  1.
          1   -1    0    0  501    0  0.00000000000E+00 -0.00000000000E+00 -0.22277417630E+02  0.22277418120E+02  0.46700000000E-02 0. -1.
         23    2    1    2    0    0  0.00000000000E+00  0.00000000000E+00  0.72997891916E+02  0.11755272778E+03  0.92140933274E+02 0.  0.
        -11    1    3    3    0    0 -0.31314236358E+02 -0.20521607724E+02  0.22475331762E+01  0.37506921867E+02  0.51100000000E-03 0. -1.
         11    1    3    3    0    0  0.31314236358E+02  0.20521607724E+02  0.70750358739E+02  0.80045805913E+02  0.51100000000E-03 0.  1.
<mgrwt>
<rscale>  0 0.92140933E+02</rscale>
<asrwt>0</asrwt>
<pdfrwt beam="2">  1        1 0.34272951E-02 0.92140933E+02</pdfrwt>
<pdfrwt beam="1">  1       -1 0.14657740E-01 0.92140933E+02</pdfrwt>
<totfact> 0.79904134E+04</totfact>
</mgrwt>
</event>
<event>
 5   1  0.1357339E+00  0.9037119E+02  0.7818608E-02  0.1301955E+00
          1   -1    0    0  501    0  0.00000000000E+00  0.00000000000E+00  0.15177884173E+03  0.15177884180E+03  0.46700000000E-02 0. -1.
         -1   -1    0    0    0  501 -0.00000000000E+00 -0.00000000000E+00 -0.13452058808E+02  0.13452059618E+02  0.46700000000E-02 0.  1.
         23    2    1    2    0    0  0.00000000000E+00  0.00000000000E+00  0.13832678292E+03  0.16523090142E+03  0.90371189603E+02 0.  0.
        -11    1    3    3    0    0 -0.24366835624E+02  0.29328272673E+02  0.11349297920E+03  0.11972696682E+03  0.51100000000E-03 0. -1.
         11    1    3    3    0    0  0.24366835624E+02 -0.29328272673E+02  0.24833803721E+02  0.45503934597E+02  0.51100000000E-03 0.  1.
<mgrwt>
<rscale>  0 0.90371190E+02</rscale>
<asrwt>0</asrwt>
<pdfrwt beam="1">  1        1 0.23350592E-01 0.90371190E+02</pdfrwt>
<pdfrwt beam="2">  1       -1 0.20695475E-02 0.90371190E+02</pdfrwt>
<totfact> 0.11509581E+05</totfact>
</mgrwt>
</event>
<event>
 5   1  0.1357339E+00  0.9172035E+02  0.7818608E-02  0.1298738E+00
          1   -1    0    0  501    0  0.00000000000E+00  0.00000000000E+00  0.51733020633E+02  0.51733020843E+02  0.46700000000E-02 0. -1.
         -1   -1    0    0    0  501 -0.00000000000E+00 -0.00000000000E+00 -0.40654030628E+02  0.40654030896E+02  0.46700000000E-02 0.  1.
         23    2    1    2    0    0  0.00000000000E+00  0.00000000000E+00  0.11078990005E+02  0.92387051739E+02  0.91720353846E+02 0.  0.
        -11    1    3    3    0    0 -0.40379984529E+02 -0.10656461593E+02  0.24625910146E+02  0.48482355296E+02  0.51100000000E-03 0. -1.
         11    1    3    3    0    0  0.40379984529E+02  0.10656461593E+02 -0.13546920142E+02  0.43904696444E+02  0.51100000000E-03 0.  1.
<mgrwt>
<rscale>  0 0.91720354E+02</rscale>
<asrwt>0</asrwt>
<pdfrwt beam="1">  1        1 0.79589263E-02 0.91720354E+02</pdfrwt>
<pdfrwt beam="2">  1       -1 0.62544663E-02 0.91720354E+02</pdfrwt>
<totfact> 0.92691968E+04</totfact>
</mgrwt>
</event>
<event>
 5   1  0.1357339E+00  0.9477598E+02  0.7818608E-02  0.1291681E+00
         -1   -1    0    0    0  501 -0.00000000000E+00  0.00000000000E+00  0.13064336821E+02  0.13064337656E+02  0.46700000000E-02 0.  1.
          1   -1    0    0  501    0  0.00000000000E+00 -0.00000000000E+00 -0.17188944127E+03  0.17188944133E+03  0.46700000000E-02 0. -1.
         23    2    1    2    0    0  0.00000000000E+00  0.00000000000E+00 -0.15882510445E+03  0.18495377899E+03  0.94775980919E+02 0.  0.
        -11    1    3    3    0    0 -0.90517118880E+01 -0.45190916768E+02 -0.10092045152E+03  0.11094633830E+03  0.51100000000E-03 0. -1.
         11    1    3    3    0    0  0.90517118880E+01  0.45190916768E+02 -0.57904652926E+02  0.74007440688E+02  0.51100000000E-03 0.  1.
<mgrwt>
<rscale>  0 0.94775981E+02</rscale>
<asrwt>0</asrwt>
<pdfrwt beam="2">  1        1 0.26444528E-01 0.94775981E+02</pdfrwt>
<pdfrwt beam="1">  1       -1 0.20098982E-02 0.94775981E+02</pdfrwt>
<totfact> 0.10360917E+05</totfact>
</mgrwt>
</event>
<event>
 5   1  0.1357339E+00  0.8793163E+02  0.7818608E-02  0.1307939E+00
         -1   -1    0    0    0  501 -0.00000000000E+00  0.00000000000E+00  0.26969983975E+02  0.26969984379E+02  0.46700000000E-02 0.  1.
          1   -1    0    0  501    0  0.00000000000E+00 -0.00000000000E+00 -0.71672009765E+02  0.71672009917E+02  0.46700000000E-02 0. -1.
         23    2    1    2    0    0  0.00000000000E+00  0.00000000000E+00 -0.44702025790E+02  0.98641994296E+02  0.87931632129E+02 0.  0.
        -11    1    3    3    0    0  0.20260096263E+02 -0.33877956717E+02 -0.63301909889E+00  0.39478958514E+02  0.51100000000E-03 0.  1.
         11    1    3    3    0    0 -0.20260096263E+02  0.33877956717E+02 -0.44069006691E+02  0.59163035782E+02  0.51100000000E-03 0. -1.
<mgrwt>
<rscale>  0 0.87931632E+02</rscale>
<asrwt>0</asrwt>
<pdfrwt beam="2">  1        1 0.11026463E-01 0.87931632E+02</pdfrwt>
<pdfrwt beam="1">  1       -1 0.41492284E-02 0.87931632E+02</pdfrwt>
<totfact> 0.10939019E+05</totfact>
</mgrwt>
</event>
<event>
 5   1  0.1357339E+00  0.7057727E+02  0.7818608E-02  0.1358141E+00
         -1   -1    0    0    0  501 -0.00000000000E+00  0.00000000000E+00  0.17681056607E+02  0.17681057224E+02  0.46700000000E-02 0.  1.
          1   -1    0    0  501    0  0.00000000000E+00 -0.00000000000E+00 -0.70430611455E+02  0.70430611610E+02  0.46700000000E-02 0. -1.
         23    2    1    2    0    0  0.00000000000E+00  0.00000000000E+00 -0.52749554848E+02  0.88111668833E+02  0.70577267218E+02 0.  0.
        -11    1    3    3    0    0 -0.65860514300E+01 -0.15940301298E+02  0.12060600200E+02  0.21045839408E+02  0.51100000000E-03 0.  1.
         11    1    3    3    0    0  0.65860514300E+01  0.15940301298E+02 -0.64810155048E+02  0.67065829426E+02  0.51100000000E-03 0. -1.
<mgrwt>
<rscale>  0 0.70577267E+02</rscale>
<asrwt>0</asrwt>
<pdfrwt beam="2">  1        1 0.10835479E-01 0.70577267E+02</pdfrwt>
<pdfrwt beam="1">  1       -1 0.27201627E-02 0.70577267E+02</pdfrwt>
<totfact> 0.19750900E+05</totfact>
</mgrwt>
</event>
<event>
 5   1  0.1357339E+00  0.9481634E+02  0.7818608E-02  0.1291590E+00
         -1   -1    0    0    0  501 -0.00000000000E+00  0.00000000000E+00  0.93707291989E+01  0.93707303626E+01  0.46700000000E-02 0.  1.
          1   -1    0    0  501    0  0.00000000000E+00 -0.00000000000E+00 -0.23984628315E+03  0.23984628319E+03  0.46700000000E-02 0. -1.
         23    2    1    2    0    0  0.00000000000E+00  0.00000000000E+00 -0.23047555395E+03  0.24921701356E+03  0.94816342883E+02 0.  0.
        -11    1    3    3    0    0  0.39611370485E+02  0.23178790552E+01 -0.47045567649E+02  0.61544444677E+02  0.51100000000E-03 0.  1.
         11    1    3    3    0    0 -0.39611370485E+02 -0.23178790552E+01 -0.18342998630E+03  0.18767256888E+03  0.51100000000E-03 0. -1.
<mgrwt>
<rscale>  0 0.94816343E+02</rscale>
<asrwt>0</asrwt>
<pdfrwt beam="2">  1        1 0.36899424E-01 0.94816343E+02</pdfrwt>
<pdfrwt beam="1">  1       -1 0.14416509E-02 0.94816343E+02</pdfrwt>
<totfact> 0.11045515E+05</totfact>
</mgrwt>
</event>
<event>
 5   1  0.1357339E+00  0.8987664E+02  0.7818608E-02  0.1303151E+00
         -1   -1    0    0    0  501 -0.00000000000E+00  0.00000000000E+00  0.64339122182E+01  0.64339139131E+01  0.46700000000E-02 0.  1.
          1   -1    0    0  501    0  0.00000000000E+00 -0.00000000000E+00 -0.31387623018E+03  0.31387623022E+03  0.46700000000E-02 0. -1.
         23    2    1    2    0    0  0.00000000000E+00  0.00000000000E+00 -0.30744231796E+03  0.32031014413E+03  0.89876635215E+02 0.  0.
        -11    1    3    3    0    0  0.29804383562E+02 -0.30567264476E+02 -0.10372585541E+03  0.11216823087E+03  0.51100000000E-03 0.  1.
         11    1    3    3    0    0 -0.29804383562E+02  0.30567264476E+02 -0.20371646256E+03  0.20814191326E+03  0.51100000000E-03 0. -1.
<mgrwt>
<rscale>  0 0.89876635E+02</rscale>
<asrwt>0</asrwt>
<pdfrwt beam="2">  1        1 0.48288639E-01 0.89876635E+02</pdfrwt>
<pdfrwt beam="1">  1       -1 0.98983303E-03 0.89876635E+02</pdfrwt>
<totfact> 0.13425516E+05</totfact>
</mgrwt>
</event>
<event>
 5   1  0.1357339E+00  0.9188918E+02  0.7818608E-02  0.1298340E+00
         -1   -1    0    0    0  501 -0.00000000000E+00  0.00000000000E+00  0.16823718163E+03  0.16823718170E+03  0.46700000000E-02 0.  1.
          1   -1    0    0  501    0  0.00000000000E+00 -0.00000000000E+00 -0.12547199271E+02  0.12547200140E+02  0.46700000000E-02 0. -1.
         23    2    1    2    0    0  0.00000000000E+00  0.00000000000E+00  0.15568998236E+03  0.18078438184E+03  0.91889183851E+02 0.  0.
        -11    1    3    3    0    0 -0.22885115044E+02 -0.38879263248E+02  0.60740910182E+02  0.75662300859E+02  0.51100000000E-03 0.  1.
         11    1    3    3    0    0  0.22885115044E+02  0.38879263248E+02  0.94949072182E+02  0.10512208098E+03  0.51100000000E-03 0. -1.
<mgrwt>
<rscale>  0 0.91889184E+02</rscale>
<asrwt>0</asrwt>
<pdfrwt beam="2">  1        1 0.19303384E-02 0.91889184E+02</pdfrwt>
<pdfrwt beam="1">  1       -1 0.25882644E-01 0.91889184E+02</pdfrwt>
<totfact> 0.71272099E+04</totfact>
</mgrwt>
</event>
<event>
 5   1  0.1357339E+00  0.9032441E+02  0.7818608E-02  0.1302068E+00
          1   -1    0    0  501    0  0.00000000000E+00  0.00000000000E+00  0.11526159332E+03  0.11526159342E+03  0.46700000000E-02 0. -1.
         -1   -1    0    0    0  501 -0.00000000000E+00 -0.00000000000E+00 -0.17695613721E+02  0.17695614337E+02  0.46700000000E-02 0.  1.
         23    2    1    2    0    0  0.00000000000E+00  0.00000000000E+00  0.97565979599E+02  0.13295720775E+03  0.90324408208E+02 0.  0.
        -11    1    3    3    0    0  0.30368747347E+02  0.32471780492E+02  0.37104264669E+02  0.57908581407E+02  0.51100000000E-03 0.  1.
         11    1    3    3    0    0 -0.30368747347E+02 -0.32471780492E+02  0.60461714931E+02  0.75048626345E+02  0.51100000000E-03 0. -1.
<mgrwt>
<rscale>  0 0.90324408E+02</rscale>
<asrwt>0</asrwt>
<pdfrwt beam="1">  1        1 0.17732553E-01 0.90324408E+02</pdfrwt>
<pdfrwt beam="2">  1       -1 0.27224022E-02 0.90324408E+02</pdfrwt>
<totfact> 0.10975126E+05</totfact>
</mgrwt>
</event>
<event>
 5   1  0.1357339E+00  0.9426730E+02  0.7818608E-02  0.1292835E+00
          1   -1    0    0  501    0  0.00000000000E+00  0.00000000000E+00  0.81903186477E+02  0.81903186610E+02  0.46700000000E-02 0. -1.
         -1   -1    0    0    0  501 -0.00000000000E+00 -0.00000000000E+00 -0.27124474169E+02  0.27124474571E+02  0.46700000000E-02 0.  1.
         23    2    1    2    0    0  0.00000000000E+00  0.00000000000E+00  0.54778712308E+02  0.10902766118E+03  0.94267298574E+02 0.  0.
        -11    1    3    3    0    0 -0.17120599380E+02 -0.43397880018E+02  0.19623029311E+02  0.50611798948E+02  0.51100000000E-03 0.  1.
         11    1    3    3    0    0  0.17120599380E+02  0.43397880018E+02  0.35155682997E+02  0.58415862233E+02  0.51100000000E-03 0. -1.
<mgrwt>
<rscale>  0 0.94267299E+02</rscale>
<asrwt>0</asrwt>
<pdfrwt beam="1">  1        1 0.12600490E-01 0.94267299E+02</pdfrwt>
<pdfrwt beam="2">  1       -1 0.41729961E-02 0.94267299E+02</pdfrwt>
<totfact> 0.92258224E+04</totfact>
</mgrwt>
</event>
<event>
 5   1  0.1357339E+00  0.9075256E+02  0.7818608E-02  0.1301039E+00
         -1   -1    0    0    0  501 -0.00000000000E+00  0.00000000000E+00  0.93044823168E+02  0.93044823285E+02  0.46700000000E-02 0.  1.
          1   -1    0    0  501    0  0.00000000000E+00 -0.00000000000E+00 -0.22129192997E+02  0.22129193490E+02  0.46700000000E-02 0. -1.
         23    2    1    2    0    0  0.00000000000E+00  0.00000000000E+00  0.70915630171E+02  0.11517401677E+03  0.90752562154E+02 0.  0.
        -11    1    3    3    0    0  0.62407919541E+01  0.30413757584E+02 -0.65388806074E+01  0.31728553299E+02  0.51100000000E-03 0. -1.
         11    1    3    3    0    0 -0.62407919541E+01 -0.30413757584E+02  0.77454510778E+02  0.83445463476E+02  0.51100000000E-03 0.  1.
<mgrwt>
<rscale>  0 0.90752562E+02</rscale>
<asrwt>0</asrwt>
<pdfrwt beam="2">  1        1 0.34044914E-02 0.90752562E+02</pdfrwt>
<pdfrwt beam="1">  1       -1 0.14314588E-01 0.90752562E+02</pdfrwt>
<totfact> 0.83444653E+04</totfact>
</mgrwt>
</event>
<event>
 5   1  0.1357339E+00  0.8882540E+02  0.7818608E-02  0.1305721E+00
         -1   -1    0    0    0  501 -0.00000000000E+00  0.00000000000E+00  0.10826101878E+02  0.10826102885E+02  0.46700000000E-02 0.  1.
          1   -1    0    0  501    0  0.00000000000E+00 -0.00000000000E+00 -0.18219741180E+03  0.18219741186E+03  0.46700000000E-02 0. -1.
         23    2    1    2    0    0  0.00000000000E+00  0.00000000000E+00 -0.17137130992E+03  0.19302351474E+03  0.88825398281E+02 0.  0.
        -11    1    3    3    0    0  0.22372250802E+02 -0.15606743243E+02 -0.16184845906E+03  0.16413108097E+03  0.51100000000E-03 0. -1.
         11    1    3    3    0    0 -0.22372250802E+02  0.15606743243E+02 -0.95228508649E+01  0.28892433775E+02  0.51100000000E-03 0.  1.
<mgrwt>
<rscale>  0 0.88825398E+02</rscale>
<asrwt>0</asrwt>
<pdfrwt beam="2">  1        1 0.28030369E-01 0.88825398E+02</pdfrwt>
<pdfrwt beam="1">  1       -1 0.16655543E-02 0.88825398E+02</pdfrwt>
<totfact> 0.12473394E+05</totfact>
</mgrwt>
</event>
<event>
 5   1  0.1357339E+00  0.9150853E+02  0.7818608E-02  0.1299239E+00
          1   -1    0    0  501    0  0.00000000000E+00  0.00000000000E+00  0.42354543150E+02  0.42354543407E+02  0.46700000000E-02 0. -1.
         -1   -1    0    0    0  501 -0.00000000000E+00 -0.00000000000E+00 -0.49426876056E+02  0.49426876277E+02  0.46700000000E-02 0.  1.
         23    2    1    2    0    0  0.00000000000E+00  0.00000000000E+00 -0.70723329064E+01  0.91781419684E+02  0.91508530239E+02 0.  0.
        -11    1    3    3    0    0 -0.92588758823E+01  0.41656833294E+02  0.13018637071E+02  0.44615058603E+02  0.51100000000E-03 0. -1.
         11    1    3    3    0    0  0.92588758823E+01 -0.41656833294E+02 -0.20090969977E+02  0.47166361081E+02  0.51100000000E-03 0.  1.
<mgrwt>
<rscale>  0 0.91508530E+02</rscale>
<asrwt>0</asrwt>
<pdfrwt beam="1">  1        1 0.65160836E-02 0.91508530E+02</pdfrwt>
<pdfrwt beam="2">  1       -1 0.76041348E-02 0.91508530E+02</pdfrwt>
<totfact> 0.90520865E+04</totfact>
</mgrwt>
</event>
<event>
 5   1  0.1357339E+00  0.9309730E+02  0.7818608E-02  0.1295520E+00
          1   -1    0    0  501    0  0.00000000000E+00  0.00000000000E+00  0.89288006001E+01  0.89288018213E+01  0.46700000000E-02 0. -1.
         -1   -1    0    0    0  501 -0.00000000000E+00 -0.00000000000E+00 -0.24267274181E+03  0.24267274185E+03  0.46700000000E-02 0.  1.
         23    2    1    2    0    0  0.00000000000E+00  0.00000000000E+00 -0.23374394121E+03  0.25160154367E+03  0.93097297103E+02 0.  0.
        -11    1    3    3    0    0 -0.27897247893E+01  0.42851622463E+02 -0.16542290884E+03  0.17090577194E+03  0.51100000000E-03 0.  1.
         11    1    3    3    0    0  0.27897247893E+01 -0.42851622463E+02 -0.68321032365E+02  0.80695771734E+02  0.51100000000E-03 0. -1.
<mgrwt>
<rscale>  0 0.93097297E+02</rscale>
<asrwt>0</asrwt>
<pdfrwt beam="1">  1        1 0.13736619E-02 0.93097297E+02</pdfrwt>
<pdfrwt beam="2">  1       -1 0.37334263E-01 0.93097297E+02</pdfrwt>
<totfact> 0.61944540E+04</totfact>
</mgrwt>
</event>
<event>
 5   1  0.1357339E+00  0.9080035E+02  0.7818608E-02  0.1300925E+00
          1   -1    0    0  501    0  0.00000000000E+00  0.00000000000E+00  0.39514163078E+03  0.39514163081E+03  0.46700000000E-02 0. -1.
         -1   -1    0    0    0  501 -0.00000000000E+00 -0.00000000000E+00 -0.52162949793E+01  0.52162970697E+01  0.46700000000E-02 0.  1.
         23    2    1    2    0    0  0.00000000000E+00  0.00000000000E+00  0.38992533580E+03  0.40035792788E+03  0.90800346447E+02 0.  0.
        -11    1    3    3    0    0 -0.41829823251E+02  0.14817096215E+02  0.15269507477E+03  0.15901278663E+03  0.51100000000E-03 0.  1.
         11    1    3    3    0    0  0.41829823251E+02 -0.14817096215E+02  0.23723026103E+03  0.24134514124E+03  0.51100000000E-03 0. -1.
<mgrwt>
<rscale>  0 0.90800346E+02</rscale>
<asrwt>0</asrwt>
<pdfrwt beam="1">  1        1 0.60791007E-01 0.90800346E+02</pdfrwt>
<pdfrwt beam="2">  1       -1 0.80250726E-03 0.90800346E+02</pdfrwt>
<totfact> 0.13610734E+05</totfact>
</mgrwt>
</event>
<event>
 5   1  0.1357339E+00  0.9022746E+02  0.7818608E-02  0.1302302E+00
          1   -1    0    0  501    0  0.00000000000E+00  0.00000000000E+00  0.17394134144E+02  0.17394134771E+02  0.46700000000E-02 0. -1.
         -1   -1    0    0    0  501 -0.00000000000E+00 -0.00000000000E+00 -0.11700774409E+03  0.11700774419E+03  0.46700000000E-02 0.  1.
         23    2    1    2    0    0  0.00000000000E+00  0.00000000000E+00 -0.99613609949E+02  0.13440187896E+03  0.90227455801E+02 0.  0.
        -11    1    3    3    0    0  0.27820266853E+02  0.11861282747E+02  0.57552408798E-01  0.30243356109E+02  0.51100000000E-03 0. -1.
         11    1    3    3    0    0 -0.27820266853E+02 -0.11861282747E+02 -0.99671162357E+02  0.10415852285E+03  0.51100000000E-03 0.  1.
<mgrwt>
<rscale>  0 0.90227456E+02</rscale>
<asrwt>0</asrwt>
<pdfrwt beam="1">  1        1 0.26760208E-02 0.90227456E+02</pdfrwt>
<pdfrwt beam="2">  1       -1 0.18001191E-01 0.90227456E+02</pdfrwt>
<totfact> 0.81096363E+04</totfact>
</mgrwt>
</event>
<event>
 5   1  0.1357339E+00  0.9059422E+02  0.7818608E-02  0.1301419E+00
          1   -1    0    0  501    0  0.00000000000E+00  0.00000000000E+00  0.20583599861E+02  0.20583600391E+02  0.46700000000E-02 0. -1.
         -1   -1    0    0    0  501 -0.00000000000E+00 -0.00000000000E+00 -0.99682656462E+02  0.99682656572E+02  0.46700000000E-02 0.  1.
         23    2    1    2    0    0  0.00000000000E+00  0.00000000000E+00 -0.79099056601E+02  0.12026625696E+03  0.90594215094E+02 0.  0.
        -11    1    3    3    0    0 -0.36182897417E+02 -0.26905774256E+02 -0.45291016597E+02  0.63909302441E+02  0.51100000000E-03 0.  1.
         11    1    3    3    0    0  0.36182897417E+02  0.26905774256E+02 -0.33808040004E+02  0.56356954522E+02  0.51100000000E-03 0. -1.
<mgrwt>
<rscale>  0 0.90594215E+02</rscale>
<asrwt>0</asrwt>
<pdfrwt beam="1">  1        1 0.31667078E-02 0.90594215E+02</pdfrwt>
<pdfrwt beam="2">  1       -1 0.15335793E-01 0.90594215E+02</pdfrwt>
<totfact> 0.82772915E+04</totfact>
</mgrwt>
</event>
<event>
 5   1  0.1357339E+00  0.9087048E+02  0.7818608E-02  0.1300757E+00
          1   -1    0    0  501    0  0.00000000000E+00  0.00000000000E+00  0.58285160255E+02  0.58285160442E+02  0.46700000000E-02 0. -1.
         -1   -1    0    0    0  501 -0.00000000000E+00 -0.00000000000E+00 -0.35418292327E+02  0.35418292635E+02  0.46700000000E-02 0.  1.
         23    2    1    2    0    0  0.00000000000E+00  0.00000000000E+00  0.22866867927E+02  0.93703453077E+02  0.90870476337E+02 0.  0.
        -11    1    3    3    0    0  0.34292525955E+02 -0.11232982435E+02 -0.17035309505E+02  0.39904373206E+02  0.51100000000E-03 0.  1.
         11    1    3    3    0    0 -0.34292525955E+02  0.11232982435E+02  0.39902177433E+02  0.53799079871E+02  0.51100000000E-03 0. -1.
<mgrwt>
<rscale>  0 0.90870476E+02</rscale>
<asrwt>0</asrwt>
<pdfrwt beam="1">  1        1 0.89669478E-02 0.90870476E+02</pdfrwt>
<pdfrwt beam="2">  1       -1 0.54489681E-02 0.90870476E+02</pdfrwt>
<totfact> 0.96850544E+04</totfact>
</mgrwt>
</event>
<event>
 5   1  0.1357339E+00  0.9075630E+02  0.7818608E-02  0.1301030E+00
          1   -1    0    0  501    0  0.00000000000E+00  0.00000000000E+00  0.16587958086E+03  0.16587958093E+03  0.46700000000E-02 0. -1.
         -1   -1    0    0    0  501 -0.00000000000E+00 -0.00000000000E+00 -0.12413682521E+02  0.12413683400E+02  0.46700000000E-02 0.  1.
         23    2    1    2    0    0  0.00000000000E+00  0.00000000000E+00  0.15346589834E+03  0.17829326433E+03  0.90756300890E+02 0.  0.
        -11    1    3    3    0    0 -0.26019361150E+02 -0.22908517192E+02  0.13425602430E+03  0.13865960975E+03  0.51100000000E-03 0. -1.
         11    1    3    3    0    0  0.26019361150E+02  0.22908517192E+02  0.19209874047E+02  0.39633654585E+02  0.51100000000E-03 0.  1.
<mgrwt>
<rscale>  0 0.90756301E+02</rscale>
<asrwt>0</asrwt>
<pdfrwt beam="1">  1        1 0.25519936E-01 0.90756301E+02</pdfrwt>
<pdfrwt beam="2">  1       -1 0.19097974E-02 0.90756301E+02</pdfrwt>
<totfact> 0.11567738E+05</totfact>
</mgrwt>
</event>
<event>
 5   1  0.1357339E+00  0.8187935E+02  0.7818608E-02  0.1323801E+00
         -1   -1    0    0    0  501 -0.00000000000E+00  0.00000000000E+00  0.35699393545E+02  0.35699393850E+02  0.46700000000E-02 0.  1.
          1   -1    0    0  501    0  0.00000000000E+00 -0.00000000000E+00 -0.46949177244E+02  0.46949177476E+02  0.46700000000E-02 0. -1.
         23    2    1    2    0    0  0.00000000000E+00  0.00000000000E+00 -0.11249783699E+02  0.82648571326E+02  0.81879354595E+02 0.  0.
        -11    1    3    3    0    0  0.33593404442E+02 -0.14649290073E+02  0.12793132829E+02  0.38817299874E+02  0.51100000000E-03 0.  1.
         11    1    3    3    0    0 -0.33593404442E+02  0.14649290073E+02 -0.24042916528E+02  0.43831271452E+02  0.51100000000E-03 0. -1.
<mgrwt>
<rscale>  0 0.81879355E+02</rscale>
<asrwt>0</asrwt>
<pdfrwt beam="2">  1        1 0.72229504E-02 0.81879355E+02</pdfrwt>
<pdfrwt beam="1">  1       -1 0.54922144E-02 0.81879355E+02</pdfrwt>
<totfact> 0.12521283E+05</totfact>
</mgrwt>
</event>
<event>
 5   1  0.1357339E+00  0.9499319E+02  0.7818608E-02  0.1291191E+00
          1   -1    0    0  501    0  0.00000000000E+00  0.00000000000E+00  0.21117179483E+02  0.21117180000E+02  0.46700000000E-02 0.  1.
         -1   -1    0    0    0  501 -0.00000000000E+00 -0.00000000000E+00 -0.10682897887E+03  0.10682897897E+03  0.46700000000E-02 0. -1.
         23    2    1    2    0    0  0.00000000000E+00  0.00000000000E+00 -0.85711799383E+02  0.12794615897E+03  0.94993194710E+02 0.  0.
        -11    1    3    3    0    0  0.44780373089E+02  0.13004976174E+01 -0.64107615994E+02  0.78209715105E+02  0.51100000000E-03 0. -1.
         11    1    3    3    0    0 -0.44780373089E+02 -0.13004976174E+01 -0.21604183389E+02  0.49736443864E+02  0.51100000000E-03 0.  1.
<mgrwt>
<rscale>  0 0.94993195E+02</rscale>
<asrwt>0</asrwt>
<pdfrwt beam="1">  1        1 0.32487970E-02 0.94993195E+02</pdfrwt>
<pdfrwt beam="2">  1       -1 0.16435227E-01 0.94993195E+02</pdfrwt>
<totfact> 0.72284420E+04</totfact>
</mgrwt>
</event>
<event>
 5   1  0.1357339E+00  0.9325878E+02  0.7818608E-02  0.1295147E+00
         -1   -1    0    0    0  501 -0.00000000000E+00  0.00000000000E+00  0.16759196358E+03  0.16759196364E+03  0.46700000000E-02 0. -1.
          1   -1    0    0  501    0  0.00000000000E+00 -0.00000000000E+00 -0.12973772288E+02  0.12973773128E+02  0.46700000000E-02 0.  1.
         23    2    1    2    0    0  0.00000000000E+00  0.00000000000E+00  0.15461819129E+03  0.18056573677E+03  0.93258780917E+02 0.  0.
        -11    1    3    3    0    0  0.41812979781E+02  0.17969108240E+01  0.11711846576E+03  0.12437157710E+03  0.51100000000E-03 0. -1.
         11    1    3    3    0    0 -0.41812979781E+02 -0.17969108240E+01  0.37499725528E+02  0.56194159676E+02  0.51100000000E-03 0.  1.
<mgrwt>
<rscale>  0 0.93258781E+02</rscale>
<asrwt>0</asrwt>
<pdfrwt beam="2">  1        1 0.19959649E-02 0.93258781E+02</pdfrwt>
<pdfrwt beam="1">  1       -1 0.25783381E-01 0.93258781E+02</pdfrwt>
<totfact> 0.68645416E+04</totfact>
</mgrwt>
</event>
<event>
 5   1  0.1357339E+00  0.8671641E+02  0.7818608E-02  0.1311004E+00
         -1   -1    0    0    0  501 -0.00000000000E+00  0.00000000000E+00  0.38823471095E+03  0.38823471098E+03  0.46700000000E-02 0.  1.
          1   -1    0    0  501    0  0.00000000000E+00 -0.00000000000E+00 -0.48422599290E+01  0.48422621810E+01  0.46700000000E-02 0. -1.
         23    2    1    2    0    0  0.00000000000E+00  0.00000000000E+00  0.38339245103E+03  0.39307697316E+03  0.86716407491E+02 0.  0.
        -11    1    3    3    0    0 -0.85095443914E+01 -0.41812501759E+02  0.15680872487E+03  0.16251053456E+03  0.51100000000E-03 0. -1.
         11    1    3    3    0    0  0.85095443914E+01  0.41812501759E+02  0.22658372616E+03  0.23056643860E+03  0.51100000000E-03 0.  1.
<mgrwt>
<rscale>  0 0.86716407E+02</rscale>
<asrwt>0</asrwt>
<pdfrwt beam="2">  1        1 0.74496298E-03 0.86716407E+02</pdfrwt>
<pdfrwt beam="1">  1       -1 0.59728438E-01 0.86716407E+02</pdfrwt>
<totfact> 0.61665266E+04</totfact>
</mgrwt>
</event>
<event>
 5   1  0.1357339E+00  0.8859060E+02  0.7818608E-02  0.1306301E+00
          1   -1    0    0  501    0  0.00000000000E+00  0.00000000000E+00  0.38846558021E+03  0.38846558024E+03  0.46700000000E-02 0. -1.
         -1   -1    0    0    0  501 -0.00000000000E+00 -0.00000000000E+00 -0.50508293428E+01  0.50508315017E+01  0.46700000000E-02 0.  1.
         23    2    1    2    0    0  0.00000000000E+00  0.00000000000E+00  0.38341475087E+03  0.39351641174E+03  0.88590604051E+02 0.  0.
        -11    1    3    3    0    0  0.41672326730E+02  0.86439773830E+01  0.13716470102E+03  0.14361565502E+03  0.51100000000E-03 0.  1.
         11    1    3    3    0    0 -0.41672326730E+02 -0.86439773830E+01  0.24625004985E+03  0.24990075672E+03  0.51100000000E-03 0. -1.
<mgrwt>
<rscale>  0 0.88590604E+02</rscale>
<asrwt>0</asrwt>
<pdfrwt beam="1">  1        1 0.59763952E-01 0.88590604E+02</pdfrwt>
<pdfrwt beam="2">  1       -1 0.77705062E-03 0.88590604E+02</pdfrwt>
<totfact> 0.14487973E+05</totfact>
</mgrwt>
</event>
<event>
 5   1  0.1357339E+00  0.8075021E+02  0.7818608E-02  0.1326936E+00
          1   -1    0    0  501    0  0.00000000000E+00  0.00000000000E+00  0.64595013812E+02  0.64595013981E+02  0.46700000000E-02 0. -1.
         -1   -1    0    0    0  501 -0.00000000000E+00 -0.00000000000E+00 -0.25236455120E+02  0.25236455552E+02  0.46700000000E-02 0.  1.
         23    2    1    2    0    0  0.00000000000E+00  0.00000000000E+00  0.39358558693E+02  0.89831469533E+02  0.80750212235E+02 0.  0.
        -11    1    3    3    0    0 -0.30752125676E+02  0.13007462288E+02 -0.55728985857E+01  0.33851802133E+02  0.51100000000E-03 0.  1.
         11    1    3    3    0    0  0.30752125676E+02 -0.13007462288E+02  0.44931457278E+02  0.55979667400E+02  0.51100000000E-03 0. -1.
<mgrwt>
<rscale>  0 0.80750212E+02</rscale>
<asrwt>0</asrwt>
<pdfrwt beam="1">  1        1 0.99376944E-02 0.80750212E+02</pdfrwt>
<pdfrwt beam="2">  1       -1 0.38825317E-02 0.80750212E+02</pdfrwt>
<totfact> 0.13593356E+05</totfact>
</mgrwt>
</event>
<event>
 5   1  0.1357339E+00  0.9114415E+02  0.7818608E-02  0.1300104E+00
          1   -1    0    0  501    0  0.00000000000E+00  0.00000000000E+00  0.34307291021E+03  0.34307291025E+03  0.46700000000E-02 0. -1.
         -1   -1    0    0    0  501 -0.00000000000E+00 -0.00000000000E+00 -0.60535634021E+01  0.60535652034E+01  0.46700000000E-02 0.  1.
         23    2    1    2    0    0  0.00000000000E+00  0.00000000000E+00  0.33701934681E+03  0.34912647545E+03  0.91144148107E+02 0.  0.
        -11    1    3    3    0    0  0.30948941462E+01  0.45017644366E+02  0.19293102113E+03  0.19813769351E+03  0.51100000000E-03 0.  1.
         11    1    3    3    0    0 -0.30948941462E+01 -0.45017644366E+02  0.14408832568E+03  0.15098878194E+03  0.51100000000E-03 0. -1.
<mgrwt>
<rscale>  0 0.91144148E+02</rscale>
<asrwt>0</asrwt>
<pdfrwt beam="1">  1        1 0.52780448E-01 0.91144148E+02</pdfrwt>
<pdfrwt beam="2">  1       -1 0.93131758E-03 0.91144148E+02</pdfrwt>
<totfact> 0.13148559E+05</totfact>
</mgrwt>
</event>
<event>
 5   1  0.1357339E+00  0.5530365E+02  0.7818608E-02  0.1418668E+00
         -1   -1    0    0    0  501 -0.00000000000E+00  0.00000000000E+00  0.13289940216E+03  0.13289940224E+03  0.46700000000E-02 0.  1.
          1   -1    0    0  501    0  0.00000000000E+00 -0.00000000000E+00 -0.57533991354E+01  0.57534010307E+01  0.46700000000E-02 0. -1.
         23    2    1    2    0    0  0.00000000000E+00  0.00000000000E+00  0.12714600302E+03  0.13865280327E+03  0.55303650605E+02 0.  0.
        -11    1    3    3    0    0 -0.24386302934E+02 -0.10400569101E+02  0.83275799928E+02  0.87394064228E+02  0.51100000000E-03 0. -1.
         11    1    3    3    0    0  0.24386302934E+02  0.10400569101E+02  0.43870203095E+02  0.51258739043E+02  0.51100000000E-03 0.  1.
<mgrwt>
<rscale>  0 0.55303651E+02</rscale>
<asrwt>0</asrwt>
<pdfrwt beam="2">  1        1 0.88513850E-03 0.55303651E+02</pdfrwt>
<pdfrwt beam="1">  1       -1 0.20446062E-01 0.55303651E+02</pdfrwt>
<totfact> 0.27488834E+05</totfact>
</mgrwt>
</event>
<event>
 5   1  0.1357339E+00  0.8670073E+02  0.7818608E-02  0.1311044E+00
          1   -1    0    0  501    0  0.00000000000E+00  0.00000000000E+00  0.17928141958E+03  0.17928141964E+03  0.46700000000E-02 0. -1.
         -1   -1    0    0    0  501 -0.00000000000E+00 -0.00000000000E+00 -0.10482145237E+02  0.10482146277E+02  0.46700000000E-02 0.  1.
         23    2    1    2    0    0  0.00000000000E+00  0.00000000000E+00  0.16879927434E+03  0.18976356591E+03  0.86700726242E+02 0.  0.
        -11    1    3    3    0    0 -0.40103707484E+02 -0.18042987652E+01  0.48589408725E+02  0.63027720001E+02  0.51100000000E-03 0.  1.
         11    1    3    3    0    0  0.40103707484E+02  0.18042987652E+01  0.12020986561E+03  0.12673584591E+03  0.51100000000E-03 0. -1.
<mgrwt>
<rscale>  0 0.86700726E+02</rscale>
<asrwt>0</asrwt>
<pdfrwt beam="1">  1        1 0.27581754E-01 0.86700726E+02</pdfrwt>
<pdfrwt beam="2">  1       -1 0.16126380E-02 0.86700726E+02</pdfrwt>
<totfact> 0.13266920E+05</totfact>
</mgrwt>
</event>
<event>
 5   1  0.1357339E+00  0.9135472E+02  0.7818608E-02  0.1299604E+00
         -1   -1    0    0    0  501 -0.00000000000E+00  0.00000000000E+00  0.20798284496E+03  0.20798284501E+03  0.46700000000E-02 0.  1.
          1   -1    0    0  501    0  0.00000000000E+00 -0.00000000000E+00 -0.10031697025E+02  0.10031698112E+02  0.46700000000E-02 0. -1.
         23    2    1    2    0    0  0.00000000000E+00  0.00000000000E+00  0.19795114793E+03  0.21801454312E+03  0.91354715506E+02 0.  0.
        -11    1    3    3    0    0 -0.57144801742E+01 -0.32067026794E+02  0.22553943828E+02  0.39618554662E+02  0.51100000000E-03 0.  1.
         11    1    3    3    0    0  0.57144801742E+01  0.32067026794E+02  0.17539720410E+03  0.17839598846E+03  0.51100000000E-03 0. -1.
<mgrwt>
<rscale>  0 0.91354716E+02</rscale>
<asrwt>0</asrwt>
<pdfrwt beam="2">  1        1 0.15433379E-02 0.91354716E+02</pdfrwt>
<pdfrwt beam="1">  1       -1 0.31997364E-01 0.91354716E+02</pdfrwt>
<totfact> 0.68292391E+04</totfact>
</mgrwt>
</event>
<event>
 5   1  0.1357339E+00  0.9331561E+02  0.7818608E-02  0.1295015E+00
         -1   -1    0    0    0  501 -0.00000000000E+00  0.00000000000E+00  0.89344626658E+01  0.89344638863E+01  0.46700000000E-02 0.  1.
          1   -1    0    0  501    0  0.00000000000E+00 -0.00000000000E+00 -0.24365770555E+03  0.24365770559E+03  0.46700000000E-02 0. -1.
         23    2    1    2    0    0  0.00000000000E+00  0.00000000000E+00 -0.23472324288E+03  0.25259216948E+03  0.93315611411E+02 0.  0.
        -11    1    3    3    0    0 -0.40416613949E+02  0.10932040429E+02 -0.61628023638E+02  0.74505204441E+02  0.51100000000E-03 0.  1.
         11    1    3    3    0    0  0.40416613949E+02 -0.10932040429E+02 -0.17309521924E+03  0.17808696504E+03  0.51100000000E-03 0. -1.
<mgrwt>
<rscale>  0 0.93315611E+02</rscale>
<asrwt>0</asrwt>
<pdfrwt beam="2">  1        1 0.37485796E-01 0.93315611E+02</pdfrwt>
<pdfrwt beam="1">  1       -1 0.13745330E-02 0.93315611E+02</pdfrwt>
<totfact> 0.11564482E+05</totfact>
</mgrwt>
</event>
<event>
 5   1  0.1357339E+00  0.9327937E+02  0.7818608E-02  0.1295099E+00
         -1   -1    0    0    0  501 -0.00000000000E+00  0.00000000000E+00  0.73705579095E+02  0.73705579243E+02  0.46700000000E-02 0.  1.
          1   -1    0    0  501    0  0.00000000000E+00 -0.00000000000E+00 -0.29512828192E+02  0.29512828562E+02  0.46700000000E-02 0. -1.
         23    2    1    2    0    0  0.00000000000E+00  0.00000000000E+00  0.44192750903E+02  0.10321840780E+03  0.93279367908E+02 0.  0.
        -11    1    3    3    0    0 -0.15386635827E+02 -0.14728437755E+02 -0.23816633493E+02  0.31951642711E+02  0.51100000000E-03 0. -1.
         11    1    3    3    0    0  0.15386635827E+02  0.14728437755E+02  0.68009384395E+02  0.71266765093E+02  0.51100000000E-03 0.  1.
<mgrwt>
<rscale>  0 0.93279368E+02</rscale>
<asrwt>0</asrwt>
<pdfrwt beam="2">  1        1 0.45404353E-02 0.93279368E+02</pdfrwt>
<pdfrwt beam="1">  1       -1 0.11339320E-01 0.93279368E+02</pdfrwt>
<totfact> 0.80955798E+04</totfact>
</mgrwt>
</event>
<event>
 5   1  0.1357339E+00  0.9262426E+02  0.7818608E-02  0.1296618E+00
          1   -1    0    0  501    0  0.00000000000E+00  0.00000000000E+00  0.45130699735E+02  0.45130699977E+02  0.46700000000E-02 0. -1.
         -1   -1    0    0    0  501 -0.00000000000E+00 -0.00000000000E+00 -0.47524482477E+02  0.47524482706E+02  0.46700000000E-02 0.  1.
         23    2    1    2    0    0  0.00000000000E+00  0.00000000000E+00 -0.23937827415E+01  0.92655182683E+02  0.92624255366E+02 0.  0.
        -11    1    3    3    0    0  0.41143722718E+02  0.91565502181E+01  0.17997137425E+02  0.45831706130E+02  0.51100000000E-03 0. -1.
         11    1    3    3    0    0 -0.41143722718E+02 -0.91565502181E+01 -0.20390920167E+02  0.46823476553E+02  0.51100000000E-03 0.  1.
<mgrwt>
<rscale>  0 0.92624255E+02</rscale>
<asrwt>0</asrwt>
<pdfrwt beam="1">  1        1 0.69431847E-02 0.92624255E+02</pdfrwt>
<pdfrwt beam="2">  1       -1 0.73114588E-02 0.92624255E+02</pdfrwt>
<totfact> 0.88328336E+04</totfact>
</mgrwt>
</event>
<event>
 5   1  0.1357339E+00  0.9112549E+02  0.7818608E-02  0.1300149E+00
         -1   -1    0    0    0  501 -0.00000000000E+00  0.00000000000E+00  0.83372834873E+01  0.83372847952E+01  0.46700000000E-02 0.  1.
          1   -1    0    0  501    0  0.00000000000E+00 -0.00000000000E+00 -0.24899761273E+03  0.24899761277E+03  0.46700000000E-02 0. -1.
         23    2    1    2    0    0  0.00000000000E+00  0.00000000000E+00 -0.24066032924E+03  0.25733489756E+03  0.91125492786E+02 0.  0.
        -11    1    3    3    0    0  0.31536829557E+02 -0.21356984600E+02 -0.49715793645E+02  0.62628687897E+02  0.51100000000E-03 0.  1.
         11    1    3    3    0    0 -0.31536829557E+02  0.21356984600E+02 -0.19094453559E+03  0.19470620967E+03  0.51100000000E-03 0. -1.
<mgrwt>
<rscale>  0 0.91125493E+02</rscale>
<asrwt>0</asrwt>
<pdfrwt beam="2">  1        1 0.38307319E-01 0.91125493E+02</pdfrwt>
<pdfrwt beam="1">  1       -1 0.12826593E-02 0.91125493E+02</pdfrwt>
<totfact> 0.12375951E+05</totfact>
</mgrwt>
</event>
<event>
 5   1  0.1357339E+00  0.8712146E+02  0.7818608E-02  0.1309976E+00
          1   -1    0    0  501    0  0.00000000000E+00  0.00000000000E+00  0.96753708012E+02  0.96753708124E+02  0.46700000000E-02 0. -1.
         -1   -1    0    0    0  501 -0.00000000000E+00 -0.00000000000E+00 -0.19612035192E+02  0.19612035748E+02  0.46700000000E-02 0.  1.
         23    2    1    2    0    0  0.00000000000E+00  0.00000000000E+00  0.77141672820E+02  0.11636574387E+03  0.87121459248E+02 0.  0.
        -11    1    3    3    0    0 -0.39128882365E+02  0.14949899770E+02  0.22600290023E+02  0.47595609542E+02  0.51100000000E-03 0.  1.
         11    1    3    3    0    0  0.39128882365E+02 -0.14949899770E+02  0.54541382797E+02  0.68770134331E+02  0.51100000000E-03 0. -1.
<mgrwt>
<rscale>  0 0.87121459E+02</rscale>
<asrwt>0</asrwt>
<pdfrwt beam="1">  1        1 0.14885186E-01 0.87121459E+02</pdfrwt>
<pdfrwt beam="2">  1       -1 0.30172363E-02 0.87121459E+02</pdfrwt>
<totfact> 0.11755930E+05</totfact>
</mgrwt>
</event>
<event>
 5   1  0.1357339E+00  0.9274370E+02  0.7818608E-02  0.1296340E+00
         -1   -1    0    0    0  501 -0.00000000000E+00  0.00000000000E+00  0.25908291403E+02  0.25908291824E+02  0.46700000000E-02 0.  1.
          1   -1    0    0  501    0  0.00000000000E+00 -0.00000000000E+00 -0.82998468063E+02  0.82998468194E+02  0.46700000000E-02 0. -1.
         23    2    1    2    0    0  0.00000000000E+00  0.00000000000E+00 -0.57090176660E+02  0.10890676002E+03  0.92743701169E+02 0.  0.
        -11    1    3    3    0    0  0.13600108161E+02 -0.44331612452E+02 -0.28185595209E+02  0.54264929579E+02  0.51100000000E-03 0. -1.
         11    1    3    3    0    0 -0.13600108161E+02  0.44331612452E+02 -0.28904581451E+02  0.54641830439E+02  0.51100000000E-03 0.  1.
<mgrwt>
<rscale>  0 0.92743701E+02</rscale>
<asrwt>0</asrwt>
<pdfrwt beam="2">  1        1 0.12768995E-01 0.92743701E+02</pdfrwt>
<pdfrwt beam="1">  1       -1 0.39858911E-02 0.92743701E+02</pdfrwt>
<totfact> 0.96699089E+04</totfact>
</mgrwt>
</event>
<event>
 5   1  0.1357339E+00  0.8792288E+02  0.7818608E-02  0.1307961E+00
          1   -1    0    0  501    0  0.00000000000E+00  0.00000000000E+00  0.30811670381E+02  0.30811670735E+02  0.46700000000E-02 0. -1.
         -1   -1    0    0    0  501 -0.00000000000E+00 -0.00000000000E+00 -0.62723253890E+02  0.62723254063E+02  0.46700000000E-02 0.  1.
         23    2    1    2    0    0  0.00000000000E+00  0.00000000000E+00 -0.31911583508E+02  0.93534924798E+02  0.87922880953E+02 0.  0.
        -11    1    3    3    0    0  0.39535309887E+02 -0.19157964388E+02 -0.14260353395E+02  0.46189024742E+02  0.51100000000E-03 0.  1.
         11    1    3    3    0    0 -0.39535309887E+02  0.19157964388E+02 -0.17651230113E+02  0.47345900057E+02  0.51100000000E-03 0. -1.
<mgrwt>
<rscale>  0 0.87922881E+02</rscale>
<asrwt>0</asrwt>
<pdfrwt beam="1">  1        1 0.47402570E-02 0.87922881E+02</pdfrwt>
<pdfrwt beam="2">  1       -1 0.96497314E-02 0.87922881E+02</pdfrwt>
<totfact> 0.96571605E+04</totfact>
</mgrwt>
</event>
<event>
 5   1  0.1357339E+00  0.8966080E+02  0.7818608E-02  0.1303675E+00
          1   -1    0    0  501    0  0.00000000000E+00  0.00000000000E+00  0.25011807140E+03  0.25011807144E+03  0.46700000000E-02 0. -1.
         -1   -1    0    0    0  501 -0.00000000000E+00 -0.00000000000E+00 -0.80352632502E+01  0.80352646073E+01  0.46700000000E-02 0.  1.
         23    2    1    2    0    0  0.00000000000E+00  0.00000000000E+00  0.24208280815E+03  0.25815333605E+03  0.89660799195E+02 0.  0.
        -11    1    3    3    0    0  0.16645197159E+02  0.41313759189E+02  0.10639540452E+03  0.11534240933E+03  0.51100000000E-03 0. -1.
         11    1    3    3    0    0 -0.16645197159E+02 -0.41313759189E+02  0.13568740363E+03  0.14281092672E+03  0.51100000000E-03 0.  1.
<mgrwt>
<rscale>  0 0.89660799E+02</rscale>
<asrwt>0</asrwt>
<pdfrwt beam="1">  1        1 0.38479699E-01 0.89660799E+02</pdfrwt>
<pdfrwt beam="2">  1       -1 0.12361946E-02 0.89660799E+02</pdfrwt>
<totfact> 0.12933899E+05</totfact>
</mgrwt>
</event>
<event>
 5   1  0.1357339E+00  0.8926802E+02  0.7818608E-02  0.1304634E+00
          1   -1    0    0  501    0  0.00000000000E+00  0.00000000000E+00  0.34184813031E+02  0.34184813350E+02  0.46700000000E-02 0. -1.
         -1   -1    0    0    0  501 -0.00000000000E+00 -0.00000000000E+00 -0.58277192958E+02  0.58277193145E+02  0.46700000000E-02 0.  1.
         23    2    1    2    0    0  0.00000000000E+00  0.00000000000E+00 -0.24092379927E+02  0.92462006495E+02  0.89268022687E+02 0.  0.
        -11    1    3    3    0    0 -0.50825406403E+00  0.17417125013E+02 -0.54608801847E+02  0.57321338132E+02  0.51100000000E-03 0.  1.
         11    1    3    3    0    0  0.50825406403E+00 -0.17417125013E+02  0.30516421920E+02  0.35140668362E+02  0.51100000000E-03 0. -1.
<mgrwt>
<rscale>  0 0.89268023E+02</rscale>
<asrwt>0</asrwt>
<pdfrwt beam="1">  1        1 0.52592020E-02 0.89268023E+02</pdfrwt>
<pdfrwt beam="2">  1       -1 0.89657220E-02 0.89268023E+02</pdfrwt>
<totfact> 0.93981316E+04</totfact>
</mgrwt>
</event>
<event>
 5   1  0.1357339E+00  0.9065364E+02  0.7818608E-02  0.1301276E+00
          1   -1    0    0  501    0  0.00000000000E+00  0.00000000000E+00  0.27023969649E+02  0.27023970052E+02  0.46700000000E-02 0. -1.
         -1   -1    0    0    0  501 -0.00000000000E+00 -0.00000000000E+00 -0.76025859514E+02  0.76025859657E+02  0.46700000000E-02 0.  1.
         23    2    1    2    0    0  0.00000000000E+00  0.00000000000E+00 -0.49001889865E+02  0.10304982971E+03  0.90653638608E+02 0.  0.
        -11    1    3    3    0    0 -0.28606351580E+02 -0.32537002346E+02 -0.93544908625E+01  0.44322526687E+02  0.51100000000E-03 0. -1.
         11    1    3    3    0    0  0.28606351580E+02  0.32537002346E+02 -0.39647399003E+02  0.58727303023E+02  0.51100000000E-03 0.  1.
<mgrwt>
<rscale>  0 0.90653639E+02</rscale>
<asrwt>0</asrwt>
<pdfrwt beam="1">  1        1 0.41575339E-02 0.90653639E+02</pdfrwt>
<pdfrwt beam="2">  1       -1 0.11696286E-01 0.90653639E+02</pdfrwt>
<totfact> 0.86640829E+04</totfact>
</mgrwt>
</event>
<event>
 5   1  0.1357339E+00  0.8684574E+02  0.7818608E-02  0.1310675E+00
          1   -1    0    0  501    0  0.00000000000E+00  0.00000000000E+00  0.12981309225E+03  0.12981309233E+03  0.46700000000E-02 0. -1.
         -1   -1    0    0    0  501 -0.00000000000E+00 -0.00000000000E+00 -0.14525079435E+02  0.14525080186E+02  0.46700000000E-02 0.  1.
         23    2    1    2    0    0  0.00000000000E+00  0.00000000000E+00  0.11528801281E+03  0.14433817252E+03  0.86845737647E+02 0.  0.
        -11    1    3    3    0    0  0.15802224127E+02  0.32424532083E+02  0.17463133497E+02  0.40075199313E+02  0.51100000000E-03 0.  1.
         11    1    3    3    0    0 -0.15802224127E+02 -0.32424532083E+02  0.97824879316E+02  0.10426297321E+03  0.51100000000E-03 0. -1.
<mgrwt>
<rscale>  0 0.86845738E+02</rscale>
<asrwt>0</asrwt>
<pdfrwt beam="1">  1        1 0.19971244E-01 0.86845738E+02</pdfrwt>
<pdfrwt beam="2">  1       -1 0.22346277E-02 0.86845738E+02</pdfrwt>
<totfact> 0.12456053E+05</totfact>
</mgrwt>
</event>
<event>
 5   1  0.1357339E+00  0.8710723E+02  0.7818608E-02  0.1310012E+00
          1   -1    0    0  501    0  0.00000000000E+00  0.00000000000E+00  0.16380148679E+02  0.16380149345E+02  0.46700000000E-02 0. -1.
         -1   -1    0    0    0  501 -0.00000000000E+00 -0.00000000000E+00 -0.11580586859E+03  0.11580586869E+03  0.46700000000E-02 0.  1.
         23    2    1    2    0    0  0.00000000000E+00  0.00000000000E+00 -0.99425719914E+02  0.13218601803E+03  0.87107230371E+02 0.  0.
        -11    1    3    3    0    0  0.23170702528E+02 -0.19275622398E+02 -0.20020656726E+01  0.30206610894E+02  0.51100000000E-03 0. -1.
         11    1    3    3    0    0 -0.23170702528E+02  0.19275622398E+02 -0.97423654241E+02  0.10197940714E+03  0.51100000000E-03 0.  1.
<mgrwt>
<rscale>  0 0.87107230E+02</rscale>
<asrwt>0</asrwt>
<pdfrwt beam="1">  1        1 0.25200230E-02 0.87107230E+02</pdfrwt>
<pdfrwt beam="2">  1       -1 0.17816287E-01 0.87107230E+02</pdfrwt>
<totfact> 0.88982834E+04</totfact>
</mgrwt>
</event>
<event>
 5   1  0.1357339E+00  0.9060054E+02  0.7818608E-02  0.1301404E+00
          1   -1    0    0  501    0  0.00000000000E+00  0.00000000000E+00  0.31860033152E+03  0.31860033155E+03  0.46700000000E-02 0. -1.
         -1   -1    0    0    0  501 -0.00000000000E+00 -0.00000000000E+00 -0.64410294227E+01  0.64410311156E+01  0.46700000000E-02 0.  1.
         23    2    1    2    0    0  0.00000000000E+00  0.00000000000E+00  0.31215930210E+03  0.32504136267E+03  0.90600538411E+02 0.  0.
        -11    1    3    3    0    0 -0.39662161960E+02  0.14856175034E+02  0.98417875371E+02  0.10714416093E+03  0.51100000000E-03 0.  1.
         11    1    3    3    0    0  0.39662161960E+02 -0.14856175034E+02  0.21374142673E+03  0.21789720174E+03  0.51100000000E-03 0. -1.
<mgrwt>
<rscale>  0 0.90600538E+02</rscale>
<asrwt>0</asrwt>
<pdfrwt beam="1">  1        1 0.49015439E-01 0.90600538E+02</pdfrwt>
<pdfrwt beam="2">  1       -1 0.99092767E-03 0.90600538E+02</pdfrwt>
<totfact> 0.13179011E+05</totfact>
</mgrwt>
</event>
<event>
 5   1  0.1357339E+00  0.8920078E+02  0.7818608E-02  0.1304799E+00
         -1   -1    0    0    0  501 -0.00000000000E+00  0.00000000000E+00  0.40546102692E+02  0.40546102961E+02  0.46700000000E-02 0.  1.
          1   -1    0    0  501    0  0.00000000000E+00 -0.00000000000E+00 -0.49060077517E+02  0.49060077739E+02  0.46700000000E-02 0. -1.
         23    2    1    2    0    0  0.00000000000E+00  0.00000000000E+00 -0.85139748243E+01  0.89606180700E+02  0.89200783923E+02 0.  0.
        -11    1    3    3    0    0  0.35478480684E+02 -0.32453029455E+01 -0.31210636012E+02  0.47364104376E+02  0.51100000000E-03 0. -1.
         11    1    3    3    0    0 -0.35478480684E+02  0.32453029455E+01  0.22696661188E+02  0.42242076324E+02  0.51100000000E-03 0.  1.
<mgrwt>
<rscale>  0 0.89200784E+02</rscale>
<asrwt>0</asrwt>
<pdfrwt beam="2">  1        1 0.75477043E-02 0.89200784E+02</pdfrwt>
<pdfrwt beam="1">  1       -1 0.62378620E-02 0.89200784E+02</pdfrwt>
<totfact> 0.99391908E+04</totfact>
</mgrwt>
</event>
<event>
 5   1  0.1357339E+00  0.9256863E+02  0.7818608E-02  0.1296748E+00
          1   -1    0    0  501    0  0.00000000000E+00  0.00000000000E+00  0.10885475844E+02  0.10885476845E+02  0.46700000000E-02 0. -1.
         -1   -1    0    0    0  501 -0.00000000000E+00 -0.00000000000E+00 -0.19679780372E+03  0.19679780378E+03  0.46700000000E-02 0.  1.
         23    2    1    2    0    0  0.00000000000E+00  0.00000000000E+00 -0.18591232788E+03  0.20768328062E+03  0.92568630718E+02 0.  0.
        -11    1    3    3    0    0 -0.19424136219E+02  0.28920779287E+02 -0.16132142922E+03  0.16504033467E+03  0.51100000000E-03 0.  1.
         11    1    3    3    0    0  0.19424136219E+02 -0.28920779287E+02 -0.24590898661E+02  0.42642945954E+02  0.51100000000E-03 0. -1.
<mgrwt>
<rscale>  0 0.92568631E+02</rscale>
<asrwt>0</asrwt>
<pdfrwt beam="1">  1        1 0.16746888E-02 0.92568631E+02</pdfrwt>
<pdfrwt beam="2">  1       -1 0.30276583E-01 0.92568631E+02</pdfrwt>
<totfact> 0.67041926E+04</totfact>
</mgrwt>
</event>
<event>
 5   1  0.1357339E+00  0.9754643E+02  0.7818608E-02  0.1285542E+00
         -1   -1    0    0    0  501 -0.00000000000E+00  0.00000000000E+00  0.22519551425E+02  0.22519551909E+02  0.46700000000E-02 0.  1.
          1   -1    0    0  501    0  0.00000000000E+00 -0.00000000000E+00 -0.10563383781E+03  0.10563383792E+03  0.46700000000E-02 0. -1.
         23    2    1    2    0    0  0.00000000000E+00  0.00000000000E+00 -0.83114286388E+02  0.12815338982E+03  0.97546433670E+02 0.  0.
        -11    1    3    3    0    0  0.16682553771E+02 -0.17318631454E+02  0.14190358037E+02  0.27921476630E+02  0.51100000000E-03 0.  1.
         11    1    3    3    0    0 -0.16682553771E+02  0.17318631454E+02 -0.97304644424E+02  0.10023191319E+03  0.51100000000E-03 0. -1.
<mgrwt>
<rscale>  0 0.97546434E+02</rscale>
<asrwt>0</asrwt>
<pdfrwt beam="2">  1        1 0.16251359E-01 0.97546434E+02</pdfrwt>
<pdfrwt beam="1">  1       -1 0.34645465E-02 0.97546434E+02</pdfrwt>
<totfact> 0.87633465E+04</totfact>
</mgrwt>
</event>
<event>
 5   1  0.1357339E+00  0.9201907E+02  0.7818608E-02  0.1298035E+00
         -1   -1    0    0    0  501 -0.00000000000E+00  0.00000000000E+00  0.11676502545E+03  0.11676502554E+03  0.46700000000E-02 0.  1.
          1   -1    0    0  501    0  0.00000000000E+00 -0.00000000000E+00 -0.18129376044E+02  0.18129376645E+02  0.46700000000E-02 0. -1.
         23    2    1    2    0    0  0.00000000000E+00  0.00000000000E+00  0.98635649403E+02  0.13489440219E+03  0.92019065459E+02 0.  0.
        -11    1    3    3    0    0  0.45307619687E+02 -0.44400770875E+01  0.59083933920E+02  0.74588242599E+02  0.51100000000E-03 0.  1.
         11    1    3    3    0    0 -0.45307619687E+02  0.44400770875E+01  0.39551715483E+02  0.60306159587E+02  0.51100000000E-03 0. -1.
<mgrwt>
<rscale>  0 0.92019065E+02</rscale>
<asrwt>0</asrwt>
<pdfrwt beam="2">  1        1 0.27891348E-02 0.92019065E+02</pdfrwt>
<pdfrwt beam="1">  1       -1 0.17963851E-01 0.92019065E+02</pdfrwt>
<totfact> 0.77111407E+04</totfact>
</mgrwt>
</event>
<event>
 5   1  0.1357339E+00  0.9093787E+02  0.7818608E-02  0.1300596E+00
         -1   -1    0    0    0  501 -0.00000000000E+00  0.00000000000E+00  0.54788104649E+02  0.54788104848E+02  0.46700000000E-02 0.  1.
          1   -1    0    0  501    0  0.00000000000E+00 -0.00000000000E+00 -0.37734904396E+02  0.37734904685E+02  0.46700000000E-02 0. -1.
         23    2    1    2    0    0  0.00000000000E+00  0.00000000000E+00  0.17053200252E+02  0.92523009533E+02  0.90937866998E+02 0.  0.
        -11    1    3    3    0    0 -0.44378133847E+02 -0.11712139252E+01  0.18528180616E+02  0.48104926806E+02  0.51100000000E-03 0.  1.
         11    1    3    3    0    0  0.44378133847E+02  0.11712139252E+01 -0.14749803638E+01  0.44418082727E+02  0.51100000000E-03 0. -1.
<mgrwt>
<rscale>  0 0.90937867E+02</rscale>
<asrwt>0</asrwt>
<pdfrwt beam="2">  1        1 0.58053700E-02 0.90937867E+02</pdfrwt>
<pdfrwt beam="1">  1       -1 0.84289391E-02 0.90937867E+02</pdfrwt>
<totfact> 0.90531489E+04</totfact>
</mgrwt>
</event>
<event>
 5   1  0.1357339E+00  0.9214668E+02  0.7818608E-02  0.1297735E+00
          1   -1    0    0  501    0  0.00000000000E+00  0.00000000000E+00  0.35808208987E+03  0.35808208990E+03  0.46700000000E-02 0. -1.
         -1   -1    0    0    0  501 -0.00000000000E+00 -0.00000000000E+00 -0.59281162366E+01  0.59281180760E+01  0.46700000000E-02 0.  1.
         23    2    1    2    0    0  0.00000000000E+00  0.00000000000E+00  0.35215397364E+03  0.36401020798E+03  0.92146678537E+02 0.  0.
        -11    1    3    3    0    0  0.42358533041E+02 -0.10545363227E+02  0.23430960580E+03  0.23834101908E+03  0.51100000000E-03 0. -1.
         11    1    3    3    0    0 -0.42358533041E+02  0.10545363227E+02  0.11784436784E+03  0.12566918890E+03  0.51100000000E-03 0.  1.
<mgrwt>
<rscale>  0 0.92146679E+02</rscale>
<asrwt>0</asrwt>
<pdfrwt beam="1">  1        1 0.55089551E-01 0.92146679E+02</pdfrwt>
<pdfrwt beam="2">  1       -1 0.91201805E-03 0.92146679E+02</pdfrwt>
<totfact> 0.12869212E+05</totfact>
</mgrwt>
</event>
<event>
 5   1  0.1357339E+00  0.8389709E+02  0.7818608E-02  0.1318342E+00
         -1   -1    0    0    0  501 -0.00000000000E+00  0.00000000000E+00  0.15458163742E+03  0.15458163749E+03  0.46700000000E-02 0.  1.
          1   -1    0    0  501    0  0.00000000000E+00 -0.00000000000E+00 -0.11383500667E+02  0.11383501625E+02  0.46700000000E-02 0. -1.
         23    2    1    2    0    0  0.00000000000E+00  0.00000000000E+00  0.14319813675E+03  0.16596513911E+03  0.83897085955E+02 0.  0.
        -11    1    3    3    0    0 -0.34093142760E+02  0.82368886050E+01  0.11711878091E+03  0.12225791410E+03  0.51100000000E-03 0.  1.
         11    1    3    3    0    0  0.34093142760E+02 -0.82368886050E+01  0.26079355835E+02  0.43707225011E+02  0.51100000000E-03 0. -1.
<mgrwt>
<rscale>  0 0.83897086E+02</rscale>
<asrwt>0</asrwt>
<pdfrwt beam="2">  1        1 0.17513079E-02 0.83897086E+02</pdfrwt>
<pdfrwt beam="1">  1       -1 0.23781790E-01 0.83897086E+02</pdfrwt>
<totfact> 0.92110568E+04</totfact>
</mgrwt>
</event>
<event>
 5   1  0.1357339E+00  0.9022247E+02  0.7818608E-02  0.1302314E+00
          1   -1    0    0  501    0  0.00000000000E+00  0.00000000000E+00  0.10259362485E+03  0.10259362496E+03  0.46700000000E-02 0. -1.
         -1   -1    0    0    0  501 -0.00000000000E+00 -0.00000000000E+00 -0.19835769277E+02  0.19835769827E+02  0.46700000000E-02 0.  1.
         23    2    1    2    0    0  0.00000000000E+00  0.00000000000E+00  0.82757855575E+02  0.12242939479E+03  0.90222469753E+02 0.  0.
        -11    1    3    3    0    0  0.17507313237E+02 -0.29990084114E+02  0.23058444745E+01  0.34802702207E+02  0.51100000000E-03 0.  1.
         11    1    3    3    0    0 -0.17507313237E+02  0.29990084114E+02  0.80452011100E+02  0.87626692579E+02  0.51100000000E-03 0. -1.
<mgrwt>
<rscale>  0 0.90222470E+02</rscale>
<asrwt>0</asrwt>
<pdfrwt beam="1">  1        1 0.15783635E-01 0.90222470E+02</pdfrwt>
<pdfrwt beam="2">  1       -1 0.30516569E-02 0.90222470E+02</pdfrwt>
<totfact> 0.10794488E+05</totfact>
</mgrwt>
</event>
<event>
 5   1  0.1357339E+00  0.8917198E+02  0.7818608E-02  0.1304869E+00
          1   -1    0    0  501    0  0.00000000000E+00  0.00000000000E+00  0.68973730419E+02  0.68973730577E+02  0.46700000000E-02 0. -1.
         -1   -1    0    0    0  501 -0.00000000000E+00 -0.00000000000E+00 -0.28821271092E+02  0.28821271471E+02  0.46700000000E-02 0.  1.
         23    2    1    2    0    0  0.00000000000E+00  0.00000000000E+00  0.40152459326E+02  0.97795002048E+02  0.89171982346E+02 0.  0.
        -11    1    3    3    0    0  0.18726250411E+02  0.39989248053E+02  0.13306981510E+02  0.46118197834E+02  0.51100000000E-03 0.  1.
         11    1    3    3    0    0 -0.18726250411E+02 -0.39989248053E+02  0.26845477816E+02  0.51676804214E+02  0.51100000000E-03 0. -1.
<mgrwt>
<rscale>  0 0.89171982E+02</rscale>
<asrwt>0</asrwt>
<pdfrwt beam="1">  1        1 0.10611343E-01 0.89171982E+02</pdfrwt>
<pdfrwt beam="2">  1       -1 0.44340418E-02 0.89171982E+02</pdfrwt>
<totfact> 0.10465567E+05</totfact>
</mgrwt>
</event>
<event>
 5   1  0.1357339E+00  0.9315283E+02  0.7818608E-02  0.1295391E+00
         -1   -1    0    0    0  501 -0.00000000000E+00  0.00000000000E+00  0.93751173537E+02  0.93751173653E+02  0.46700000000E-02 0.  1.
          1   -1    0    0  501    0  0.00000000000E+00 -0.00000000000E+00 -0.23139574845E+02  0.23139575316E+02  0.46700000000E-02 0. -1.
         23    2    1    2    0    0  0.00000000000E+00  0.00000000000E+00  0.70611598692E+02  0.11689074897E+03  0.93152827787E+02 0.  0.
        -11    1    3    3    0    0 -0.23562141006E+02  0.67084763434E+01 -0.14401602068E+02  0.28418027482E+02  0.51100000000E-03 0. -1.
         11    1    3    3    0    0  0.23562141006E+02 -0.67084763434E+01  0.85013200760E+02  0.88472721487E+02  0.51100000000E-03 0.  1.
<mgrwt>
<rscale>  0 0.93152828E+02</rscale>
<asrwt>0</asrwt>
<pdfrwt beam="2">  1        1 0.35599346E-02 0.93152828E+02</pdfrwt>
<pdfrwt beam="1">  1       -1 0.14423258E-01 0.93152828E+02</pdfrwt>
<totfact> 0.77916706E+04</totfact>
</mgrwt>
</event>
<event>
 5   1  0.1357339E+00  0.9262760E+02  0.7818608E-02  0.1296611E+00
         -1   -1    0    0    0  501 -0.00000000000E+00  0.00000000000E+00  0.34730587758E+03  0.34730587761E+03  0.46700000000E-02 0.  1.
          1   -1    0    0  501    0  0.00000000000E+00 -0.00000000000E+00 -0.61760185778E+01  0.61760203434E+01  0.46700000000E-02 0. -1.
         23    2    1    2    0    0  0.00000000000E+00  0.00000000000E+00  0.34112985900E+03  0.35348189795E+03  0.92627595666E+02 0.  0.
        -11    1    3    3    0    0 -0.75067236381E+01 -0.40810178029E+02  0.24906536766E+03  0.25249827504E+03  0.51100000000E-03 0.  1.
         11    1    3    3    0    0  0.75067236381E+01  0.40810178029E+02  0.92064491343E+02  0.10098362292E+03  0.51100000000E-03 0. -1.
<mgrwt>
<rscale>  0 0.92627596E+02</rscale>
<asrwt>0</asrwt>
<pdfrwt beam="2">  1        1 0.95015660E-03 0.92627596E+02</pdfrwt>
<pdfrwt beam="1">  1       -1 0.53431687E-01 0.92627596E+02</pdfrwt>
<totfact> 0.54673994E+04</totfact>
</mgrwt>
</event>
<event>
 5   1  0.1357339E+00  0.8792231E+02  0.7818608E-02  0.1307963E+00
          1   -1    0    0  501    0  0.00000000000E+00  0.00000000000E+00  0.28289131242E+02  0.28289131628E+02  0.46700000000E-02 0. -1.
         -1   -1    0    0    0  501 -0.00000000000E+00 -0.00000000000E+00 -0.68315396734E+02  0.68315396894E+02  0.46700000000E-02 0.  1.
         23    2    1    2    0    0  0.00000000000E+00  0.00000000000E+00 -0.40026265492E+02  0.96604528522E+02  0.87922312309E+02 0.  0.
        -11    1    3    3    0    0 -0.42136589529E+02 -0.12307566332E+02 -0.17409565621E+02  0.47223525297E+02  0.51100000000E-03 0. -1.
         11    1    3    3    0    0  0.42136589529E+02  0.12307566332E+02 -0.22616699871E+02  0.49381003225E+02  0.51100000000E-03 0.  1.
<mgrwt>
<rscale>  0 0.87922312E+02</rscale>
<asrwt>0</asrwt>
<pdfrwt beam="1">  1        1 0.43521741E-02 0.87922312E+02</pdfrwt>
<pdfrwt beam="2">  1       -1 0.10510061E-01 0.87922312E+02</pdfrwt>
<totfact> 0.95297423E+04</totfact>
</mgrwt>
</event>
<event>
 5   1  0.1357339E+00  0.9062258E+02  0.7818608E-02  0.1301351E+00
          1   -1    0    0  501    0  0.00000000000E+00  0.00000000000E+00  0.23017197588E+02  0.23017198062E+02  0.46700000000E-02 0. -1.
         -1   -1    0    0    0  501 -0.00000000000E+00 -0.00000000000E+00 -0.89199093644E+02  0.89199093767E+02  0.46700000000E-02 0.  1.
         23    2    1    2    0    0  0.00000000000E+00  0.00000000000E+00 -0.66181896056E+02  0.11221629183E+03  0.90622584305E+02 0.  0.
        -11    1    3    3    0    0  0.34984088853E+02  0.68599616429E+01 -0.67722295936E+02  0.76532704864E+02  0.51100000000E-03 0.  1.
         11    1    3    3    0    0 -0.34984088853E+02 -0.68599616429E+01  0.15403998798E+01  0.35683586965E+02  0.51100000000E-03 0. -1.
<mgrwt>
<rscale>  0 0.90622584E+02</rscale>
<asrwt>0</asrwt>
<pdfrwt beam="1">  1        1 0.35411074E-02 0.90622584E+02</pdfrwt>
<pdfrwt beam="2">  1       -1 0.13722937E-01 0.90622584E+02</pdfrwt>
<totfact> 0.84383523E+04</totfact>
</mgrwt>
</event>
<event>
 5   1  0.1357339E+00  0.9166064E+02  0.7818608E-02  0.1298879E+00
         -1   -1    0    0    0  501 -0.00000000000E+00  0.00000000000E+00  0.81301693908E+01  0.81301707320E+01  0.46700000000E-02 0.  1.
          1   -1    0    0  501    0  0.00000000000E+00 -0.00000000000E+00 -0.25834861578E+03  0.25834861582E+03  0.46700000000E-02 0. -1.
         23    2    1    2    0    0  0.00000000000E+00  0.00000000000E+00 -0.25021844639E+03  0.26647878655E+03  0.91660639153E+02 0.  0.
        -11    1    3    3    0    0 -0.31118518050E+02 -0.30916428002E+02 -0.16370326875E+03  0.16947845847E+03  0.51100000000E-03 0.  1.
         11    1    3    3    0    0  0.31118518050E+02  0.30916428002E+02 -0.86515177642E+02  0.97000328086E+02  0.51100000000E-03 0. -1.
<mgrwt>
<rscale>  0 0.91660639E+02</rscale>
<asrwt>0</asrwt>
<pdfrwt beam="2">  1        1 0.39745935E-01 0.91660639E+02</pdfrwt>
<pdfrwt beam="1">  1       -1 0.12507956E-02 0.91660639E+02</pdfrwt>
<totfact> 0.12271617E+05</totfact>
</mgrwt>
</event>
<event>
 5   1  0.1357339E+00  0.9170862E+02  0.7818608E-02  0.1298766E+00
          1   -1    0    0  501    0  0.00000000000E+00  0.00000000000E+00  0.58225007668E+02  0.58225007855E+02  0.46700000000E-02 0. -1.
         -1   -1    0    0    0  501 -0.00000000000E+00 -0.00000000000E+00 -0.36111934849E+02  0.36111935150E+02  0.46700000000E-02 0.  1.
         23    2    1    2    0    0  0.00000000000E+00  0.00000000000E+00  0.22113072819E+02  0.94336943006E+02  0.91708619149E+02 0.  0.
        -11    1    3    3    0    0 -0.24514338315E+02 -0.25819583583E+02 -0.18668235442E+02  0.40200829521E+02  0.51100000000E-03 0.  1.
         11    1    3    3    0    0  0.24514338315E+02  0.25819583583E+02  0.40781308262E+02  0.54136113484E+02  0.51100000000E-03 0. -1.
<mgrwt>
<rscale>  0 0.91708619E+02</rscale>
<asrwt>0</asrwt>
<pdfrwt beam="1">  1        1 0.89576935E-02 0.91708619E+02</pdfrwt>
<pdfrwt beam="2">  1       -1 0.55556823E-02 0.91708619E+02</pdfrwt>
<totfact> 0.94395765E+04</totfact>
</mgrwt>
</event>
<event>
 5   1  0.1357339E+00  0.9126546E+02  0.7818608E-02  0.1299816E+00
         -1   -1    0    0    0  501 -0.00000000000E+00  0.00000000000E+00  0.44493884354E+02  0.44493884599E+02  0.46700000000E-02 0.  1.
          1   -1    0    0  501    0  0.00000000000E+00 -0.00000000000E+00 -0.46800725926E+02  0.46800726159E+02  0.46700000000E-02 0. -1.
         23    2    1    2    0    0  0.00000000000E+00  0.00000000000E+00 -0.23068415715E+01  0.91294610758E+02  0.91265461350E+02 0.  0.
        -11    1    3    3    0    0  0.19014376073E+02  0.22184258547E+02 -0.36216838405E+02  0.46533291405E+02  0.51100000000E-03 0. -1.
         11    1    3    3    0    0 -0.19014376073E+02 -0.22184258547E+02  0.33909996833E+02  0.44761319353E+02  0.51100000000E-03 0.  1.
<mgrwt>
<rscale>  0 0.91265461E+02</rscale>
<asrwt>0</asrwt>
<pdfrwt beam="2">  1        1 0.72001117E-02 0.91265461E+02</pdfrwt>
<pdfrwt beam="1">  1       -1 0.68452130E-02 0.91265461E+02</pdfrwt>
<totfact> 0.92584945E+04</totfact>
</mgrwt>
</event>
<event>
 5   1  0.1357339E+00  0.9084415E+02  0.7818608E-02  0.1300820E+00
          1   -1    0    0  501    0  0.00000000000E+00  0.00000000000E+00  0.19329729100E+02  0.19329729664E+02  0.46700000000E-02 0. -1.
         -1   -1    0    0    0  501 -0.00000000000E+00 -0.00000000000E+00 -0.10673532868E+03  0.10673532879E+03  0.46700000000E-02 0.  1.
         23    2    1    2    0    0  0.00000000000E+00  0.00000000000E+00 -0.87405599584E+02  0.12606505845E+03  0.90844152940E+02 0.  0.
        -11    1    3    3    0    0 -0.34537634825E+02  0.93116470090E+01 -0.48566709774E+01  0.36099061519E+02  0.51100000000E-03 0. -1.
         11    1    3    3    0    0  0.34537634825E+02 -0.93116470090E+01 -0.82548928607E+02  0.89965996931E+02  0.51100000000E-03 0.  1.
<mgrwt>
<rscale>  0 0.90844153E+02</rscale>
<asrwt>0</asrwt>
<pdfrwt beam="1">  1        1 0.29738046E-02 0.90844153E+02</pdfrwt>
<pdfrwt beam="2">  1       -1 0.16420820E-01 0.90844153E+02</pdfrwt>
<totfact> 0.81135776E+04</totfact>
</mgrwt>
</event>
<event>
 5   1  0.1357339E+00  0.9489118E+02  0.7818608E-02  0.1291421E+00
         -1   -1    0    0    0  501 -0.00000000000E+00  0.00000000000E+00  0.17461936351E+03  0.17461936357E+03  0.46700000000E-02 0.  1.
          1   -1    0    0  501    0  0.00000000000E+00 -0.00000000000E+00 -0.12891375986E+02  0.12891376832E+02  0.46700000000E-02 0. -1.
         23    2    1    2    0    0  0.00000000000E+00  0.00000000000E+00  0.16172798752E+03  0.18751074040E+03  0.94891178821E+02 0.  0.
        -11    1    3    3    0    0 -0.15529574579E+02 -0.42695545529E+02  0.53841287324E+02  0.70448289657E+02  0.51100000000E-03 0. -1.
         11    1    3    3    0    0  0.15529574579E+02  0.42695545529E+02  0.10788670020E+03  0.11706245074E+03  0.51100000000E-03 0.  1.
<mgrwt>
<rscale>  0 0.94891179E+02</rscale>
<asrwt>0</asrwt>
<pdfrwt beam="2">  1        1 0.19832888E-02 0.94891179E+02</pdfrwt>
<pdfrwt beam="1">  1       -1 0.26864516E-01 0.94891179E+02</pdfrwt>
<totfact> 0.64921736E+04</totfact>
</mgrwt>
</event>
<event>
 5   1  0.1357339E+00  0.8953094E+02  0.7818608E-02  0.1303992E+00
         -1   -1    0    0    0  501 -0.00000000000E+00  0.00000000000E+00  0.24340226863E+03  0.24340226867E+03  0.46700000000E-02 0.  1.
          1   -1    0    0  501    0  0.00000000000E+00 -0.00000000000E+00 -0.82330660280E+01  0.82330673524E+01  0.46700000000E-02 0. -1.
         23    2    1    2    0    0  0.00000000000E+00  0.00000000000E+00  0.23516920260E+03  0.25163533603E+03  0.89530935910E+02 0.  0.
        -11    1    3    3    0    0  0.22859923932E+02 -0.34476614113E+02  0.16567242737E+03  0.17075879548E+03  0.51100000000E-03 0.  1.
         11    1    3    3    0    0 -0.22859923932E+02  0.34476614113E+02  0.69496775229E+02  0.80876540544E+02  0.51100000000E-03 0. -1.
<mgrwt>
<rscale>  0 0.89530936E+02</rscale>
<asrwt>0</asrwt>
<pdfrwt beam="2">  1        1 0.12666259E-02 0.89530936E+02</pdfrwt>
<pdfrwt beam="1">  1       -1 0.37446496E-01 0.89530936E+02</pdfrwt>
<totfact> 0.68527239E+04</totfact>
</mgrwt>
</event>
<event>
 5   1  0.1357339E+00  0.8870247E+02  0.7818608E-02  0.1306025E+00
         -1   -1    0    0    0  501 -0.00000000000E+00  0.00000000000E+00  0.57596713767E+01  0.57596732699E+01  0.46700000000E-02 0.  1.
          1   -1    0    0  501    0  0.00000000000E+00 -0.00000000000E+00 -0.34151805469E+03  0.34151805472E+03  0.46700000000E-02 0. -1.
         23    2    1    2    0    0  0.00000000000E+00  0.00000000000E+00 -0.33575838331E+03  0.34727772799E+03  0.88702471183E+02 0.  0.
        -11    1    3    3    0    0  0.26403619834E+02  0.33201909688E+02 -0.11720731806E+03  0.12464779723E+03  0.51100000000E-03 0.  1.
         11    1    3    3    0    0 -0.26403619834E+02 -0.33201909688E+02 -0.21855106525E+03  0.22262993076E+03  0.51100000000E-03 0. -1.
<mgrwt>
<rscale>  0 0.88702471E+02</rscale>
<asrwt>0</asrwt>
<pdfrwt beam="2">  1        1 0.52541224E-01 0.88702471E+02</pdfrwt>
<pdfrwt beam="1">  1       -1 0.88610370E-03 0.88702471E+02</pdfrwt>
<totfact> 0.14119860E+05</totfact>
</mgrwt>
</event>
<event>
 5   1  0.1357339E+00  0.9155579E+02  0.7818608E-02  0.1299127E+00
          1   -1    0    0  501    0  0.00000000000E+00  0.00000000000E+00  0.99134908855E+01  0.99134919855E+01  0.46700000000E-02 0. -1.
         -1   -1    0    0    0  501 -0.00000000000E+00 -0.00000000000E+00 -0.21139028329E+03  0.21139028334E+03  0.46700000000E-02 0.  1.
         23    2    1    2    0    0  0.00000000000E+00  0.00000000000E+00 -0.20147679240E+03  0.22130377532E+03  0.91555792260E+02 0.  0.
        -11    1    3    3    0    0  0.25843737266E+02 -0.30123260160E+02 -0.45602745469E+02  0.60455933977E+02  0.51100000000E-03 0.  1.
         11    1    3    3    0    0 -0.25843737266E+02  0.30123260160E+02 -0.15587404693E+03  0.16084784135E+03  0.51100000000E-03 0. -1.
<mgrwt>
<rscale>  0 0.91555792E+02</rscale>
<asrwt>0</asrwt>
<pdfrwt beam="1">  1        1 0.15251527E-02 0.91555792E+02</pdfrwt>
<pdfrwt beam="2">  1       -1 0.32521579E-01 0.91555792E+02</pdfrwt>
<totfact> 0.67575596E+04</totfact>
</mgrwt>
</event>
<event>
 5   1  0.1357339E+00  0.9065357E+02  0.7818608E-02  0.1301277E+00
          1   -1    0    0  501    0  0.00000000000E+00  0.00000000000E+00  0.14557996683E+03  0.14557996691E+03  0.46700000000E-02 0. -1.
         -1   -1    0    0    0  501 -0.00000000000E+00 -0.00000000000E+00 -0.14112637919E+02  0.14112638692E+02  0.46700000000E-02 0.  1.
         23    2    1    2    0    0  0.00000000000E+00  0.00000000000E+00  0.13146732891E+03  0.15969260560E+03  0.90653569767E+02 0.  0.
        -11    1    3    3    0    0  0.38715006323E+02  0.25027020350E+01  0.24443644585E+02  0.45854192752E+02  0.51100000000E-03 0.  1.
         11    1    3    3    0    0 -0.38715006323E+02 -0.25027020350E+01  0.10702368433E+03  0.11383841285E+03  0.51100000000E-03 0. -1.
<mgrwt>
<rscale>  0 0.90653570E+02</rscale>
<asrwt>0</asrwt>
<pdfrwt beam="1">  1        1 0.22396919E-01 0.90653570E+02</pdfrwt>
<pdfrwt beam="2">  1       -1 0.21711751E-02 0.90653570E+02</pdfrwt>
<totfact> 0.11326479E+05</totfact>
</mgrwt>
</event>
<event>
 5   1  0.1357339E+00  0.9077688E+02  0.7818608E-02  0.1300981E+00
          1   -1    0    0  501    0  0.00000000000E+00  0.00000000000E+00  0.12197590391E+02  0.12197591285E+02  0.46700000000E-02 0. -1.
         -1   -1    0    0    0  501 -0.00000000000E+00 -0.00000000000E+00 -0.16889486913E+03  0.16889486919E+03  0.46700000000E-02 0.  1.
         23    2    1    2    0    0  0.00000000000E+00  0.00000000000E+00 -0.15669727874E+03  0.18109246048E+03  0.90776880746E+02 0.  0.
        -11    1    3    3    0    0  0.19031216626E+02 -0.16970461367E+02 -0.34414693680E+01  0.25729894616E+02  0.51100000000E-03 0. -1.
         11    1    3    3    0    0 -0.19031216626E+02  0.16970461367E+02 -0.15325580937E+03  0.15536256586E+03  0.51100000000E-03 0.  1.
<mgrwt>
<rscale>  0 0.90776881E+02</rscale>
<asrwt>0</asrwt>
<pdfrwt beam="1">  1        1 0.18765526E-02 0.90776881E+02</pdfrwt>
<pdfrwt beam="2">  1       -1 0.25983824E-01 0.90776881E+02</pdfrwt>
<totfact> 0.73493476E+04</totfact>
</mgrwt>
</event>
<event>
 5   1  0.1357339E+00  0.9195266E+02  0.7818608E-02  0.1298191E+00
          1   -1    0    0  501    0  0.00000000000E+00  0.00000000000E+00  0.17185051872E+03  0.17185051878E+03  0.46700000000E-02 0. -1.
         -1   -1    0    0    0  501 -0.00000000000E+00 -0.00000000000E+00 -0.12300356457E+02  0.12300357344E+02  0.46700000000E-02 0.  1.
         23    2    1    2    0    0  0.00000000000E+00  0.00000000000E+00  0.15955016226E+03  0.18415087612E+03  0.91952655754E+02 0.  0.
        -11    1    3    3    0    0  0.30722095696E+02 -0.23946969724E+02  0.12868775025E+03  0.13445386416E+03  0.51100000000E-03 0. -1.
         11    1    3    3    0    0 -0.30722095696E+02  0.23946969724E+02  0.30862412011E+02  0.49697011966E+02  0.51100000000E-03 0.  1.
<mgrwt>
<rscale>  0 0.91952656E+02</rscale>
<asrwt>0</asrwt>
<pdfrwt beam="1">  1        1 0.26438542E-01 0.91952656E+02</pdfrwt>
<pdfrwt beam="2">  1       -1 0.18923626E-02 0.91952656E+02</pdfrwt>
<totfact> 0.11241529E+05</totfact>
</mgrwt>
</event>
<event>
 5   1  0.1357339E+00  0.9127395E+02  0.7818608E-02  0.1299796E+00
          1   -1    0    0  501    0  0.00000000000E+00  0.00000000000E+00  0.10954720009E+02  0.10954721004E+02  0.46700000000E-02 0. -1.
         -1   -1    0    0    0  501 -0.00000000000E+00 -0.00000000000E+00 -0.19012199388E+03  0.19012199394E+03  0.46700000000E-02 0.  1.
         23    2    1    2    0    0  0.00000000000E+00  0.00000000000E+00 -0.17916727387E+03  0.20107671494E+03  0.91273946256E+02 0.  0.
        -11    1    3    3    0    0  0.10425574442E+02 -0.44164148400E+02 -0.78888585995E+02  0.91008645781E+02  0.51100000000E-03 0. -1.
         11    1    3    3    0    0 -0.10425574442E+02  0.44164148400E+02 -0.10027868788E+03  0.11006806916E+03  0.51100000000E-03 0.  1.
<mgrwt>
<rscale>  0 0.91273946E+02</rscale>
<asrwt>0</asrwt>
<pdfrwt beam="1">  1        1 0.16853418E-02 0.91273946E+02</pdfrwt>
<pdfrwt beam="2">  1       -1 0.29249535E-01 0.91273946E+02</pdfrwt>
<totfact> 0.70224295E+04</totfact>
</mgrwt>
</event>
<event>
 5   1  0.1357339E+00  0.8048481E+02  0.7818608E-02  0.1327681E+00
         -1   -1    0    0    0  501 -0.00000000000E+00  0.00000000000E+00  0.80821689479E+02  0.80821689614E+02  0.46700000000E-02 0.  1.
          1   -1    0    0  501    0  0.00000000000E+00 -0.00000000000E+00 -0.20037332386E+02  0.20037332930E+02  0.46700000000E-02 0. -1.
         23    2    1    2    0    0  0.00000000000E+00  0.00000000000E+00  0.60784357093E+02  0.10085902254E+03  0.80484808265E+02 0.  0.
        -11    1    3    3    0    0  0.12100413053E+02 -0.26592168483E+02  0.65072521211E+02  0.71330193030E+02  0.51100000000E-03 0.  1.
         11    1    3    3    0    0 -0.12100413053E+02  0.26592168483E+02 -0.42881641188E+01  0.29528829514E+02  0.51100000000E-03 0. -1.
<mgrwt>
<rscale>  0 0.80484808E+02</rscale>
<asrwt>0</asrwt>
<pdfrwt beam="2">  1        1 0.30826666E-02 0.80484808E+02</pdfrwt>
<pdfrwt beam="1">  1       -1 0.12434106E-01 0.80484808E+02</pdfrwt>
<totfact> 0.11621783E+05</totfact>
</mgrwt>
</event>
<event>
 5   1  0.1357339E+00  0.9241495E+02  0.7818608E-02  0.1297107E+00
         -1   -1    0    0    0  501 -0.00000000000E+00  0.00000000000E+00  0.90898684503E+01  0.90898696499E+01  0.46700000000E-02 0.  1.
          1   -1    0    0  501    0  0.00000000000E+00 -0.00000000000E+00 -0.23489122913E+03  0.23489122918E+03  0.46700000000E-02 0. -1.
         23    2    1    2    0    0  0.00000000000E+00  0.00000000000E+00 -0.22580136068E+03  0.24398109883E+03  0.92414945219E+02 0.  0.
        -11    1    3    3    0    0 -0.98834671201E+01 -0.45122694683E+02 -0.10978806407E+03  0.11910986319E+03  0.51100000000E-03 0.  1.
         11    1    3    3    0    0  0.98834671201E+01  0.45122694683E+02 -0.11601329662E+03  0.12487123564E+03  0.51100000000E-03 0. -1.
<mgrwt>
<rscale>  0 0.92414945E+02</rscale>
<asrwt>0</asrwt>
<pdfrwt beam="2">  1        1 0.36137108E-01 0.92414945E+02</pdfrwt>
<pdfrwt beam="1">  1       -1 0.13984416E-02 0.92414945E+02</pdfrwt>
<totfact> 0.11784139E+05</totfact>
</mgrwt>
</event>
<event>
 5   1  0.1357339E+00  0.9004909E+02  0.7818608E-02  0.1302733E+00
         -1   -1    0    0    0  501 -0.00000000000E+00  0.00000000000E+00  0.72694706534E+01  0.72694721534E+01  0.46700000000E-02 0.  1.
          1   -1    0    0  501    0  0.00000000000E+00 -0.00000000000E+00 -0.27886616200E+03  0.27886616204E+03  0.46700000000E-02 0. -1.
         23    2    1    2    0    0  0.00000000000E+00  0.00000000000E+00 -0.27159669135E+03  0.28613563419E+03  0.90049088859E+02 0.  0.
        -11    1    3    3    0    0  0.26622886502E+02 -0.36189042689E+02 -0.14521629176E+03  0.15200722446E+03  0.51100000000E-03 0. -1.
         11    1    3    3    0    0 -0.26622886502E+02  0.36189042689E+02 -0.12638039959E+03  0.13412840973E+03  0.51100000000E-03 0.  1.
<mgrwt>
<rscale>  0 0.90049089E+02</rscale>
<asrwt>0</asrwt>
<pdfrwt beam="2">  1        1 0.42902478E-01 0.90049089E+02</pdfrwt>
<pdfrwt beam="1">  1       -1 0.11183804E-02 0.90049089E+02</pdfrwt>
<totfact> 0.13059285E+05</totfact>
</mgrwt>
</event>
<event>
 5   1  0.1357339E+00  0.9699193E+02  0.7818608E-02  0.1286752E+00
         -1   -1    0    0    0  501 -0.00000000000E+00  0.00000000000E+00  0.24981966838E+02  0.24981967275E+02  0.46700000000E-02 0.  1.
          1   -1    0    0  501    0  0.00000000000E+00 -0.00000000000E+00 -0.94142248744E+02  0.94142248860E+02  0.46700000000E-02 0. -1.
         23    2    1    2    0    0  0.00000000000E+00  0.00000000000E+00 -0.69160281906E+02  0.11912421614E+03  0.96991928924E+02 0.  0.
        -11    1    3    3    0    0 -0.40644897172E+02 -0.24600474152E+02 -0.46530063321E+02  0.66499908177E+02  0.51100000000E-03 0.  1.
         11    1    3    3    0    0  0.40644897172E+02  0.24600474152E+02 -0.22630218585E+02  0.52624307958E+02  0.51100000000E-03 0. -1.
<mgrwt>
<rscale>  0 0.96991929E+02</rscale>
<asrwt>0</asrwt>
<pdfrwt beam="2">  1        1 0.14483423E-01 0.96991929E+02</pdfrwt>
<pdfrwt beam="1">  1       -1 0.38433796E-02 0.96991929E+02</pdfrwt>
<totfact> 0.87277944E+04</totfact>
</mgrwt>
</event>
<event>
 5   1  0.1357339E+00  0.9158296E+02  0.7818608E-02  0.1299063E+00
          1   -1    0    0  501    0  0.00000000000E+00  0.00000000000E+00  0.32114635745E+02  0.32114636084E+02  0.46700000000E-02 0. -1.
         -1   -1    0    0    0  501 -0.00000000000E+00 -0.00000000000E+00 -0.65292957751E+02  0.65292957918E+02  0.46700000000E-02 0.  1.
         23    2    1    2    0    0  0.00000000000E+00  0.00000000000E+00 -0.33178322006E+02  0.97407594002E+02  0.91582958666E+02 0.  0.
        -11    1    3    3    0    0  0.67079211593E+01  0.45051866881E+02 -0.11578640303E+02  0.46997147012E+02  0.51100000000E-03 0. -1.
         11    1    3    3    0    0 -0.67079211593E+01 -0.45051866881E+02 -0.21599681703E+02  0.50410446989E+02  0.51100000000E-03 0.  1.
<mgrwt>
<rscale>  0 0.91582959E+02</rscale>
<asrwt>0</asrwt>
<pdfrwt beam="1">  1        1 0.49407132E-02 0.91582959E+02</pdfrwt>
<pdfrwt beam="2">  1       -1 0.10045070E-01 0.91582959E+02</pdfrwt>
<totfact> 0.86525193E+04</totfact>
</mgrwt>
</event>
<event>
 5   1  0.1357339E+00  0.8994018E+02  0.7818608E-02  0.1302997E+00
          1   -1    0    0  501    0  0.00000000000E+00  0.00000000000E+00  0.24134853255E+03  0.24134853259E+03  0.46700000000E-02 0. -1.
         -1   -1    0    0    0  501 -0.00000000000E+00 -0.00000000000E+00 -0.83792043776E+01  0.83792056790E+01  0.46700000000E-02 0.  1.
         23    2    1    2    0    0  0.00000000000E+00  0.00000000000E+00  0.23296932817E+03  0.24972773827E+03  0.89940176753E+02 0.  0.
        -11    1    3    3    0    0 -0.44576918857E+02 -0.22580711212E+01  0.10124919128E+03  0.11065079898E+03  0.51100000000E-03 0.  1.
         11    1    3    3    0    0  0.44576918857E+02  0.22580711212E+01  0.13172013689E+03  0.13907693930E+03  0.51100000000E-03 0. -1.
<mgrwt>
<rscale>  0 0.89940177E+02</rscale>
<asrwt>0</asrwt>
<pdfrwt beam="1">  1        1 0.37130541E-01 0.89940177E+02</pdfrwt>
<pdfrwt beam="2">  1       -1 0.12891086E-02 0.89940177E+02</pdfrwt>
<totfact> 0.12738427E+05</totfact>
</mgrwt>
</event>
<event>
 5   1  0.1357339E+00  0.9182962E+02  0.7818608E-02  0.1298481E+00
          1   -1    0    0  501    0  0.00000000000E+00  0.00000000000E+00  0.53270099824E+02  0.53270100028E+02  0.46700000000E-02 0. -1.
         -1   -1    0    0    0  501 -0.00000000000E+00 -0.00000000000E+00 -0.39575104910E+02  0.39575105186E+02  0.46700000000E-02 0.  1.
         23    2    1    2    0    0  0.00000000000E+00  0.00000000000E+00  0.13694994914E+02  0.92845205214E+02  0.91829620742E+02 0.  0.
        -11    1    3    3    0    0  0.18411127400E+02  0.32874719240E+02 -0.19681073064E+02  0.42509544980E+02  0.51100000000E-03 0.  1.
         11    1    3    3    0    0 -0.18411127400E+02 -0.32874719240E+02  0.33376067978E+02  0.50335660234E+02  0.51100000000E-03 0. -1.
<mgrwt>
<rscale>  0 0.91829621E+02</rscale>
<asrwt>0</asrwt>
<pdfrwt beam="1">  1        1 0.81953999E-02 0.91829621E+02</pdfrwt>
<pdfrwt beam="2">  1       -1 0.60884778E-02 0.91829621E+02</pdfrwt>
<totfact> 0.92793228E+04</totfact>
</mgrwt>
</event>
<event>
 5   1  0.1357339E+00  0.1222504E+03  0.7818608E-02  0.1239430E+00
          1   -1    0    0  501    0  0.00000000000E+00  0.00000000000E+00  0.98849779200E+01  0.98849790231E+01  0.46700000000E-02 0. -1.
         -1   -1    0    0    0  501 -0.00000000000E+00 -0.00000000000E+00 -0.37797662867E+03  0.37797662869E+03  0.46700000000E-02 0.  1.
         23    2    1    2    0    0  0.00000000000E+00  0.00000000000E+00 -0.36809165075E+03  0.38786160772E+03  0.12225041265E+03 0.  0.
        -11    1    3    3    0    0  0.53820687855E+02 -0.98874715421E+01 -0.27046062241E+03  0.27594089369E+03  0.51100000000E-03 0.  1.
         11    1    3    3    0    0 -0.53820687855E+02  0.98874715421E+01 -0.97631028333E+02  0.11192071403E+03  0.51100000000E-03 0. -1.
<mgrwt>
<rscale>  0 0.12225041E+03</rscale>
<asrwt>0</asrwt>
<pdfrwt beam="1">  1        1 0.15207662E-02 0.12225041E+03</pdfrwt>
<pdfrwt beam="2">  1       -1 0.58150239E-01 0.12225041E+03</pdfrwt>
<totfact> 0.25221910E+04</totfact>
</mgrwt>
</event>
<event>
 5   1  0.1357339E+00  0.8889210E+02  0.7818608E-02  0.1305557E+00
          1   -1    0    0  501    0  0.00000000000E+00  0.00000000000E+00  0.39667733650E+02  0.39667733925E+02  0.46700000000E-02 0. -1.
         -1   -1    0    0    0  501 -0.00000000000E+00 -0.00000000000E+00 -0.49799951676E+02  0.49799951895E+02  0.46700000000E-02 0.  1.
         23    2    1    2    0    0  0.00000000000E+00  0.00000000000E+00 -0.10132218026E+02  0.89467685820E+02  0.88892097308E+02 0.  0.
        -11    1    3    3    0    0  0.13678927168E+02 -0.39995530090E+01 -0.47437896670E+02  0.49532449097E+02  0.51100000000E-03 0.  1.
         11    1    3    3    0    0 -0.13678927168E+02  0.39995530090E+01  0.37305678645E+02  0.39935236723E+02  0.51100000000E-03 0. -1.
<mgrwt>
<rscale>  0 0.88892097E+02</rscale>
<asrwt>0</asrwt>
<pdfrwt beam="1">  1        1 0.61027283E-02 0.88892097E+02</pdfrwt>
<pdfrwt beam="2">  1       -1 0.76615310E-02 0.88892097E+02</pdfrwt>
<totfact> 0.97260054E+04</totfact>
</mgrwt>
</event>
<event>
 5   1  0.1357339E+00  0.8900902E+02  0.7818608E-02  0.1305269E+00
         -1   -1    0    0    0  501 -0.00000000000E+00  0.00000000000E+00  0.10666986410E+03  0.10666986420E+03  0.46700000000E-02 0.  1.
          1   -1    0    0  501    0  0.00000000000E+00 -0.00000000000E+00 -0.18568051581E+02  0.18568052168E+02  0.46700000000E-02 0. -1.
         23    2    1    2    0    0  0.00000000000E+00  0.00000000000E+00  0.88101812516E+02  0.12523791637E+03  0.89009023854E+02 0.  0.
        -11    1    3    3    0    0 -0.30042789198E+02 -0.24712489249E+02  0.74469186840E+02  0.84017474948E+02  0.51100000000E-03 0.  1.
         11    1    3    3    0    0  0.30042789198E+02  0.24712489249E+02  0.13632625676E+02  0.41220441419E+02  0.51100000000E-03 0. -1.
<mgrwt>
<rscale>  0 0.89009024E+02</rscale>
<asrwt>0</asrwt>
<pdfrwt beam="2">  1        1 0.28566234E-02 0.89009024E+02</pdfrwt>
<pdfrwt beam="1">  1       -1 0.16410748E-01 0.89009024E+02</pdfrwt>
<totfact> 0.85523569E+04</totfact>
</mgrwt>
</event>
<event>
 5   1  0.1357339E+00  0.1076289E+03  0.7818608E-02  0.1265025E+00
          1   -1    0    0  501    0  0.00000000000E+00  0.00000000000E+00  0.27934141207E+02  0.27934141597E+02  0.46700000000E-02 0.  1.
         -1   -1    0    0    0  501 -0.00000000000E+00 -0.00000000000E+00 -0.10367222362E+03  0.10367222372E+03  0.46700000000E-02 0. -1.
         23    2    1    2    0    0  0.00000000000E+00  0.00000000000E+00 -0.75738082410E+02  0.13160636532E+03  0.10762889141E+03 0.  0.
        -11    1    3    3    0    0  0.13257479786E+01 -0.52850470702E+02 -0.50161755397E+02  0.72877510701E+02  0.51100000000E-03 0. -1.
         11    1    3    3    0    0 -0.13257479786E+01  0.52850470702E+02 -0.25576327013E+02  0.58728854619E+02  0.51100000000E-03 0.  1.
<mgrwt>
<rscale>  0 0.10762889E+03</rscale>
<asrwt>0</asrwt>
<pdfrwt beam="1">  1        1 0.42975603E-02 0.10762889E+03</pdfrwt>
<pdfrwt beam="2">  1       -1 0.15949573E-01 0.10762889E+03</pdfrwt>
<totfact> 0.52644676E+04</totfact>
</mgrwt>
</event>
<event>
 5   1  0.1357339E+00  0.8906498E+02  0.7818608E-02  0.1305132E+00
          1   -1    0    0  501    0  0.00000000000E+00  0.00000000000E+00  0.93987999128E+02  0.93987999245E+02  0.46700000000E-02 0. -1.
         -1   -1    0    0    0  501 -0.00000000000E+00 -0.00000000000E+00 -0.21099954574E+02  0.21099955091E+02  0.46700000000E-02 0.  1.
         23    2    1    2    0    0  0.00000000000E+00  0.00000000000E+00  0.72888044554E+02  0.11508795434E+03  0.89064977372E+02 0.  0.
        -11    1    3    3    0    0 -0.75443652766E+01 -0.30070600495E+02 -0.48650056581E+01  0.31381949300E+02  0.51100000000E-03 0.  1.
         11    1    3    3    0    0  0.75443652766E+01  0.30070600495E+02  0.77753050212E+02  0.83706005036E+02  0.51100000000E-03 0. -1.
<mgrwt>
<rscale>  0 0.89064977E+02</rscale>
<asrwt>0</asrwt>
<pdfrwt beam="1">  1        1 0.14459692E-01 0.89064977E+02</pdfrwt>
<pdfrwt beam="2">  1       -1 0.32461470E-02 0.89064977E+02</pdfrwt>
<totfact> 0.11020512E+05</totfact>
</mgrwt>
</event>
<event>
 5   1  0.1357339E+00  0.9255767E+02  0.7818608E-02  0.1296774E+00
         -1   -1    0    0    0  501 -0.00000000000E+00  0.00000000000E+00  0.44955775969E+03  0.44955775972E+03  0.46700000000E-02 0.  1.
          1   -1    0    0  501    0  0.00000000000E+00 -0.00000000000E+00 -0.47640822514E+01  0.47640845403E+01  0.46700000000E-02 0. -1.
         23    2    1    2    0    0  0.00000000000E+00  0.00000000000E+00  0.44479367744E+03  0.45432184426E+03  0.92557672171E+02 0.  0.
        -11    1    3    3    0    0  0.31251020421E+02  0.34132492306E+02  0.22376208671E+03  0.22849753775E+03  0.51100000000E-03 0.  1.
         11    1    3    3    0    0 -0.31251020421E+02 -0.34132492306E+02  0.22103159073E+03  0.22582430650E+03  0.51100000000E-03 0. -1.
<mgrwt>
<rscale>  0 0.92557672E+02</rscale>
<asrwt>0</asrwt>
<pdfrwt beam="2">  1        1 0.73293604E-03 0.92557672E+02</pdfrwt>
<pdfrwt beam="1">  1       -1 0.69162720E-01 0.92557672E+02</pdfrwt>
<totfact> 0.48141261E+04</totfact>
</mgrwt>
</event>
<event>
 5   1  0.1357339E+00  0.8883179E+02  0.7818608E-02  0.1305706E+00
         -1   -1    0    0    0  501 -0.00000000000E+00  0.00000000000E+00  0.25277040764E+03  0.25277040768E+03  0.46700000000E-02 0.  1.
          1   -1    0    0  501    0  0.00000000000E+00 -0.00000000000E+00 -0.78045991512E+01  0.78046005484E+01  0.46700000000E-02 0. -1.
         23    2    1    2    0    0  0.00000000000E+00  0.00000000000E+00  0.24496580848E+03  0.26057500823E+03  0.88831793780E+02 0.  0.
        -11    1    3    3    0    0  0.13309685871E+01  0.37231463345E+02  0.19342024441E+03  0.19697549159E+03  0.51100000000E-03 0.  1.
         11    1    3    3    0    0 -0.13309685871E+01 -0.37231463345E+02  0.51545564077E+02  0.63599516638E+02  0.51100000000E-03 0. -1.
<mgrwt>
<rscale>  0 0.88831794E+02</rscale>
<asrwt>0</asrwt>
<pdfrwt beam="2">  1        1 0.12007076E-02 0.88831794E+02</pdfrwt>
<pdfrwt beam="1">  1       -1 0.38887759E-01 0.88831794E+02</pdfrwt>
<totfact> 0.69058852E+04</totfact>
</mgrwt>
</event>
<event>
 5   1  0.1357339E+00  0.9086037E+02  0.7818608E-02  0.1300781E+00
         -1   -1    0    0    0  501 -0.00000000000E+00  0.00000000000E+00  0.34725093047E+02  0.34725093361E+02  0.46700000000E-02 0.  1.
          1   -1    0    0  501    0  0.00000000000E+00 -0.00000000000E+00 -0.59435452034E+02  0.59435452217E+02  0.46700000000E-02 0. -1.
         23    2    1    2    0    0  0.00000000000E+00  0.00000000000E+00 -0.24710358987E+02  0.94160545578E+02  0.90860368161E+02 0.  0.
        -11    1    3    3    0    0  0.40687338538E+02  0.78672797220E+01  0.69367729888E+01  0.42017525240E+02  0.51100000000E-03 0.  1.
         11    1    3    3    0    0 -0.40687338538E+02 -0.78672797220E+01 -0.31647131976E+02  0.52143020339E+02  0.51100000000E-03 0. -1.
<mgrwt>
<rscale>  0 0.90860368E+02</rscale>
<asrwt>0</asrwt>
<pdfrwt beam="2">  1        1 0.91439157E-02 0.90860368E+02</pdfrwt>
<pdfrwt beam="1">  1       -1 0.53423221E-02 0.90860368E+02</pdfrwt>
<totfact> 0.97166173E+04</totfact>
</mgrwt>
</event>
<event>
 5   1  0.1357339E+00  0.9178745E+02  0.7818608E-02  0.1298580E+00
          1   -1    0    0  501    0  0.00000000000E+00  0.00000000000E+00  0.16085786890E+02  0.16085787568E+02  0.46700000000E-02 0. -1.
         -1   -1    0    0    0  501 -0.00000000000E+00 -0.00000000000E+00 -0.13093758178E+03  0.13093758187E+03  0.46700000000E-02 0.  1.
         23    2    1    2    0    0  0.00000000000E+00  0.00000000000E+00 -0.11485179489E+03  0.14702336943E+03  0.91787452136E+02 0.  0.
        -11    1    3    3    0    0  0.91349398866E+01  0.19868460083E+02  0.72041428191E+01  0.23023955065E+02  0.51100000000E-03 0. -1.
         11    1    3    3    0    0 -0.91349398866E+01 -0.19868460083E+02 -0.12205593771E+03  0.12399941437E+03  0.51100000000E-03 0.  1.
<mgrwt>
<rscale>  0 0.91787452E+02</rscale>
<asrwt>0</asrwt>
<pdfrwt beam="1">  1        1 0.24747366E-02 0.91787452E+02</pdfrwt>
<pdfrwt beam="2">  1       -1 0.20144243E-01 0.91787452E+02</pdfrwt>
<totfact> 0.75782912E+04</totfact>
</mgrwt>
</event>
<event>
 5   1  0.1357339E+00  0.9171662E+02  0.7818608E-02  0.1298747E+00
         -1   -1    0    0    0  501 -0.00000000000E+00  0.00000000000E+00  0.11169306103E+03  0.11169306113E+03  0.46700000000E-02 0.  1.
          1   -1    0    0  501    0  0.00000000000E+00 -0.00000000000E+00 -0.18828245313E+02  0.18828245892E+02  0.46700000000E-02 0. -1.
         23    2    1    2    0    0  0.00000000000E+00  0.00000000000E+00  0.92864815719E+02  0.13052130702E+03  0.91716615660E+02 0.  0.
        -11    1    3    3    0    0  0.18276713543E+02 -0.21737357218E+02  0.97672335233E+02  0.10171743227E+03  0.51100000000E-03 0.  1.
         11    1    3    3    0    0 -0.18276713543E+02  0.21737357218E+02 -0.48075195140E+01  0.28803874755E+02  0.51100000000E-03 0. -1.
<mgrwt>
<rscale>  0 0.91716616E+02</rscale>
<asrwt>0</asrwt>
<pdfrwt beam="2">  1        1 0.28966531E-02 0.91716616E+02</pdfrwt>
<pdfrwt beam="1">  1       -1 0.17183548E-01 0.91716616E+02</pdfrwt>
<totfact> 0.78462587E+04</totfact>
</mgrwt>
</event>
<event>
 5   1  0.1357339E+00  0.9345843E+02  0.7818608E-02  0.1294686E+00
          1   -1    0    0  501    0  0.00000000000E+00  0.00000000000E+00  0.34576120188E+02  0.34576120503E+02  0.46700000000E-02 0. -1.
         -1   -1    0    0    0  501 -0.00000000000E+00 -0.00000000000E+00 -0.63153979715E+02  0.63153979887E+02  0.46700000000E-02 0.  1.
         23    2    1    2    0    0  0.00000000000E+00  0.00000000000E+00 -0.28577859527E+02  0.97730100391E+02  0.93458431761E+02 0.  0.
        -11    1    3    3    0    0 -0.23221164361E+02  0.38168430056E+02 -0.28610456986E+02  0.53052896023E+02  0.51100000000E-03 0.  1.
         11    1    3    3    0    0  0.23221164361E+02 -0.38168430056E+02  0.32597459583E-01  0.44677204367E+02  0.51100000000E-03 0. -1.
<mgrwt>
<rscale>  0 0.93458432E+02</rscale>
<asrwt>0</asrwt>
<pdfrwt beam="1">  1        1 0.53194032E-02 0.93458432E+02</pdfrwt>
<pdfrwt beam="2">  1       -1 0.97159969E-02 0.93458432E+02</pdfrwt>
<totfact> 0.82612915E+04</totfact>
</mgrwt>
</event>
<event>
 5   1  0.1357339E+00  0.9133255E+02  0.7818608E-02  0.1299656E+00
          1   -1    0    0  501    0  0.00000000000E+00  0.00000000000E+00  0.15577909298E+02  0.15577909998E+02  0.46700000000E-02 0. -1.
         -1   -1    0    0    0  501 -0.00000000000E+00 -0.00000000000E+00 -0.13386960216E+03  0.13386960224E+03  0.46700000000E-02 0.  1.
         23    2    1    2    0    0  0.00000000000E+00  0.00000000000E+00 -0.11829169286E+03  0.14944751224E+03  0.91332547946E+02 0.  0.
        -11    1    3    3    0    0  0.27384299229E+02  0.31576697510E+02 -0.89247594033E+02  0.98550092394E+02  0.51100000000E-03 0.  1.
         11    1    3    3    0    0 -0.27384299229E+02 -0.31576697510E+02 -0.29044098831E+02  0.50897419847E+02  0.51100000000E-03 0. -1.
<mgrwt>
<rscale>  0 0.91332548E+02</rscale>
<asrwt>0</asrwt>
<pdfrwt beam="1">  1        1 0.23966016E-02 0.91332548E+02</pdfrwt>
<pdfrwt beam="2">  1       -1 0.20595323E-01 0.91332548E+02</pdfrwt>
<totfact> 0.76397558E+04</totfact>
</mgrwt>
</event>
<event>
 5   1  0.1357339E+00  0.9439367E+02  0.7818608E-02  0.1292548E+00
          1   -1    0    0  501    0  0.00000000000E+00  0.00000000000E+00  0.91809018668E+02  0.91809018787E+02  0.46700000000E-02 0. -1.
         -1   -1    0    0    0  501 -0.00000000000E+00 -0.00000000000E+00 -0.24262770184E+02  0.24262770633E+02  0.46700000000E-02 0.  1.
         23    2    1    2    0    0  0.00000000000E+00  0.00000000000E+00  0.67546248485E+02  0.11607178942E+03  0.94393668298E+02 0.  0.
        -11    1    3    3    0    0  0.46504021138E+02  0.73739006006E+01  0.29780476429E+02  0.55712432802E+02  0.51100000000E-03 0.  1.
         11    1    3    3    0    0 -0.46504021138E+02 -0.73739006006E+01  0.37765772056E+02  0.60359356618E+02  0.51100000000E-03 0. -1.
<mgrwt>
<rscale>  0 0.94393668E+02</rscale>
<asrwt>0</asrwt>
<pdfrwt beam="1">  1        1 0.14124464E-01 0.94393668E+02</pdfrwt>
<pdfrwt beam="2">  1       -1 0.37327340E-02 0.94393668E+02</pdfrwt>
<totfact> 0.93653497E+04</totfact>
</mgrwt>
</event>
<event>
 5   1  0.1357339E+00  0.9002841E+02  0.7818608E-02  0.1302783E+00
         -1   -1    0    0    0  501 -0.00000000000E+00  0.00000000000E+00  0.16730490400E+02  0.16730491052E+02  0.46700000000E-02 0.  1.
          1   -1    0    0  501    0  0.00000000000E+00 -0.00000000000E+00 -0.12111292878E+03  0.12111292887E+03  0.46700000000E-02 0. -1.
         23    2    1    2    0    0  0.00000000000E+00  0.00000000000E+00 -0.10438243838E+03  0.13784341992E+03  0.90028412036E+02 0.  0.
        -11    1    3    3    0    0  0.40417371461E+02  0.11996109678E+02 -0.76342422659E+02  0.87210297906E+02  0.51100000000E-03 0. -1.
         11    1    3    3    0    0 -0.40417371461E+02 -0.11996109678E+02 -0.28040015722E+02  0.50633122016E+02  0.51100000000E-03 0.  1.
<mgrwt>
<rscale>  0 0.90028412E+02</rscale>
<asrwt>0</asrwt>
<pdfrwt beam="2">  1        1 0.18632758E-01 0.90028412E+02</pdfrwt>
<pdfrwt beam="1">  1       -1 0.25739217E-02 0.90028412E+02</pdfrwt>
<totfact> 0.11167965E+05</totfact>
</mgrwt>
</event>
<event>
 5   1  0.1357339E+00  0.8120277E+02  0.7818608E-02  0.1325672E+00
         -1   -1    0    0    0  501 -0.00000000000E+00  0.00000000000E+00  0.37862530609E+02  0.37862530897E+02  0.46700000000E-02 0.  1.
          1   -1    0    0  501    0  0.00000000000E+00 -0.00000000000E+00 -0.43538362220E+02  0.43538362471E+02  0.46700000000E-02 0. -1.
         23    2    1    2    0    0  0.00000000000E+00  0.00000000000E+00 -0.56758316116E+01  0.81400893367E+02  0.81202773207E+02 0.  0.
        -11    1    3    3    0    0  0.24310325684E+02  0.10031124925E+02 -0.33846495369E+02  0.42862578680E+02  0.51100000000E-03 0. -1.
         11    1    3    3    0    0 -0.24310325684E+02 -0.10031124925E+02  0.28170663757E+02  0.38538314687E+02  0.51100000000E-03 0.  1.
<mgrwt>
<rscale>  0 0.81202773E+02</rscale>
<asrwt>0</asrwt>
<pdfrwt beam="2">  1        1 0.66982096E-02 0.81202773E+02</pdfrwt>
<pdfrwt beam="1">  1       -1 0.58250048E-02 0.81202773E+02</pdfrwt>
<totfact> 0.12679646E+05</totfact>
</mgrwt>
</event>
<event>
 5   1  0.1357339E+00  0.8998336E+02  0.7818608E-02  0.1302892E+00
          1   -1    0    0  501    0  0.00000000000E+00  0.00000000000E+00  0.13652464742E+03  0.13652464750E+03  0.46700000000E-02 0. -1.
         -1   -1    0    0    0  501 -0.00000000000E+00 -0.00000000000E+00 -0.14827002535E+02  0.14827003271E+02  0.46700000000E-02 0.  1.
         23    2    1    2    0    0  0.00000000000E+00  0.00000000000E+00  0.12169764489E+03  0.15135165077E+03  0.89983361911E+02 0.  0.
        -11    1    3    3    0    0 -0.41885254177E+02 -0.31640148938E+01  0.33734450441E+02  0.53873914417E+02  0.51100000000E-03 0.  1.
         11    1    3    3    0    0  0.41885254177E+02  0.31640148938E+01  0.87963194448E+02  0.97477736358E+02  0.51100000000E-03 0. -1.
<mgrwt>
<rscale>  0 0.89983362E+02</rscale>
<asrwt>0</asrwt>
<pdfrwt beam="1">  1        1 0.21003792E-01 0.89983362E+02</pdfrwt>
<pdfrwt beam="2">  1       -1 0.22810774E-02 0.89983362E+02</pdfrwt>
<totfact> 0.11422022E+05</totfact>
</mgrwt>
</event>
<event>
 5   1  0.1357339E+00  0.9155493E+02  0.7818608E-02  0.1299129E+00
         -1   -1    0    0    0  501 -0.00000000000E+00  0.00000000000E+00  0.90275049712E+02  0.90275049832E+02  0.46700000000E-02 0.  1.
          1   -1    0    0  501    0  0.00000000000E+00 -0.00000000000E+00 -0.23213241091E+02  0.23213241561E+02  0.46700000000E-02 0. -1.
         23    2    1    2    0    0  0.00000000000E+00  0.00000000000E+00  0.67061808621E+02  0.11348829139E+03  0.91554934918E+02 0.  0.
        -11    1    3    3    0    0  0.13028982977E+02  0.36460826288E+02  0.32583449298E+01  0.38855669637E+02  0.51100000000E-03 0. -1.
         11    1    3    3    0    0 -0.13028982977E+02 -0.36460826288E+02  0.63803463691E+02  0.74632621756E+02  0.51100000000E-03 0.  1.
<mgrwt>
<rscale>  0 0.91554935E+02</rscale>
<asrwt>0</asrwt>
<pdfrwt beam="2">  1        1 0.35712679E-02 0.91554935E+02</pdfrwt>
<pdfrwt beam="1">  1       -1 0.13888469E-01 0.91554935E+02</pdfrwt>
<totfact> 0.82019749E+04</totfact>
</mgrwt>
</event>
<event>
 5   1  0.1357339E+00  0.9061991E+02  0.7818608E-02  0.1301357E+00
         -1   -1    0    0    0  501 -0.00000000000E+00  0.00000000000E+00  0.20982151215E+02  0.20982151734E+02  0.46700000000E-02 0.  1.
          1   -1    0    0  501    0  0.00000000000E+00 -0.00000000000E+00 -0.97844695196E+02  0.97844695307E+02  0.46700000000E-02 0. -1.
         23    2    1    2    0    0  0.00000000000E+00  0.00000000000E+00 -0.76862543981E+02  0.11882684704E+03  0.90619914537E+02 0.  0.
        -11    1    3    3    0    0  0.41285630590E+02  0.18660971857E+02 -0.39096102886E+02  0.59843466017E+02  0.51100000000E-03 0.  1.
         11    1    3    3    0    0 -0.41285630590E+02 -0.18660971857E+02 -0.37766441095E+02  0.58983381024E+02  0.51100000000E-03 0. -1.
<mgrwt>
<rscale>  0 0.90619915E+02</rscale>
<asrwt>0</asrwt>
<pdfrwt beam="2">  1        1 0.15053030E-01 0.90619915E+02</pdfrwt>
<pdfrwt beam="1">  1       -1 0.32280234E-02 0.90619915E+02</pdfrwt>
<totfact> 0.10582749E+05</totfact>
</mgrwt>
</event>
<event>
 5   1  0.1357339E+00  0.9245110E+02  0.7818608E-02  0.1297022E+00
         -1   -1    0    0    0  501 -0.00000000000E+00  0.00000000000E+00  0.12384354803E+03  0.12384354812E+03  0.46700000000E-02 0.  1.
          1   -1    0    0  501    0  0.00000000000E+00 -0.00000000000E+00 -0.17254039019E+02  0.17254039651E+02  0.46700000000E-02 0. -1.
         23    2    1    2    0    0  0.00000000000E+00  0.00000000000E+00  0.10658950901E+03  0.14109758777E+03  0.92451099742E+02 0.  0.
        -11    1    3    3    0    0 -0.20057801233E+02  0.29825976448E+02  0.89329255861E+01  0.37036487700E+02  0.51100000000E-03 0. -1.
         11    1    3    3    0    0  0.20057801233E+02 -0.29825976448E+02  0.97656583427E+02  0.10406110007E+03  0.51100000000E-03 0.  1.
<mgrwt>
<rscale>  0 0.92451100E+02</rscale>
<asrwt>0</asrwt>
<pdfrwt beam="2">  1        1 0.26544677E-02 0.92451100E+02</pdfrwt>
<pdfrwt beam="1">  1       -1 0.19052853E-01 0.92451100E+02</pdfrwt>
<totfact> 0.75266340E+04</totfact>
</mgrwt>
</event>
<event>
 5   1  0.1357339E+00  0.9627108E+02  0.7818608E-02  0.1288339E+00
         -1   -1    0    0    0  501 -0.00000000000E+00  0.00000000000E+00  0.92440856946E+02  0.92440857064E+02  0.46700000000E-02 0. -1.
          1   -1    0    0  501    0  0.00000000000E+00 -0.00000000000E+00 -0.25065003383E+02  0.25065003818E+02  0.46700000000E-02 0.  1.
         23    2    1    2    0    0  0.00000000000E+00  0.00000000000E+00  0.67375853563E+02  0.11750586088E+03  0.96271084435E+02 0.  0.
        -11    1    3    3    0    0  0.37669271525E+02 -0.27238305263E+02  0.18436572102E+02  0.50008064170E+02  0.51100000000E-03 0.  1.
         11    1    3    3    0    0 -0.37669271525E+02  0.27238305263E+02  0.48939281461E+02  0.67497796713E+02  0.51100000000E-03 0. -1.
<mgrwt>
<rscale>  0 0.96271084E+02</rscale>
<asrwt>0</asrwt>
<pdfrwt beam="2">  1        1 0.38561545E-02 0.96271084E+02</pdfrwt>
<pdfrwt beam="1">  1       -1 0.14221670E-01 0.96271084E+02</pdfrwt>
<totfact> 0.71766803E+04</totfact>
</mgrwt>
</event>
<event>
 5   1  0.1357339E+00  0.8992093E+02  0.7818608E-02  0.1303043E+00
         -1   -1    0    0    0  501 -0.00000000000E+00  0.00000000000E+00  0.33211716572E+03  0.33211716575E+03  0.46700000000E-02 0.  1.
          1   -1    0    0  501    0  0.00000000000E+00 -0.00000000000E+00 -0.60865356832E+01  0.60865374748E+01  0.46700000000E-02 0. -1.
         23    2    1    2    0    0  0.00000000000E+00  0.00000000000E+00  0.32603063004E+03  0.33820370323E+03  0.89920927234E+02 0.  0.
        -11    1    3    3    0    0 -0.26114972299E+02  0.35590444426E+02  0.19510009522E+03  0.20003179414E+03  0.51100000000E-03 0.  1.
         11    1    3    3    0    0  0.26114972299E+02 -0.35590444426E+02  0.13093053482E+03  0.13817190908E+03  0.51100000000E-03 0. -1.
<mgrwt>
<rscale>  0 0.89920927E+02</rscale>
<asrwt>0</asrwt>
<pdfrwt beam="2">  1        1 0.93639024E-03 0.89920927E+02</pdfrwt>
<pdfrwt beam="1">  1       -1 0.51094949E-01 0.89920927E+02</pdfrwt>
<totfact> 0.60253126E+04</totfact>
</mgrwt>
</event>
<event>
 5   1  0.1357339E+00  0.9026843E+02  0.7818608E-02  0.1302203E+00
         -1   -1    0    0    0  501 -0.00000000000E+00  0.00000000000E+00  0.69536850803E+02  0.69536850960E+02  0.46700000000E-02 0.  1.
          1   -1    0    0  501    0  0.00000000000E+00 -0.00000000000E+00 -0.29295222674E+02  0.29295223046E+02  0.46700000000E-02 0. -1.
         23    2    1    2    0    0  0.00000000000E+00  0.00000000000E+00  0.40241628129E+02  0.98832074006E+02  0.90268434227E+02 0.  0.
        -11    1    3    3    0    0 -0.38879927598E+02 -0.52046992449E+01 -0.43210058803E+01  0.39464018502E+02  0.51100000000E-03 0. -1.
         11    1    3    3    0    0  0.38879927598E+02  0.52046992449E+01  0.44562634009E+02  0.59368055504E+02  0.51100000000E-03 0.  1.
<mgrwt>
<rscale>  0 0.90268434E+02</rscale>
<asrwt>0</asrwt>
<pdfrwt beam="2">  1        1 0.45069574E-02 0.90268434E+02</pdfrwt>
<pdfrwt beam="1">  1       -1 0.10697977E-01 0.90268434E+02</pdfrwt>
<totfact> 0.88869705E+04</totfact>
</mgrwt>
</event>
<event>
 5   1  0.1357339E+00  0.9094144E+02  0.7818608E-02  0.1300588E+00
          1   -1    0    0  501    0  0.00000000000E+00  0.00000000000E+00  0.20167432401E+03  0.20167432407E+03  0.46700000000E-02 0. -1.
         -1   -1    0    0    0  501 -0.00000000000E+00 -0.00000000000E+00 -0.10252104473E+02  0.10252105536E+02  0.46700000000E-02 0.  1.
         23    2    1    2    0    0  0.00000000000E+00  0.00000000000E+00  0.19142221954E+03  0.21192642960E+03  0.90941439567E+02 0.  0.
        -11    1    3    3    0    0 -0.40110617629E+02  0.10662391524E+02  0.52424174881E+02  0.66864357858E+02  0.51100000000E-03 0. -1.
         11    1    3    3    0    0  0.40110617629E+02 -0.10662391524E+02  0.13899804466E+03  0.14506207174E+03  0.51100000000E-03 0.  1.
<mgrwt>
<rscale>  0 0.90941440E+02</rscale>
<asrwt>0</asrwt>
<pdfrwt beam="1">  1        1 0.31026820E-01 0.90941440E+02</pdfrwt>
<pdfrwt beam="2">  1       -1 0.15772469E-02 0.90941440E+02</pdfrwt>
<totfact> 0.11942270E+05</totfact>
</mgrwt>
</event>
<event>
 5   1  0.1357339E+00  0.9251890E+02  0.7818608E-02  0.1296864E+00
         -1   -1    0    0    0  501 -0.00000000000E+00  0.00000000000E+00  0.22185703076E+02  0.22185703568E+02  0.46700000000E-02 0.  1.
          1   -1    0    0  501    0  0.00000000000E+00 -0.00000000000E+00 -0.96455666042E+02  0.96455666155E+02  0.46700000000E-02 0. -1.
         23    2    1    2    0    0  0.00000000000E+00  0.00000000000E+00 -0.74269962966E+02  0.11864136972E+03  0.92518901910E+02 0.  0.
        -11    1    3    3    0    0 -0.11715987788E+02 -0.19513253713E+02  0.14508847850E+02  0.26991445061E+02  0.51100000000E-03 0.  1.
         11    1    3    3    0    0  0.11715987788E+02  0.19513253713E+02 -0.88778810816E+02  0.91649924661E+02  0.51100000000E-03 0. -1.
<mgrwt>
<rscale>  0 0.92518902E+02</rscale>
<asrwt>0</asrwt>
<pdfrwt beam="2">  1        1 0.14839333E-01 0.92518902E+02</pdfrwt>
<pdfrwt beam="1">  1       -1 0.34131852E-02 0.92518902E+02</pdfrwt>
<totfact> 0.99763384E+04</totfact>
</mgrwt>
</event>
<event>
 5   1  0.1357339E+00  0.1111569E+03  0.7818608E-02  0.1258442E+00
         -1   -1    0    0    0  501 -0.00000000000E+00  0.00000000000E+00  0.21785870962E+02  0.21785871463E+02  0.46700000000E-02 0.  1.
          1   -1    0    0  501    0  0.00000000000E+00 -0.00000000000E+00 -0.14178744584E+03  0.14178744592E+03  0.46700000000E-02 0. -1.
         23    2    1    2    0    0  0.00000000000E+00  0.00000000000E+00 -0.12000157488E+03  0.16357331738E+03  0.11115688096E+03 0.  0.
        -11    1    3    3    0    0 -0.47996363853E+02  0.27814661769E+02 -0.54976623503E+02  0.78100803353E+02  0.51100000000E-03 0. -1.
         11    1    3    3    0    0  0.47996363853E+02 -0.27814661769E+02 -0.65024951375E+02  0.85472514026E+02  0.51100000000E-03 0.  1.
<mgrwt>
<rscale>  0 0.11115688E+03</rscale>
<asrwt>0</asrwt>
<pdfrwt beam="2">  1        1 0.21813453E-01 0.11115688E+03</pdfrwt>
<pdfrwt beam="1">  1       -1 0.33516726E-02 0.11115688E+03</pdfrwt>
<totfact> 0.64552331E+04</totfact>
</mgrwt>
</event>
<event>
 5   1  0.1357339E+00  0.9249842E+02  0.7818608E-02  0.1296912E+00
          1   -1    0    0  501    0  0.00000000000E+00  0.00000000000E+00  0.11779241270E+03  0.11779241279E+03  0.46700000000E-02 0. -1.
         -1   -1    0    0    0  501 -0.00000000000E+00 -0.00000000000E+00 -0.18158975697E+02  0.18158976298E+02  0.46700000000E-02 0.  1.
         23    2    1    2    0    0  0.00000000000E+00  0.00000000000E+00  0.99633437005E+02  0.13595138909E+03  0.92498423915E+02 0.  0.
        -11    1    3    3    0    0 -0.31717418338E+02  0.33466069970E+02  0.55119541412E+02  0.71861925322E+02  0.51100000000E-03 0.  1.
         11    1    3    3    0    0  0.31717418338E+02 -0.33466069970E+02  0.44513895593E+02  0.64089463771E+02  0.51100000000E-03 0. -1.
<mgrwt>
<rscale>  0 0.92498424E+02</rscale>
<asrwt>0</asrwt>
<pdfrwt beam="1">  1        1 0.18121909E-01 0.92498424E+02</pdfrwt>
<pdfrwt beam="2">  1       -1 0.27936887E-02 0.92498424E+02</pdfrwt>
<totfact> 0.10327272E+05</totfact>
</mgrwt>
</event>
<event>
 5   1  0.1357339E+00  0.9050818E+02  0.7818608E-02  0.1301626E+00
          1   -1    0    0  501    0  0.00000000000E+00  0.00000000000E+00  0.12473574884E+02  0.12473575758E+02  0.46700000000E-02 0. -1.
         -1   -1    0    0    0  501 -0.00000000000E+00 -0.00000000000E+00 -0.16418168600E+03  0.16418168607E+03  0.46700000000E-02 0.  1.
         23    2    1    2    0    0  0.00000000000E+00  0.00000000000E+00 -0.15170811112E+03  0.17665526182E+03  0.90508179474E+02 0.  0.
        -11    1    3    3    0    0 -0.19225461884E+02  0.34564917194E+02 -0.11877539354E+03  0.12518764315E+03  0.51100000000E-03 0.  1.
         11    1    3    3    0    0  0.19225461884E+02 -0.34564917194E+02 -0.32932717574E+02  0.51467618677E+02  0.51100000000E-03 0. -1.
<mgrwt>
<rscale>  0 0.90508179E+02</rscale>
<asrwt>0</asrwt>
<pdfrwt beam="1">  1        1 0.19190117E-02 0.90508179E+02</pdfrwt>
<pdfrwt beam="2">  1       -1 0.25258719E-01 0.90508179E+02</pdfrwt>
<totfact> 0.74588687E+04</totfact>
</mgrwt>
</event>
<event>
 5   1  0.1357339E+00  0.9257892E+02  0.7818608E-02  0.1296724E+00
         -1   -1    0    0    0  501 -0.00000000000E+00  0.00000000000E+00  0.18197113277E+02  0.18197113876E+02  0.46700000000E-02 0.  1.
          1   -1    0    0  501    0  0.00000000000E+00 -0.00000000000E+00 -0.11775022582E+03  0.11775022591E+03  0.46700000000E-02 0. -1.
         23    2    1    2    0    0  0.00000000000E+00  0.00000000000E+00 -0.99553112541E+02  0.13594733979E+03  0.92578922971E+02 0.  0.
        -11    1    3    3    0    0 -0.36410315560E+02 -0.21212831241E+02 -0.21644411906E+02  0.47372733249E+02  0.51100000000E-03 0.  1.
         11    1    3    3    0    0  0.36410315560E+02  0.21212831241E+02 -0.77908700635E+02  0.88574606538E+02  0.51100000000E-03 0. -1.
<mgrwt>
<rscale>  0 0.92578923E+02</rscale>
<asrwt>0</asrwt>
<pdfrwt beam="2">  1        1 0.18115419E-01 0.92578923E+02</pdfrwt>
<pdfrwt beam="1">  1       -1 0.27995560E-02 0.92578923E+02</pdfrwt>
<totfact> 0.10302217E+05</totfact>
</mgrwt>
</event>
<event>
 5   1  0.1357339E+00  0.9114341E+02  0.7818608E-02  0.1300106E+00
          1   -1    0    0  501    0  0.00000000000E+00  0.00000000000E+00  0.34677165401E+03  0.34677165404E+03  0.46700000000E-02 0. -1.
         -1   -1    0    0    0  501 -0.00000000000E+00 -0.00000000000E+00 -0.59888977692E+01  0.59888995900E+01  0.46700000000E-02 0.  1.
         23    2    1    2    0    0  0.00000000000E+00  0.00000000000E+00  0.34078275624E+03  0.35276055363E+03  0.91143410334E+02 0.  0.
        -11    1    3    3    0    0 -0.29044965521E+02 -0.33232628792E+02  0.12647265220E+03  0.13395278793E+03  0.51100000000E-03 0.  1.
         11    1    3    3    0    0  0.29044965521E+02  0.33232628792E+02  0.21431010404E+03  0.21880776570E+03  0.51100000000E-03 0. -1.
<mgrwt>
<rscale>  0 0.91143410E+02</rscale>
<asrwt>0</asrwt>
<pdfrwt beam="1">  1        1 0.53349466E-01 0.91143410E+02</pdfrwt>
<pdfrwt beam="2">  1       -1 0.92136937E-03 0.91143410E+02</pdfrwt>
<totfact> 0.13174245E+05</totfact>
</mgrwt>
</event>
<event>
 5   1  0.1357339E+00  0.1042317E+03  0.7818608E-02  0.1271641E+00
          1   -1    0    0  501    0  0.00000000000E+00  0.00000000000E+00  0.10451847351E+03  0.10451847361E+03  0.46700000000E-02 0. -1.
         -1   -1    0    0    0  501 -0.00000000000E+00 -0.00000000000E+00 -0.25986441801E+02  0.25986442220E+02  0.46700000000E-02 0.  1.
         23    2    1    2    0    0  0.00000000000E+00  0.00000000000E+00  0.78532031706E+02  0.13050491583E+03  0.10423172767E+03 0.  0.
        -11    1    3    3    0    0  0.33771633361E+02  0.30996825895E+02  0.70309578066E+02  0.83933087656E+02  0.51100000000E-03 0. -1.
         11    1    3    3    0    0 -0.33771633361E+02 -0.30996825895E+02  0.82224536402E+01  0.46571828175E+02  0.51100000000E-03 0.  1.
<mgrwt>
<rscale>  0 0.10423173E+03</rscale>
<asrwt>0</asrwt>
<pdfrwt beam="1">  1        1 0.16079765E-01 0.10423173E+03</pdfrwt>
<pdfrwt beam="2">  1       -1 0.39979142E-02 0.10423173E+03</pdfrwt>
<totfact> 0.72850243E+04</totfact>
</mgrwt>
</event>
<event>
 5   1  0.1357339E+00  0.8702755E+02  0.7818608E-02  0.1310214E+00
         -1   -1    0    0    0  501 -0.00000000000E+00  0.00000000000E+00  0.11510802808E+03  0.11510802817E+03  0.46700000000E-02 0.  1.
          1   -1    0    0  501    0  0.00000000000E+00 -0.00000000000E+00 -0.16449318819E+02  0.16449319482E+02  0.46700000000E-02 0. -1.
         23    2    1    2    0    0  0.00000000000E+00  0.00000000000E+00  0.98658709259E+02  0.13155734765E+03  0.87027552013E+02 0.  0.
        -11    1    3    3    0    0 -0.21289884248E+02 -0.32013372774E+02  0.18521828919E+02  0.42675207725E+02  0.51100000000E-03 0.  1.
         11    1    3    3    0    0  0.21289884248E+02  0.32013372774E+02  0.80136880340E+02  0.88882139930E+02  0.51100000000E-03 0. -1.
<mgrwt>
<rscale>  0 0.87027552E+02</rscale>
<asrwt>0</asrwt>
<pdfrwt beam="2">  1        1 0.25306645E-02 0.87027552E+02</pdfrwt>
<pdfrwt beam="1">  1       -1 0.17708927E-01 0.87027552E+02</pdfrwt>
<totfact> 0.89299591E+04</totfact>
</mgrwt>
</event>
<event>
 5   1  0.1357339E+00  0.9129007E+02  0.7818608E-02  0.1299757E+00
          1   -1    0    0  501    0  0.00000000000E+00  0.00000000000E+00  0.58100898162E+01  0.58100916930E+01  0.46700000000E-02 0. -1.
         -1   -1    0    0    0  501 -0.00000000000E+00 -0.00000000000E+00 -0.35859494822E+03  0.35859494825E+03  0.46700000000E-02 0.  1.
         23    2    1    2    0    0  0.00000000000E+00  0.00000000000E+00 -0.35278485840E+03  0.36440503994E+03  0.91290069652E+02 0.  0.
        -11    1    3    3    0    0  0.28875183788E+02 -0.32034355482E+02 -0.11671737362E+03  0.12443038807E+03  0.51100000000E-03 0. -1.
         11    1    3    3    0    0 -0.28875183788E+02  0.32034355482E+02 -0.23606748478E+03  0.23997465187E+03  0.51100000000E-03 0.  1.
<mgrwt>
<rscale>  0 0.91290070E+02</rscale>
<asrwt>0</asrwt>
<pdfrwt beam="1">  1        1 0.89386040E-03 0.91290070E+02</pdfrwt>
<pdfrwt beam="2">  1       -1 0.55168437E-01 0.91290070E+02</pdfrwt>
<totfact> 0.55984337E+04</totfact>
</mgrwt>
</event>
<event>
 5   1  0.1357339E+00  0.9035680E+02  0.7818608E-02  0.1301990E+00
          1   -1    0    0  501    0  0.00000000000E+00  0.00000000000E+00  0.13417741652E+03  0.13417741660E+03  0.46700000000E-02 0. -1.
         -1   -1    0    0    0  501 -0.00000000000E+00 -0.00000000000E+00 -0.15211858757E+02  0.15211859473E+02  0.46700000000E-02 0.  1.
         23    2    1    2    0    0  0.00000000000E+00  0.00000000000E+00  0.11896555777E+03  0.14938927608E+03  0.90356803133E+02 0.  0.
        -11    1    3    3    0    0 -0.15396526448E+02 -0.17273319500E+02 -0.46711245042E+01  0.23605931408E+02  0.51100000000E-03 0.  1.
         11    1    3    3    0    0  0.15396526448E+02  0.17273319500E+02  0.12363668227E+03  0.12578334467E+03  0.51100000000E-03 0. -1.
<mgrwt>
<rscale>  0 0.90356803E+02</rscale>
<asrwt>0</asrwt>
<pdfrwt beam="1">  1        1 0.20642681E-01 0.90356803E+02</pdfrwt>
<pdfrwt beam="2">  1       -1 0.23402859E-02 0.90356803E+02</pdfrwt>
<totfact> 0.11260106E+05</totfact>
</mgrwt>
</event>
<event>
 5   1  0.1357339E+00  0.9089427E+02  0.7818608E-02  0.1300700E+00
          1   -1    0    0  501    0  0.00000000000E+00  0.00000000000E+00  0.11684243856E+02  0.11684244789E+02  0.46700000000E-02 0. -1.
         -1   -1    0    0    0  501 -0.00000000000E+00 -0.00000000000E+00 -0.17677157225E+03  0.17677157231E+03  0.46700000000E-02 0.  1.
         23    2    1    2    0    0  0.00000000000E+00  0.00000000000E+00 -0.16508732840E+03  0.18845581710E+03  0.90894273763E+02 0.  0.
        -11    1    3    3    0    0  0.82237545606E+01 -0.44661782283E+02 -0.86216081866E+02  0.97444947064E+02  0.51100000000E-03 0.  1.
         11    1    3    3    0    0 -0.82237545606E+01  0.44661782283E+02 -0.78871246529E+02  0.91010870038E+02  0.51100000000E-03 0. -1.
<mgrwt>
<rscale>  0 0.90894274E+02</rscale>
<asrwt>0</asrwt>
<pdfrwt beam="1">  1        1 0.17975762E-02 0.90894274E+02</pdfrwt>
<pdfrwt beam="2">  1       -1 0.27195625E-01 0.90894274E+02</pdfrwt>
<totfact> 0.72393357E+04</totfact>
</mgrwt>
</event>
<event>
 5   1  0.1357339E+00  0.9167773E+02  0.7818608E-02  0.1298839E+00
          1   -1    0    0  501    0  0.00000000000E+00  0.00000000000E+00  0.47290600328E+02  0.47290600558E+02  0.46700000000E-02 0. -1.
         -1   -1    0    0    0  501 -0.00000000000E+00 -0.00000000000E+00 -0.44431697253E+02  0.44431697498E+02  0.46700000000E-02 0.  1.
         23    2    1    2    0    0  0.00000000000E+00  0.00000000000E+00  0.28589030747E+01  0.91722298057E+02  0.91677732487E+02 0.  0.
        -11    1    3    3    0    0 -0.17168114795E+02  0.18046448707E+02 -0.37070200176E+02  0.44661148865E+02  0.51100000000E-03 0.  1.
         11    1    3    3    0    0  0.17168114795E+02 -0.18046448707E+02  0.39929103251E+02  0.47061149192E+02  0.51100000000E-03 0. -1.
<mgrwt>
<rscale>  0 0.91677732E+02</rscale>
<asrwt>0</asrwt>
<pdfrwt beam="1">  1        1 0.72754770E-02 0.91677732E+02</pdfrwt>
<pdfrwt beam="2">  1       -1 0.68356458E-02 0.91677732E+02</pdfrwt>
<totfact> 0.91564419E+04</totfact>
</mgrwt>
</event>
<event>
 5   1  0.1357339E+00  0.9088142E+02  0.7818608E-02  0.1300731E+00
         -1   -1    0    0    0  501 -0.00000000000E+00  0.00000000000E+00  0.12176445446E+02  0.12176446341E+02  0.46700000000E-02 0.  1.
          1   -1    0    0  501    0  0.00000000000E+00 -0.00000000000E+00 -0.16957805693E+03  0.16957805700E+03  0.46700000000E-02 0. -1.
         23    2    1    2    0    0  0.00000000000E+00  0.00000000000E+00 -0.15740161149E+03  0.18175450334E+03  0.90881418261E+02 0.  0.
        -11    1    3    3    0    0 -0.39837355566E+02 -0.75403331175E+01 -0.37666774821E+02  0.55341281587E+02  0.51100000000E-03 0.  1.
         11    1    3    3    0    0  0.39837355566E+02  0.75403331175E+01 -0.11973483667E+03  0.12641322175E+03  0.51100000000E-03 0. -1.
<mgrwt>
<rscale>  0 0.90881418E+02</rscale>
<asrwt>0</asrwt>
<pdfrwt beam="2">  1        1 0.26088930E-01 0.90881418E+02</pdfrwt>
<pdfrwt beam="1">  1       -1 0.18732995E-02 0.90881418E+02</pdfrwt>
<totfact> 0.11572767E+05</totfact>
</mgrwt>
</event>
<event>
 5   1  0.1357339E+00  0.8846408E+02  0.7818608E-02  0.1306614E+00
         -1   -1    0    0    0  501 -0.00000000000E+00  0.00000000000E+00  0.45109296985E+02  0.45109297227E+02  0.46700000000E-02 0.  1.
          1   -1    0    0  501    0  0.00000000000E+00 -0.00000000000E+00 -0.43371844153E+02  0.43371844405E+02  0.46700000000E-02 0. -1.
         23    2    1    2    0    0  0.00000000000E+00  0.00000000000E+00  0.17374528315E+01  0.88481141632E+02  0.88464081310E+02 0.  0.
        -11    1    3    3    0    0 -0.90250957042E+01 -0.27596167407E+02 -0.32506445803E+02  0.43585201927E+02  0.51100000000E-03 0. -1.
         11    1    3    3    0    0  0.90250957042E+01  0.27596167407E+02  0.34243898634E+02  0.44895939705E+02  0.51100000000E-03 0.  1.
<mgrwt>
<rscale>  0 0.88464081E+02</rscale>
<asrwt>0</asrwt>
<pdfrwt beam="2">  1        1 0.66725915E-02 0.88464081E+02</pdfrwt>
<pdfrwt beam="1">  1       -1 0.69398919E-02 0.88464081E+02</pdfrwt>
<totfact> 0.99893019E+04</totfact>
</mgrwt>
</event>
<event>
 5   1  0.1357339E+00  0.9284254E+02  0.7818608E-02  0.1296110E+00
         -1   -1    0    0    0  501 -0.00000000000E+00  0.00000000000E+00  0.14158912500E+02  0.14158913270E+02  0.46700000000E-02 0.  1.
          1   -1    0    0  501    0  0.00000000000E+00 -0.00000000000E+00 -0.15219631962E+03  0.15219631969E+03  0.46700000000E-02 0. -1.
         23    2    1    2    0    0  0.00000000000E+00  0.00000000000E+00 -0.13803740712E+03  0.16635523296E+03  0.92842542885E+02 0.  0.
        -11    1    3    3    0    0 -0.20604422353E+02 -0.14194785724E+02  0.10427300942E+01  0.25042393028E+02  0.51100000000E-03 0.  1.
         11    1    3    3    0    0  0.20604422353E+02  0.14194785724E+02 -0.13908013722E+03  0.14131283993E+03  0.51100000000E-03 0. -1.
<mgrwt>
<rscale>  0 0.92842543E+02</rscale>
<asrwt>0</asrwt>
<pdfrwt beam="2">  1        1 0.23414817E-01 0.92842543E+02</pdfrwt>
<pdfrwt beam="1">  1       -1 0.21782944E-02 0.92842543E+02</pdfrwt>
<totfact> 0.10706566E+05</totfact>
</mgrwt>
</event>
<event>
 5   1  0.1357339E+00  0.8949566E+02  0.7818608E-02  0.1304078E+00
         -1   -1    0    0    0  501 -0.00000000000E+00  0.00000000000E+00  0.11126842045E+02  0.11126843025E+02  0.46700000000E-02 0.  1.
          1   -1    0    0  501    0  0.00000000000E+00 -0.00000000000E+00 -0.17995837163E+03  0.17995837169E+03  0.46700000000E-02 0. -1.
         23    2    1    2    0    0  0.00000000000E+00  0.00000000000E+00 -0.16883152959E+03  0.19108521472E+03  0.89495664148E+02 0.  0.
        -11    1    3    3    0    0  0.17218122303E+02  0.30428478769E+02 -0.24784249112E+02  0.42855747107E+02  0.51100000000E-03 0.  1.
         11    1    3    3    0    0 -0.17218122303E+02 -0.30428478769E+02 -0.14404728048E+03  0.14822946761E+03  0.51100000000E-03 0. -1.
<mgrwt>
<rscale>  0 0.89495664E+02</rscale>
<asrwt>0</asrwt>
<pdfrwt beam="2">  1        1 0.27685901E-01 0.89495664E+02</pdfrwt>
<pdfrwt beam="1">  1       -1 0.17118221E-02 0.89495664E+02</pdfrwt>
<totfact> 0.12196039E+05</totfact>
</mgrwt>
</event>
<event>
 5   1  0.1357339E+00  0.8394127E+02  0.7818608E-02  0.1318225E+00
          1   -1    0    0  501    0  0.00000000000E+00  0.00000000000E+00  0.51385621364E+02  0.51385621576E+02  0.46700000000E-02 0. -1.
         -1   -1    0    0    0  501 -0.00000000000E+00 -0.00000000000E+00 -0.34280681129E+02  0.34280681447E+02  0.46700000000E-02 0.  1.
         23    2    1    2    0    0  0.00000000000E+00  0.00000000000E+00  0.17104940235E+02  0.85666303023E+02  0.83941268118E+02 0.  0.
        -11    1    3    3    0    0 -0.30630494856E+02  0.19356738543E+02  0.30168480883E+02  0.47149207641E+02  0.51100000000E-03 0. -1.
         11    1    3    3    0    0  0.30630494856E+02 -0.19356738543E+02 -0.13063540648E+02  0.38517095382E+02  0.51100000000E-03 0.  1.
<mgrwt>
<rscale>  0 0.83941268E+02</rscale>
<asrwt>0</asrwt>
<pdfrwt beam="1">  1        1 0.79054802E-02 0.83941268E+02</pdfrwt>
<pdfrwt beam="2">  1       -1 0.52739510E-02 0.83941268E+02</pdfrwt>
<totfact> 0.11839732E+05</totfact>
</mgrwt>
</event>
<event>
 4   1  0.1357339E+00  0.1380747E+03  0.7818608E-02  0.1215943E+00
          1   -1    0    0  501    0  0.00000000000E+00  0.00000000000E+00  0.70193981011E+02  0.70193981166E+02  0.46700000000E-02 0. -1.
         -1   -1    0    0    0  501 -0.00000000000E+00 -0.00000000000E+00 -0.67899772165E+02  0.67899772325E+02  0.46700000000E-02 0.  1.
        -11    1    1    2    0    0 -0.15483617705E+02 -0.64754076412E+02  0.19406746658E+02  0.69350231761E+02  0.51100000000E-03 0.  1.
         11    1    1    2    0    0  0.15483617705E+02  0.64754076412E+02 -0.17112537811E+02  0.68743521730E+02  0.51100000000E-03 0. -1.
<mgrwt>
<rscale>  0 0.13807469E+03</rscale>
<asrwt>0</asrwt>
<pdfrwt beam="1">  1        1 0.10799074E-01 0.13807469E+03</pdfrwt>
<pdfrwt beam="2">  1       -1 0.10446119E-01 0.13807469E+03</pdfrwt>
<totfact> 0.30254294E+04</totfact>
</mgrwt>
</event>
<event>
 5   1  0.1357339E+00  0.8421545E+02  0.7818608E-02  0.1317497E+00
         -1   -1    0    0    0  501 -0.00000000000E+00  0.00000000000E+00  0.17294663736E+02  0.17294664367E+02  0.46700000000E-02 0.  1.
          1   -1    0    0  501    0  0.00000000000E+00 -0.00000000000E+00 -0.10252065650E+03  0.10252065661E+03  0.46700000000E-02 0. -1.
         23    2    1    2    0    0  0.00000000000E+00  0.00000000000E+00 -0.85225992765E+02  0.11981532097E+03  0.84215445718E+02 0.  0.
        -11    1    3    3    0    0 -0.28173384055E+02 -0.97367673054E+01 -0.84925963400E+02  0.90005352431E+02  0.51100000000E-03 0. -1.
         11    1    3    3    0    0  0.28173384055E+02  0.97367673054E+01 -0.30002936575E+00  0.29809968543E+02  0.51100000000E-03 0.  1.
<mgrwt>
<rscale>  0 0.84215446E+02</rscale>
<asrwt>0</asrwt>
<pdfrwt beam="2">  1        1 0.15772408E-01 0.84215446E+02</pdfrwt>
<pdfrwt beam="1">  1       -1 0.26607176E-02 0.84215446E+02</pdfrwt>
<totfact> 0.13005600E+05</totfact>
</mgrwt>
</event>
<event>
 5   1  0.1357339E+00  0.9423041E+02  0.7818608E-02  0.1292919E+00
         -1   -1    0    0    0  501 -0.00000000000E+00  0.00000000000E+00  0.48383269660E+02  0.48383269886E+02  0.46700000000E-02 0.  1.
          1   -1    0    0  501    0  0.00000000000E+00 -0.00000000000E+00 -0.45880370444E+02  0.45880370682E+02  0.46700000000E-02 0. -1.
         23    2    1    2    0    0  0.00000000000E+00  0.00000000000E+00  0.25028992162E+01  0.94263640568E+02  0.94230406073E+02 0.  0.
        -11    1    3    3    0    0 -0.27676054724E+02  0.37956302062E+02  0.48855652642E+01  0.47228313748E+02  0.51100000000E-03 0.  1.
         11    1    3    3    0    0  0.27676054724E+02 -0.37956302062E+02 -0.23826660480E+01  0.47035326820E+02  0.51100000000E-03 0. -1.
<mgrwt>
<rscale>  0 0.94230406E+02</rscale>
<asrwt>0</asrwt>
<pdfrwt beam="2">  1        1 0.70585186E-02 0.94230406E+02</pdfrwt>
<pdfrwt beam="1">  1       -1 0.74435800E-02 0.94230406E+02</pdfrwt>
<totfact> 0.84360208E+04</totfact>
</mgrwt>
</event>
<event>
 5   1  0.1357339E+00  0.9149053E+02  0.7818608E-02  0.1299282E+00
         -1   -1    0    0    0  501 -0.00000000000E+00  0.00000000000E+00  0.75239539345E+01  0.75239553838E+01  0.46700000000E-02 0.  1.
          1   -1    0    0  501    0  0.00000000000E+00 -0.00000000000E+00 -0.27812889620E+03  0.27812889624E+03  0.46700000000E-02 0. -1.
         23    2    1    2    0    0  0.00000000000E+00  0.00000000000E+00 -0.27060494227E+03  0.28565285163E+03  0.91490528810E+02 0.  0.
        -11    1    3    3    0    0  0.39361276985E+02 -0.44877889365E+00 -0.62539671769E+02  0.73896698665E+02  0.51100000000E-03 0. -1.
         11    1    3    3    0    0 -0.39361276985E+02  0.44877889365E+00 -0.20806527050E+03  0.21175615296E+03  0.51100000000E-03 0.  1.
<mgrwt>
<rscale>  0 0.91490529E+02</rscale>
<asrwt>0</asrwt>
<pdfrwt beam="2">  1        1 0.42789053E-01 0.91490529E+02</pdfrwt>
<pdfrwt beam="1">  1       -1 0.11575317E-02 0.91490529E+02</pdfrwt>
<totfact> 0.12511637E+05</totfact>
</mgrwt>
</event>
<event>
 5   1  0.1357339E+00  0.8917650E+02  0.7818608E-02  0.1304858E+00
          1   -1    0    0  501    0  0.00000000000E+00  0.00000000000E+00  0.17099277490E+03  0.17099277497E+03  0.46700000000E-02 0. -1.
         -1   -1    0    0    0  501 -0.00000000000E+00 -0.00000000000E+00 -0.11626877281E+02  0.11626878219E+02  0.46700000000E-02 0.  1.
         23    2    1    2    0    0  0.00000000000E+00  0.00000000000E+00  0.15936589762E+03  0.18261965319E+03  0.89176501418E+02 0.  0.
        -11    1    3    3    0    0  0.20253165416E+02 -0.39704826697E+02  0.82147288926E+02  0.93460371552E+02  0.51100000000E-03 0. -1.
         11    1    3    3    0    0 -0.20253165416E+02  0.39704826697E+02  0.77218608697E+02  0.89159281635E+02  0.51100000000E-03 0.  1.
<mgrwt>
<rscale>  0 0.89176501E+02</rscale>
<asrwt>0</asrwt>
<pdfrwt beam="1">  1        1 0.26306579E-01 0.89176501E+02</pdfrwt>
<pdfrwt beam="2">  1       -1 0.17887505E-02 0.89176501E+02</pdfrwt>
<totfact> 0.12195231E+05</totfact>
</mgrwt>
</event>
<event>
 5   1  0.1357339E+00  0.8847261E+02  0.7818608E-02  0.1306593E+00
         -1   -1    0    0    0  501 -0.00000000000E+00  0.00000000000E+00  0.79127011103E+02  0.79127011241E+02  0.46700000000E-02 0.  1.
          1   -1    0    0  501    0  0.00000000000E+00 -0.00000000000E+00 -0.24730500468E+02  0.24730500909E+02  0.46700000000E-02 0. -1.
         23    2    1    2    0    0  0.00000000000E+00  0.00000000000E+00  0.54396510635E+02  0.10385751215E+03  0.88472608533E+02 0.  0.
        -11    1    3    3    0    0 -0.33325187458E+02  0.22413804101E+02  0.48967713578E+02  0.63330748510E+02  0.51100000000E-03 0.  1.
         11    1    3    3    0    0  0.33325187458E+02 -0.22413804101E+02  0.54287970568E+01  0.40526763640E+02  0.51100000000E-03 0. -1.
<mgrwt>
<rscale>  0 0.88472609E+02</rscale>
<asrwt>0</asrwt>
<pdfrwt beam="2">  1        1 0.38046924E-02 0.88472609E+02</pdfrwt>
<pdfrwt beam="1">  1       -1 0.12173386E-01 0.88472609E+02</pdfrwt>
<totfact> 0.91591160E+04</totfact>
</mgrwt>
</event>
<event>
 5   1  0.1357339E+00  0.9196682E+02  0.7818608E-02  0.1298157E+00
         -1   -1    0    0    0  501 -0.00000000000E+00  0.00000000000E+00  0.76494690570E+02  0.76494690712E+02  0.46700000000E-02 0.  1.
          1   -1    0    0  501    0  0.00000000000E+00 -0.00000000000E+00 -0.27642102801E+02  0.27642103196E+02  0.46700000000E-02 0. -1.
         23    2    1    2    0    0  0.00000000000E+00  0.00000000000E+00  0.48852587769E+02  0.10413679391E+03  0.91966822897E+02 0.  0.
        -11    1    3    3    0    0 -0.41384191880E+02  0.19922622214E+02  0.21916729003E+02  0.50891111443E+02  0.51100000000E-03 0.  1.
         11    1    3    3    0    0  0.41384191880E+02 -0.19922622214E+02  0.26935858765E+02  0.53245682465E+02  0.51100000000E-03 0. -1.
<mgrwt>
<rscale>  0 0.91966823E+02</rscale>
<asrwt>0</asrwt>
<pdfrwt beam="2">  1        1 0.42526313E-02 0.91966823E+02</pdfrwt>
<pdfrwt beam="1">  1       -1 0.11768414E-01 0.91966823E+02</pdfrwt>
<totfact> 0.83426749E+04</totfact>
</mgrwt>
</event>
<event>
 5   1  0.1357339E+00  0.9133134E+02  0.7818608E-02  0.1299659E+00
          1   -1    0    0  501    0  0.00000000000E+00  0.00000000000E+00  0.18227367307E+03  0.18227367313E+03  0.46700000000E-02 0. -1.
         -1   -1    0    0    0  501 -0.00000000000E+00 -0.00000000000E+00 -0.11440782678E+02  0.11440783631E+02  0.46700000000E-02 0.  1.
         23    2    1    2    0    0  0.00000000000E+00  0.00000000000E+00  0.17083289039E+03  0.19371445676E+03  0.91331343569E+02 0.  0.
        -11    1    3    3    0    0  0.30484903559E+02  0.31805934520E+02  0.11090445666E+03  0.11933459399E+03  0.51100000000E-03 0. -1.
         11    1    3    3    0    0 -0.30484903559E+02 -0.31805934520E+02  0.59928433732E+02  0.74379862769E+02  0.51100000000E-03 0.  1.
<mgrwt>
<rscale>  0 0.91331344E+02</rscale>
<asrwt>0</asrwt>
<pdfrwt beam="1">  1        1 0.28042102E-01 0.91331344E+02</pdfrwt>
<pdfrwt beam="2">  1       -1 0.17601206E-02 0.91331344E+02</pdfrwt>
<totfact> 0.11577703E+05</totfact>
</mgrwt>
</event>
<event>
 5   1  0.1357339E+00  0.9191910E+02  0.7818608E-02  0.1298270E+00
          1   -1    0    0  501    0  0.00000000000E+00  0.00000000000E+00  0.19120345637E+03  0.19120345642E+03  0.46700000000E-02 0. -1.
         -1   -1    0    0    0  501 -0.00000000000E+00 -0.00000000000E+00 -0.11047291709E+02  0.11047292696E+02  0.46700000000E-02 0.  1.
         23    2    1    2    0    0  0.00000000000E+00  0.00000000000E+00  0.18015616466E+03  0.20225074912E+03  0.91919104951E+02 0.  0.
        -11    1    3    3    0    0  0.42064545695E+02 -0.10469313553E+02  0.12368225856E+03  0.13105851218E+03  0.51100000000E-03 0.  1.
         11    1    3    3    0    0 -0.42064545695E+02  0.10469313553E+02  0.56473906094E+02  0.71192236940E+02  0.51100000000E-03 0. -1.
<mgrwt>
<rscale>  0 0.91919105E+02</rscale>
<asrwt>0</asrwt>
<pdfrwt beam="1">  1        1 0.29415913E-01 0.91919105E+02</pdfrwt>
<pdfrwt beam="2">  1       -1 0.16995836E-02 0.91919105E+02</pdfrwt>
<totfact> 0.11485014E+05</totfact>
</mgrwt>
</event>
<event>
 5   1  0.1357339E+00  0.9644722E+02  0.7818608E-02  0.1287949E+00
          1   -1    0    0  501    0  0.00000000000E+00  0.00000000000E+00  0.82803265145E+02  0.82803265277E+02  0.46700000000E-02 0. -1.
         -1   -1    0    0    0  501 -0.00000000000E+00 -0.00000000000E+00 -0.28084839599E+02  0.28084839988E+02  0.46700000000E-02 0.  1.
         23    2    1    2    0    0  0.00000000000E+00  0.00000000000E+00  0.54718425546E+02  0.11088810526E+03  0.96447217663E+02 0.  0.
        -11    1    3    3    0    0 -0.43290099564E+02 -0.20507995672E+02  0.20967525066E+02  0.52290034561E+02  0.51100000000E-03 0.  1.
         11    1    3    3    0    0  0.43290099564E+02  0.20507995672E+02  0.33750900480E+02  0.58598070703E+02  0.51100000000E-03 0. -1.
<mgrwt>
<rscale>  0 0.96447218E+02</rscale>
<asrwt>0</asrwt>
<pdfrwt beam="1">  1        1 0.12738964E-01 0.96447218E+02</pdfrwt>
<pdfrwt beam="2">  1       -1 0.43207446E-02 0.96447218E+02</pdfrwt>
<totfact> 0.86768625E+04</totfact>
</mgrwt>
</event>
<event>
 5   1  0.1357339E+00  0.9245777E+02  0.7818608E-02  0.1297007E+00
         -1   -1    0    0    0  501 -0.00000000000E+00  0.00000000000E+00  0.54829265992E+02  0.54829266191E+02  0.46700000000E-02 0.  1.
          1   -1    0    0  501    0  0.00000000000E+00 -0.00000000000E+00 -0.38977537445E+02  0.38977537725E+02  0.46700000000E-02 0. -1.
         23    2    1    2    0    0  0.00000000000E+00  0.00000000000E+00  0.15851728547E+02  0.93806803916E+02  0.92457769620E+02 0.  0.
        -11    1    3    3    0    0 -0.14605714207E+02  0.20456063361E+02  0.47290580747E+02  0.53555358680E+02  0.51100000000E-03 0.  1.
         11    1    3    3    0    0  0.14605714207E+02 -0.20456063361E+02 -0.31438852200E+02  0.40251445236E+02  0.51100000000E-03 0. -1.
<mgrwt>
<rscale>  0 0.92457770E+02</rscale>
<asrwt>0</asrwt>
<pdfrwt beam="2">  1        1 0.59965443E-02 0.92457770E+02</pdfrwt>
<pdfrwt beam="1">  1       -1 0.84352717E-02 0.92457770E+02</pdfrwt>
<totfact> 0.86805337E+04</totfact>
</mgrwt>
</event>
<event>
 5   1  0.1357339E+00  0.9178613E+02  0.7818608E-02  0.1298583E+00
          1   -1    0    0  501    0  0.00000000000E+00  0.00000000000E+00  0.13021518289E+03  0.13021518297E+03  0.46700000000E-02 0. -1.
         -1   -1    0    0    0  501 -0.00000000000E+00 -0.00000000000E+00 -0.16174561507E+02  0.16174562181E+02  0.46700000000E-02 0.  1.
         23    2    1    2    0    0  0.00000000000E+00  0.00000000000E+00  0.11404062138E+03  0.14638974515E+03  0.91786132727E+02 0.  0.
        -11    1    3    3    0    0  0.44270839410E+02  0.24280021423E+00  0.37735374359E+02  0.58171510658E+02  0.51100000000E-03 0.  1.
         11    1    3    3    0    0 -0.44270839410E+02 -0.24280021423E+00  0.76305247023E+02  0.88218234495E+02  0.51100000000E-03 0. -1.
<mgrwt>
<rscale>  0 0.91786133E+02</rscale>
<asrwt>0</asrwt>
<pdfrwt beam="1">  1        1 0.20033106E-01 0.91786133E+02</pdfrwt>
<pdfrwt beam="2">  1       -1 0.24883940E-02 0.91786133E+02</pdfrwt>
<totfact> 0.10734410E+05</totfact>
</mgrwt>
</event>
<event>
 5   1  0.1357339E+00  0.9153097E+02  0.7818608E-02  0.1299186E+00
          1   -1    0    0  501    0  0.00000000000E+00  0.00000000000E+00  0.11573043035E+03  0.11573043045E+03  0.46700000000E-02 0. -1.
         -1   -1    0    0    0  501 -0.00000000000E+00 -0.00000000000E+00 -0.18097915626E+02  0.18097916229E+02  0.46700000000E-02 0.  1.
         23    2    1    2    0    0  0.00000000000E+00  0.00000000000E+00  0.97632514726E+02  0.13382834668E+03  0.91530969852E+02 0.  0.
        -11    1    3    3    0    0 -0.26807407093E+02  0.12892821540E+02  0.99667797740E+02  0.10401217154E+03  0.51100000000E-03 0. -1.
         11    1    3    3    0    0  0.26807407093E+02 -0.12892821540E+02 -0.20352830141E+01  0.29816175133E+02  0.51100000000E-03 0.  1.
<mgrwt>
<rscale>  0 0.91530970E+02</rscale>
<asrwt>0</asrwt>
<pdfrwt beam="1">  1        1 0.17804681E-01 0.91530970E+02</pdfrwt>
<pdfrwt beam="2">  1       -1 0.27842948E-02 0.91530970E+02</pdfrwt>
<totfact> 0.10594374E+05</totfact>
</mgrwt>
</event>
<event>
 5   1  0.1357339E+00  0.7521324E+02  0.7818608E-02  0.1343212E+00
         -1   -1    0    0    0  501 -0.00000000000E+00  0.00000000000E+00  0.56133765378E+02  0.56133765573E+02  0.46700000000E-02 0.  1.
          1   -1    0    0  501    0  0.00000000000E+00 -0.00000000000E+00 -0.25194422363E+02  0.25194422796E+02  0.46700000000E-02 0. -1.
         23    2    1    2    0    0  0.00000000000E+00  0.00000000000E+00  0.30939343015E+02  0.81328188369E+02  0.75213238709E+02 0.  0.
        -11    1    3    3    0    0  0.84369882159E+01  0.22049726285E+02  0.47122168933E+02  0.52705521576E+02  0.51100000000E-03 0.  1.
         11    1    3    3    0    0 -0.84369882159E+01 -0.22049726285E+02 -0.16182825918E+02  0.28622666793E+02  0.51100000000E-03 0. -1.
<mgrwt>
<rscale>  0 0.75213239E+02</rscale>
<asrwt>0</asrwt>
<pdfrwt beam="2">  1        1 0.38760650E-02 0.75213239E+02</pdfrwt>
<pdfrwt beam="1">  1       -1 0.86359640E-02 0.75213239E+02</pdfrwt>
<totfact> 0.14568182E+05</totfact>
</mgrwt>
</event>
<event>
 5   1  0.1357339E+00  0.9301140E+02  0.7818608E-02  0.1295719E+00
          1   -1    0    0  501    0  0.00000000000E+00  0.00000000000E+00  0.36240016925E+02  0.36240017226E+02  0.46700000000E-02 0. -1.
         -1   -1    0    0    0  501 -0.00000000000E+00 -0.00000000000E+00 -0.59679329181E+02  0.59679329363E+02  0.46700000000E-02 0.  1.
         23    2    1    2    0    0  0.00000000000E+00  0.00000000000E+00 -0.23439312255E+02  0.95919346589E+02  0.93011395491E+02 0.  0.
        -11    1    3    3    0    0  0.20415597778E+02  0.38003659009E+02 -0.29632372242E+02  0.52336910643E+02  0.51100000000E-03 0.  1.
         11    1    3    3    0    0 -0.20415597778E+02 -0.38003659009E+02  0.61930599866E+01  0.43582435946E+02  0.51100000000E-03 0. -1.
<mgrwt>
<rscale>  0 0.93011395E+02</rscale>
<asrwt>0</asrwt>
<pdfrwt beam="1">  1        1 0.55753873E-02 0.93011395E+02</pdfrwt>
<pdfrwt beam="2">  1       -1 0.91814353E-02 0.93011395E+02</pdfrwt>
<totfact> 0.84379460E+04</totfact>
</mgrwt>
</event>
<event>
 5   1  0.1357339E+00  0.9077888E+02  0.7818608E-02  0.1300976E+00
          1   -1    0    0  501    0  0.00000000000E+00  0.00000000000E+00  0.57094694419E+02  0.57094694610E+02  0.46700000000E-02 0. -1.
         -1   -1    0    0    0  501 -0.00000000000E+00 -0.00000000000E+00 -0.36083935554E+02  0.36083935856E+02  0.46700000000E-02 0.  1.
         23    2    1    2    0    0  0.00000000000E+00  0.00000000000E+00  0.21010758865E+02  0.93178630467E+02  0.90778880735E+02 0.  0.
        -11    1    3    3    0    0 -0.39244341233E+01 -0.21917635506E+02 -0.30092917295E+02  0.37434844744E+02  0.51100000000E-03 0.  1.
         11    1    3    3    0    0  0.39244341233E+01  0.21917635506E+02  0.51103676160E+02  0.55743785723E+02  0.51100000000E-03 0. -1.
<mgrwt>
<rscale>  0 0.90778881E+02</rscale>
<asrwt>0</asrwt>
<pdfrwt beam="1">  1        1 0.87837991E-02 0.90778881E+02</pdfrwt>
<pdfrwt beam="2">  1       -1 0.55513748E-02 0.90778881E+02</pdfrwt>
<totfact> 0.96820909E+04</totfact>
</mgrwt>
</event>
<event>
 5   1  0.1357339E+00  0.8897373E+02  0.7818608E-02  0.1305356E+00
          1   -1    0    0  501    0  0.00000000000E+00  0.00000000000E+00  0.75438767330E+02  0.75438767475E+02  0.46700000000E-02 0. -1.
         -1   -1    0    0    0  501 -0.00000000000E+00 -0.00000000000E+00 -0.26234269529E+02  0.26234269944E+02  0.46700000000E-02 0.  1.
         23    2    1    2    0    0  0.00000000000E+00  0.00000000000E+00  0.49204497802E+02  0.10167303742E+03  0.88973726089E+02 0.  0.
        -11    1    3    3    0    0 -0.40167031467E+02 -0.40172384764E+01  0.32373845555E+01  0.40497028050E+02  0.51100000000E-03 0. -1.
         11    1    3    3    0    0  0.40167031467E+02  0.40172384764E+01  0.45967113246E+02  0.61176009369E+02  0.51100000000E-03 0.  1.
<mgrwt>
<rscale>  0 0.88973726E+02</rscale>
<asrwt>0</asrwt>
<pdfrwt beam="1">  1        1 0.11605964E-01 0.88973726E+02</pdfrwt>
<pdfrwt beam="2">  1       -1 0.40360415E-02 0.88973726E+02</pdfrwt>
<totfact> 0.10674785E+05</totfact>
</mgrwt>
</event>
<event>
 5   1  0.1357339E+00  0.9755999E+02  0.7818608E-02  0.1285512E+00
          1   -1    0    0  501    0  0.00000000000E+00  0.00000000000E+00  0.14958612918E+03  0.14958612925E+03  0.46700000000E-02 0.  1.
         -1   -1    0    0    0  501 -0.00000000000E+00 -0.00000000000E+00 -0.15907142193E+02  0.15907142878E+02  0.46700000000E-02 0. -1.
         23    2    1    2    0    0  0.00000000000E+00  0.00000000000E+00  0.13367898699E+03  0.16549327213E+03  0.97559989539E+02 0.  0.
        -11    1    3    3    0    0  0.41178054893E+02 -0.26761009671E+01  0.11096653536E+03  0.11839073313E+03  0.51100000000E-03 0.  1.
         11    1    3    3    0    0 -0.41178054893E+02  0.26761009671E+01  0.22712451629E+02  0.47102539002E+02  0.51100000000E-03 0. -1.
<mgrwt>
<rscale>  0 0.97559990E+02</rscale>
<asrwt>0</asrwt>
<pdfrwt beam="1">  1        1 0.23013252E-01 0.97559990E+02</pdfrwt>
<pdfrwt beam="2">  1       -1 0.24472526E-02 0.97559990E+02</pdfrwt>
<totfact> 0.93294425E+04</totfact>
</mgrwt>
</event>
<event>
 5   1  0.1357339E+00  0.9096713E+02  0.7818608E-02  0.1300526E+00
          1   -1    0    0  501    0  0.00000000000E+00  0.00000000000E+00  0.44068157010E+02  0.44068157257E+02  0.46700000000E-02 0. -1.
         -1   -1    0    0    0  501 -0.00000000000E+00 -0.00000000000E+00 -0.46944430680E+02  0.46944430912E+02  0.46700000000E-02 0.  1.
         23    2    1    2    0    0  0.00000000000E+00  0.00000000000E+00 -0.28762736699E+01  0.91012588169E+02  0.90967127332E+02 0.  0.
        -11    1    3    3    0    0  0.39368501536E+02 -0.23611985205E+01  0.21229319219E+02  0.44789933762E+02  0.51100000000E-03 0. -1.
         11    1    3    3    0    0 -0.39368501536E+02  0.23611985205E+01 -0.24105592888E+02  0.46222654407E+02  0.51100000000E-03 0.  1.
<mgrwt>
<rscale>  0 0.90967127E+02</rscale>
<asrwt>0</asrwt>
<pdfrwt beam="1">  1        1 0.67797165E-02 0.90967127E+02</pdfrwt>
<pdfrwt beam="2">  1       -1 0.72222201E-02 0.90967127E+02</pdfrwt>
<totfact> 0.92599171E+04</totfact>
</mgrwt>
</event>
<event>
 5   1  0.1357339E+00  0.9097086E+02  0.7818608E-02  0.1300517E+00
         -1   -1    0    0    0  501 -0.00000000000E+00  0.00000000000E+00  0.18191661274E+03  0.18191661280E+03  0.46700000000E-02 0.  1.
          1   -1    0    0  501    0  0.00000000000E+00 -0.00000000000E+00 -0.11372927370E+02  0.11372928329E+02  0.46700000000E-02 0. -1.
         23    2    1    2    0    0  0.00000000000E+00  0.00000000000E+00  0.17054368537E+03  0.19328954113E+03  0.90970863965E+02 0.  0.
        -11    1    3    3    0    0 -0.31918809931E+01  0.45110582631E+02  0.95631291251E+02  0.10578514374E+03  0.51100000000E-03 0. -1.
         11    1    3    3    0    0  0.31918809931E+01 -0.45110582631E+02  0.74912394121E+02  0.87504397391E+02  0.51100000000E-03 0.  1.
<mgrwt>
<rscale>  0 0.90970864E+02</rscale>
<asrwt>0</asrwt>
<pdfrwt beam="2">  1        1 0.17496811E-02 0.90970864E+02</pdfrwt>
<pdfrwt beam="1">  1       -1 0.27987174E-01 0.90970864E+02</pdfrwt>
<totfact> 0.71688854E+04</totfact>
</mgrwt>
</event>
<event>
 5   1  0.1357339E+00  0.7973497E+02  0.7818608E-02  0.1329805E+00
          1   -1    0    0  501    0  0.00000000000E+00  0.00000000000E+00  0.49167273848E+01  0.49167296026E+01  0.46700000000E-02 0. -1.
         -1   -1    0    0    0  501 -0.00000000000E+00 -0.00000000000E+00 -0.32326707360E+03  0.32326707363E+03  0.46700000000E-02 0.  1.
         23    2    1    2    0    0  0.00000000000E+00  0.00000000000E+00 -0.31835034621E+03  0.32818380323E+03  0.79734972071E+02 0.  0.
        -11    1    3    3    0    0 -0.31385708925E+02  0.24217234367E+02 -0.14177140536E+03  0.14720960751E+03  0.51100000000E-03 0. -1.
         11    1    3    3    0    0  0.31385708925E+02 -0.24217234367E+02 -0.17657894085E+03  0.18097419572E+03  0.51100000000E-03 0.  1.
<mgrwt>
<rscale>  0 0.79734972E+02</rscale>
<asrwt>0</asrwt>
<pdfrwt beam="1">  1        1 0.75642002E-03 0.79734972E+02</pdfrwt>
<pdfrwt beam="2">  1       -1 0.49733380E-01 0.79734972E+02</pdfrwt>
<totfact> 0.83327265E+04</totfact>
</mgrwt>
</event>
<event>
 5   1  0.1357339E+00  0.9045457E+02  0.7818608E-02  0.1301755E+00
         -1   -1    0    0    0  501 -0.00000000000E+00  0.00000000000E+00  0.16601316503E+03  0.16601316509E+03  0.46700000000E-02 0.  1.
          1   -1    0    0  501    0  0.00000000000E+00 -0.00000000000E+00 -0.12321356498E+02  0.12321357383E+02  0.46700000000E-02 0. -1.
         23    2    1    2    0    0  0.00000000000E+00  0.00000000000E+00  0.15369180853E+03  0.17833452248E+03  0.90454573669E+02 0.  0.
        -11    1    3    3    0    0  0.17353379325E+02 -0.30964174468E+02  0.13210480000E+03  0.13679034344E+03  0.51100000000E-03 0.  1.
         11    1    3    3    0    0 -0.17353379325E+02  0.30964174468E+02  0.21587008529E+02  0.41544179038E+02  0.51100000000E-03 0. -1.
<mgrwt>
<rscale>  0 0.90454574E+02</rscale>
<asrwt>0</asrwt>
<pdfrwt beam="2">  1        1 0.18955936E-02 0.90454574E+02</pdfrwt>
<pdfrwt beam="1">  1       -1 0.25540485E-01 0.90454574E+02</pdfrwt>
<totfact> 0.74497230E+04</totfact>
</mgrwt>
</event>
<event>
 5   1  0.1357339E+00  0.9702483E+02  0.7818608E-02  0.1286680E+00
          1   -1    0    0  501    0  0.00000000000E+00  0.00000000000E+00  0.29635323695E+02  0.29635324063E+02  0.46700000000E-02 0. -1.
         -1   -1    0    0    0  501 -0.00000000000E+00 -0.00000000000E+00 -0.79413816493E+02  0.79413816631E+02  0.46700000000E-02 0.  1.
         23    2    1    2    0    0  0.00000000000E+00  0.00000000000E+00 -0.49778492798E+02  0.10904914069E+03  0.97024825384E+02 0.  0.
        -11    1    3    3    0    0 -0.27526377415E+02 -0.28573302558E+02 -0.56265207757E+02  0.68846994683E+02  0.51100000000E-03 0.  1.
         11    1    3    3    0    0  0.27526377415E+02  0.28573302558E+02  0.64867149587E+01  0.40202146011E+02  0.51100000000E-03 0. -1.
<mgrwt>
<rscale>  0 0.97024825E+02</rscale>
<asrwt>0</asrwt>
<pdfrwt beam="1">  1        1 0.45592806E-02 0.97024825E+02</pdfrwt>
<pdfrwt beam="2">  1       -1 0.12217510E-01 0.97024825E+02</pdfrwt>
<totfact> 0.72272670E+04</totfact>
</mgrwt>
</event>
<event>
 5   1  0.1357339E+00  0.7537369E+02  0.7818608E-02  0.1342718E+00
          1   -1    0    0  501    0  0.00000000000E+00  0.00000000000E+00  0.15991907703E+03  0.15991907710E+03  0.46700000000E-02 0. -1.
         -1   -1    0    0    0  501 -0.00000000000E+00 -0.00000000000E+00 -0.88813549603E+01  0.88813561881E+01  0.46700000000E-02 0.  1.
         23    2    1    2    0    0  0.00000000000E+00  0.00000000000E+00  0.15103772207E+03  0.16880043329E+03  0.75373687648E+02 0.  0.
        -11    1    3    3    0    0 -0.35193122927E+02  0.63532999458E+01  0.10214722713E+03  0.10822650476E+03  0.51100000000E-03 0. -1.
         11    1    3    3    0    0  0.35193122927E+02 -0.63532999458E+01  0.48890494936E+02  0.60573928524E+02  0.51100000000E-03 0.  1.
<mgrwt>
<rscale>  0 0.75373688E+02</rscale>
<asrwt>0</asrwt>
<pdfrwt beam="1">  1        1 0.24602937E-01 0.75373688E+02</pdfrwt>
<pdfrwt beam="2">  1       -1 0.13663623E-02 0.75373688E+02</pdfrwt>
<totfact> 0.18839789E+05</totfact>
</mgrwt>
</event>
<event>
 5   1  0.1357339E+00  0.9174716E+02  0.7818608E-02  0.1298675E+00
          1   -1    0    0  501    0  0.00000000000E+00  0.00000000000E+00  0.31752029956E+03  0.31752029959E+03  0.46700000000E-02 0. -1.
         -1   -1    0    0    0  501 -0.00000000000E+00 -0.00000000000E+00 -0.66275607261E+01  0.66275623714E+01  0.46700000000E-02 0.  1.
         23    2    1    2    0    0  0.00000000000E+00  0.00000000000E+00  0.31089273883E+03  0.32414786196E+03  0.91747159941E+02 0.  0.
        -11    1    3    3    0    0  0.17906772801E+02  0.41971483668E+02  0.13882696009E+03  0.14613412607E+03  0.51100000000E-03 0.  1.
         11    1    3    3    0    0 -0.17906772801E+02 -0.41971483668E+02  0.17206577874E+03  0.17801373589E+03  0.51100000000E-03 0. -1.
<mgrwt>
<rscale>  0 0.91747160E+02</rscale>
<asrwt>0</asrwt>
<pdfrwt beam="1">  1        1 0.48849280E-01 0.91747160E+02</pdfrwt>
<pdfrwt beam="2">  1       -1 0.10196248E-02 0.91747160E+02</pdfrwt>
<totfact> 0.12736876E+05</totfact>
</mgrwt>
</event>
<event>
 5   1  0.1357339E+00  0.9133722E+02  0.7818608E-02  0.1299645E+00
         -1   -1    0    0    0  501 -0.00000000000E+00  0.00000000000E+00  0.55932658347E+01  0.55932677842E+01  0.46700000000E-02 0.  1.
          1   -1    0    0  501    0  0.00000000000E+00 -0.00000000000E+00 -0.37288085331E+03  0.37288085334E+03  0.46700000000E-02 0. -1.
         23    2    1    2    0    0  0.00000000000E+00  0.00000000000E+00 -0.36728758748E+03  0.37847412113E+03  0.91337223775E+02 0.  0.
        -11    1    3    3    0    0 -0.43692998750E+02  0.37208539319E+00 -0.12860809652E+03  0.13582804967E+03  0.51100000000E-03 0.  1.
         11    1    3    3    0    0  0.43692998750E+02 -0.37208539319E+00 -0.23867949096E+03  0.24264607145E+03  0.51100000000E-03 0. -1.
<mgrwt>
<rscale>  0 0.91337224E+02</rscale>
<asrwt>0</asrwt>
<pdfrwt beam="2">  1        1 0.57366266E-01 0.91337224E+02</pdfrwt>
<pdfrwt beam="1">  1       -1 0.86050288E-03 0.91337224E+02</pdfrwt>
<totfact> 0.13268203E+05</totfact>
</mgrwt>
</event>
<event>
 5   1  0.1357339E+00  0.9054220E+02  0.7818608E-02  0.1301544E+00
          1   -1    0    0  501    0  0.00000000000E+00  0.00000000000E+00  0.42171529461E+02  0.42171529720E+02  0.46700000000E-02 0. -1.
         -1   -1    0    0    0  501 -0.00000000000E+00 -0.00000000000E+00 -0.48598489308E+02  0.48598489532E+02  0.46700000000E-02 0.  1.
         23    2    1    2    0    0  0.00000000000E+00  0.00000000000E+00 -0.64269598465E+01  0.90770019252E+02  0.90542203320E+02 0.  0.
        -11    1    3    3    0    0 -0.32107314205E+02  0.21134984757E+02 -0.27188196530E+02  0.47082536433E+02  0.51100000000E-03 0. -1.
         11    1    3    3    0    0  0.32107314205E+02 -0.21134984757E+02  0.20761236683E+02  0.43687482819E+02  0.51100000000E-03 0.  1.
<mgrwt>
<rscale>  0 0.90542203E+02</rscale>
<asrwt>0</asrwt>
<pdfrwt beam="1">  1        1 0.64879277E-02 0.90542203E+02</pdfrwt>
<pdfrwt beam="2">  1       -1 0.74766907E-02 0.90542203E+02</pdfrwt>
<totfact> 0.93207116E+04</totfact>
</mgrwt>
</event>
<event>
 5   1  0.1357339E+00  0.9063791E+02  0.7818608E-02  0.1301314E+00
         -1   -1    0    0    0  501 -0.00000000000E+00  0.00000000000E+00  0.26325089924E+03  0.26325089928E+03  0.46700000000E-02 0.  1.
          1   -1    0    0  501    0  0.00000000000E+00 -0.00000000000E+00 -0.78017106189E+01  0.78017120166E+01  0.46700000000E-02 0. -1.
         23    2    1    2    0    0  0.00000000000E+00  0.00000000000E+00  0.25544918862E+03  0.27105261130E+03  0.90637906663E+02 0.  0.
        -11    1    3    3    0    0  0.40051865015E+02 -0.20792858815E+02  0.11528157848E+03  0.12379958484E+03  0.51100000000E-03 0. -1.
         11    1    3    3    0    0 -0.40051865015E+02  0.20792858815E+02  0.14016761014E+03  0.14725302646E+03  0.51100000000E-03 0.  1.
<mgrwt>
<rscale>  0 0.90637907E+02</rscale>
<asrwt>0</asrwt>
<pdfrwt beam="2">  1        1 0.12002632E-02 0.90637907E+02</pdfrwt>
<pdfrwt beam="1">  1       -1 0.40500140E-01 0.90637907E+02</pdfrwt>
<totfact> 0.64608915E+04</totfact>
</mgrwt>
</event>
<event>
 5   1  0.1357339E+00  0.8432426E+02  0.7818608E-02  0.1317209E+00
         -1   -1    0    0    0  501 -0.00000000000E+00  0.00000000000E+00  0.36248122078E+02  0.36248122379E+02  0.46700000000E-02 0.  1.
          1   -1    0    0  501    0  0.00000000000E+00 -0.00000000000E+00 -0.49041029587E+02  0.49041029809E+02  0.46700000000E-02 0. -1.
         23    2    1    2    0    0  0.00000000000E+00  0.00000000000E+00 -0.12792907509E+02  0.85289152188E+02  0.84324261031E+02 0.  0.
        -11    1    3    3    0    0 -0.20667344809E+02 -0.33584729508E+02 -0.21486013469E+02  0.44907927726E+02  0.51100000000E-03 0. -1.
         11    1    3    3    0    0  0.20667344809E+02  0.33584729508E+02  0.86931059603E+01  0.40381224462E+02  0.51100000000E-03 0.  1.
<mgrwt>
<rscale>  0 0.84324261E+02</rscale>
<asrwt>0</asrwt>
<pdfrwt beam="2">  1        1 0.75447738E-02 0.84324261E+02</pdfrwt>
<pdfrwt beam="1">  1       -1 0.55766342E-02 0.84324261E+02</pdfrwt>
<totfact> 0.11615483E+05</totfact>
</mgrwt>
</event>
<event>
 5   1  0.1357339E+00  0.9142945E+02  0.7818608E-02  0.1299427E+00
          1   -1    0    0  501    0  0.00000000000E+00  0.00000000000E+00  0.12042413918E+03  0.12042413927E+03  0.46700000000E-02 0. -1.
         -1   -1    0    0    0  501 -0.00000000000E+00 -0.00000000000E+00 -0.17353963962E+02  0.17353964590E+02  0.46700000000E-02 0.  1.
         23    2    1    2    0    0  0.00000000000E+00  0.00000000000E+00  0.10307017522E+03  0.13777810386E+03  0.91429453044E+02 0.  0.
        -11    1    3    3    0    0 -0.70274763695E+01  0.25522586546E+02  0.10769840689E+03  0.11090416897E+03  0.51100000000E-03 0. -1.
         11    1    3    3    0    0  0.70274763695E+01 -0.25522586546E+02 -0.46282316663E+01  0.26873934895E+02  0.51100000000E-03 0.  1.
<mgrwt>
<rscale>  0 0.91429453E+02</rscale>
<asrwt>0</asrwt>
<pdfrwt beam="1">  1        1 0.18526791E-01 0.91429453E+02</pdfrwt>
<pdfrwt beam="2">  1       -1 0.26698406E-02 0.91429453E+02</pdfrwt>
<totfact> 0.10699813E+05</totfact>
</mgrwt>
</event>
<event>
 5   1  0.1357339E+00  0.9445880E+02  0.7818608E-02  0.1292400E+00
          1   -1    0    0  501    0  0.00000000000E+00  0.00000000000E+00  0.83301602947E+02  0.83301603078E+02  0.46700000000E-02 0. -1.
         -1   -1    0    0    0  501 -0.00000000000E+00 -0.00000000000E+00 -0.26777590006E+02  0.26777590413E+02  0.46700000000E-02 0.  1.
         23    2    1    2    0    0  0.00000000000E+00  0.00000000000E+00  0.56524012941E+02  0.11007919349E+03  0.94458799488E+02 0.  0.
        -11    1    3    3    0    0  0.17554128700E+02  0.43834096326E+02  0.29450889468E+02  0.55650070313E+02  0.51100000000E-03 0.  1.
         11    1    3    3    0    0 -0.17554128700E+02 -0.43834096326E+02  0.27073123474E+02  0.54429123179E+02  0.51100000000E-03 0. -1.
<mgrwt>
<rscale>  0 0.94458799E+02</rscale>
<asrwt>0</asrwt>
<pdfrwt beam="1">  1        1 0.12815631E-01 0.94458799E+02</pdfrwt>
<pdfrwt beam="2">  1       -1 0.41196293E-02 0.94458799E+02</pdfrwt>
<totfact> 0.91995452E+04</totfact>
</mgrwt>
</event>
<event>
 5   1  0.1357339E+00  0.9130033E+02  0.7818608E-02  0.1299733E+00
          1   -1    0    0  501    0  0.00000000000E+00  0.00000000000E+00  0.31796172082E+02  0.31796172425E+02  0.46700000000E-02 0. -1.
         -1   -1    0    0    0  501 -0.00000000000E+00 -0.00000000000E+00 -0.65540512106E+02  0.65540512272E+02  0.46700000000E-02 0.  1.
         23    2    1    2    0    0  0.00000000000E+00  0.00000000000E+00 -0.33744340023E+02  0.97336684697E+02  0.91300326967E+02 0.  0.
        -11    1    3    3    0    0 -0.14524102269E+02 -0.32472099043E+01 -0.62881485424E+02  0.64618690240E+02  0.51100000000E-03 0.  1.
         11    1    3    3    0    0  0.14524102269E+02  0.32472099043E+01  0.29137145401E+02  0.32717994457E+02  0.51100000000E-03 0. -1.
<mgrwt>
<rscale>  0 0.91300327E+02</rscale>
<asrwt>0</asrwt>
<pdfrwt beam="1">  1        1 0.48917188E-02 0.91300327E+02</pdfrwt>
<pdfrwt beam="2">  1       -1 0.10083156E-01 0.91300327E+02</pdfrwt>
<totfact> 0.87156356E+04</totfact>
</mgrwt>
</event>
<event>
 5   1  0.1357339E+00  0.9077962E+02  0.7818608E-02  0.1300975E+00
          1   -1    0    0  501    0  0.00000000000E+00  0.00000000000E+00  0.41665990761E+02  0.41665991022E+02  0.46700000000E-02 0. -1.
         -1   -1    0    0    0  501 -0.00000000000E+00 -0.00000000000E+00 -0.49446435286E+02  0.49446435506E+02  0.46700000000E-02 0.  1.
         23    2    1    2    0    0  0.00000000000E+00  0.00000000000E+00 -0.77804445250E+01  0.91112426528E+02  0.90779617486E+02 0.  0.
        -11    1    3    3    0    0 -0.33035351316E+02  0.27426469394E+02 -0.18664551570E+02  0.46817850715E+02  0.51100000000E-03 0.  1.
         11    1    3    3    0    0  0.33035351316E+02 -0.27426469394E+02  0.10884107045E+02  0.44294575813E+02  0.51100000000E-03 0. -1.
<mgrwt>
<rscale>  0 0.90779617E+02</rscale>
<asrwt>0</asrwt>
<pdfrwt beam="1">  1        1 0.64101524E-02 0.90779617E+02</pdfrwt>
<pdfrwt beam="2">  1       -1 0.76071440E-02 0.90779617E+02</pdfrwt>
<totfact> 0.92355426E+04</totfact>
</mgrwt>
</event>
<event>
 5   1  0.1357339E+00  0.9300980E+02  0.7818608E-02  0.1295722E+00
          1   -1    0    0  501    0  0.00000000000E+00  0.00000000000E+00  0.22937518607E+02  0.22937519083E+02  0.46700000000E-02 0. -1.
         -1   -1    0    0    0  501 -0.00000000000E+00 -0.00000000000E+00 -0.94286816480E+02  0.94286816596E+02  0.46700000000E-02 0.  1.
         23    2    1    2    0    0  0.00000000000E+00  0.00000000000E+00 -0.71349297872E+02  0.11722433568E+03  0.93009798238E+02 0.  0.
        -11    1    3    3    0    0 -0.38304754183E+02  0.26033943759E+02 -0.30374423692E+02  0.55386153825E+02  0.51100000000E-03 0.  1.
         11    1    3    3    0    0  0.38304754183E+02 -0.26033943759E+02 -0.40974874180E+02  0.61838181854E+02  0.51100000000E-03 0. -1.
<mgrwt>
<rscale>  0 0.93009798E+02</rscale>
<asrwt>0</asrwt>
<pdfrwt beam="1">  1        1 0.35288491E-02 0.93009798E+02</pdfrwt>
<pdfrwt beam="2">  1       -1 0.14505664E-01 0.93009798E+02</pdfrwt>
<totfact> 0.78144484E+04</totfact>
</mgrwt>
</event>
<event>
 4   1  0.1357339E+00  0.3827106E+02  0.7818608E-02  0.1521334E+00
         -1   -1    0    0    0  501 -0.00000000000E+00  0.00000000000E+00  0.35367746707E+02  0.35367747015E+02  0.46700000000E-02 0.  1.
          1   -1    0    0  501    0  0.00000000000E+00 -0.00000000000E+00 -0.10353175572E+02  0.10353176625E+02  0.46700000000E-02 0. -1.
        -11    1    1    2    0    0 -0.94638805931E+01 -0.12909778163E+02  0.25033636154E+02  0.29713807354E+02  0.51100000000E-03 0.  1.
         11    1    1    2    0    0  0.94638805931E+01  0.12909778163E+02 -0.19065019323E-01  0.16007116287E+02  0.51100000000E-03 0. -1.
<mgrwt>
<rscale>  0 0.38271061E+02</rscale>
<asrwt>0</asrwt>
<pdfrwt beam="2">  1        1 0.15927963E-02 0.38271061E+02</pdfrwt>
<pdfrwt beam="1">  1       -1 0.54411920E-02 0.38271061E+02</pdfrwt>
<totfact> 0.80842982E+05</totfact>
</mgrwt>
</event>
<event>
 5   1  0.1357339E+00  0.9437313E+02  0.7818608E-02  0.1292594E+00
          1   -1    0    0  501    0  0.00000000000E+00  0.00000000000E+00  0.27892082611E+02  0.27892083002E+02  0.46700000000E-02 0. -1.
         -1   -1    0    0    0  501 -0.00000000000E+00 -0.00000000000E+00 -0.79828102192E+02  0.79828102329E+02  0.46700000000E-02 0.  1.
         23    2    1    2    0    0  0.00000000000E+00  0.00000000000E+00 -0.51936019581E+02  0.10772018533E+03  0.94373132818E+02 0.  0.
        -11    1    3    3    0    0 -0.68426029302E+01 -0.32067301283E+02 -0.64699944551E+02  0.72534239168E+02  0.51100000000E-03 0.  1.
         11    1    3    3    0    0  0.68426029302E+01  0.32067301283E+02  0.12763924971E+02  0.35185946163E+02  0.51100000000E-03 0. -1.
<mgrwt>
<rscale>  0 0.94373133E+02</rscale>
<asrwt>0</asrwt>
<pdfrwt beam="1">  1        1 0.42910897E-02 0.94373133E+02</pdfrwt>
<pdfrwt beam="2">  1       -1 0.12281246E-01 0.94373133E+02</pdfrwt>
<totfact> 0.77523968E+04</totfact>
</mgrwt>
</event>
<event>
 5   1  0.1357339E+00  0.9084973E+02  0.7818608E-02  0.1300807E+00
          1   -1    0    0  501    0  0.00000000000E+00  0.00000000000E+00  0.25890876539E+03  0.25890876543E+03  0.46700000000E-02 0. -1.
         -1   -1    0    0    0  501 -0.00000000000E+00 -0.00000000000E+00 -0.79696732634E+01  0.79696746317E+01  0.46700000000E-02 0.  1.
         23    2    1    2    0    0  0.00000000000E+00  0.00000000000E+00  0.25093909212E+03  0.26687844006E+03  0.90849732050E+02 0.  0.
        -11    1    3    3    0    0  0.35560462523E+02 -0.82019854749E+01  0.20492551129E+03  0.20814966788E+03  0.51100000000E-03 0. -1.
         11    1    3    3    0    0 -0.35560462523E+02  0.82019854749E+01  0.46013580836E+02  0.58728772183E+02  0.51100000000E-03 0.  1.
<mgrwt>
<rscale>  0 0.90849732E+02</rscale>
<asrwt>0</asrwt>
<pdfrwt beam="1">  1        1 0.39832121E-01 0.90849732E+02</pdfrwt>
<pdfrwt beam="2">  1       -1 0.12261036E-02 0.90849732E+02</pdfrwt>
<totfact> 0.12571746E+05</totfact>
</mgrwt>
</event>
<event>
 5   1  0.1357339E+00  0.9171516E+02  0.7818608E-02  0.1298751E+00
          1   -1    0    0  501    0  0.00000000000E+00  0.00000000000E+00  0.74604454705E+02  0.74604454852E+02  0.46700000000E-02 0. -1.
         -1   -1    0    0    0  501 -0.00000000000E+00 -0.00000000000E+00 -0.28187561415E+02  0.28187561802E+02  0.46700000000E-02 0.  1.
         23    2    1    2    0    0  0.00000000000E+00  0.00000000000E+00  0.46416893290E+02  0.10279201665E+03  0.91715160715E+02 0.  0.
        -11    1    3    3    0    0  0.30475830550E+02 -0.30146403364E+01 -0.15046814029E+02  0.34121414343E+02  0.51100000000E-03 0.  1.
         11    1    3    3    0    0 -0.30475830550E+02  0.30146403364E+01  0.61463707319E+02  0.68670602311E+02  0.51100000000E-03 0. -1.
<mgrwt>
<rscale>  0 0.91715161E+02</rscale>
<asrwt>0</asrwt>
<pdfrwt beam="1">  1        1 0.11477608E-01 0.91715161E+02</pdfrwt>
<pdfrwt beam="2">  1       -1 0.43365480E-02 0.91715161E+02</pdfrwt>
<totfact> 0.98043643E+04</totfact>
</mgrwt>
</event>
<event>
 5   1  0.1357339E+00  0.9210807E+02  0.7818608E-02  0.1297826E+00
          1   -1    0    0  501    0  0.00000000000E+00  0.00000000000E+00  0.39930737249E+02  0.39930737522E+02  0.46700000000E-02 0. -1.
         -1   -1    0    0    0  501 -0.00000000000E+00 -0.00000000000E+00 -0.53116327840E+02  0.53116328046E+02  0.46700000000E-02 0.  1.
         23    2    1    2    0    0  0.00000000000E+00  0.00000000000E+00 -0.13185590591E+02  0.93047065568E+02  0.92108070285E+02 0.  0.
        -11    1    3    3    0    0  0.29109901268E+02  0.32573731446E+01 -0.42493483478E+02  0.51610977223E+02  0.51100000000E-03 0.  1.
         11    1    3    3    0    0 -0.29109901268E+02 -0.32573731446E+01  0.29307892887E+02  0.41436088345E+02  0.51100000000E-03 0. -1.
<mgrwt>
<rscale>  0 0.92108070E+02</rscale>
<asrwt>0</asrwt>
<pdfrwt beam="1">  1        1 0.61431904E-02 0.92108070E+02</pdfrwt>
<pdfrwt beam="2">  1       -1 0.81717428E-02 0.92108070E+02</pdfrwt>
<totfact> 0.88070177E+04</totfact>
</mgrwt>
</event>
<event>
 5   1  0.1357339E+00  0.9323807E+02  0.7818608E-02  0.1295194E+00
          1   -1    0    0  501    0  0.00000000000E+00  0.00000000000E+00  0.26049353113E+02  0.26049353532E+02  0.46700000000E-02 0. -1.
         -1   -1    0    0    0  501 -0.00000000000E+00 -0.00000000000E+00 -0.83431410815E+02  0.83431410946E+02  0.46700000000E-02 0.  1.
         23    2    1    2    0    0  0.00000000000E+00  0.00000000000E+00 -0.57382057702E+02  0.10948076448E+03  0.93238067572E+02 0.  0.
        -11    1    3    3    0    0 -0.34702652549E+02 -0.28116777820E+02 -0.44379196069E+02  0.62963007655E+02  0.51100000000E-03 0. -1.
         11    1    3    3    0    0  0.34702652549E+02  0.28116777820E+02 -0.13002861632E+02  0.46517756823E+02  0.51100000000E-03 0.  1.
<mgrwt>
<rscale>  0 0.93238068E+02</rscale>
<asrwt>0</asrwt>
<pdfrwt beam="1">  1        1 0.40075928E-02 0.93238068E+02</pdfrwt>
<pdfrwt beam="2">  1       -1 0.12835602E-01 0.93238068E+02</pdfrwt>
<totfact> 0.79361186E+04</totfact>
</mgrwt>
</event>
<event>
 5   1  0.1357339E+00  0.1060043E+03  0.7818608E-02  0.1268153E+00
          1   -1    0    0  501    0  0.00000000000E+00  0.00000000000E+00  0.86111311968E+02  0.86111312094E+02  0.46700000000E-02 0. -1.
         -1   -1    0    0    0  501 -0.00000000000E+00 -0.00000000000E+00 -0.32623228574E+02  0.32623228908E+02  0.46700000000E-02 0.  1.
         23    2    1    2    0    0  0.00000000000E+00  0.00000000000E+00  0.53488083394E+02  0.11873454100E+03  0.10600432143E+03 0.  0.
        -11    1    3    3    0    0  0.42027435332E+02  0.25389644719E+02  0.49097927279E+02  0.69437351929E+02  0.51100000000E-03 0. -1.
         11    1    3    3    0    0 -0.42027435332E+02 -0.25389644719E+02  0.43901561152E+01  0.49297189074E+02  0.51100000000E-03 0.  1.
<mgrwt>
<rscale>  0 0.10600432E+03</rscale>
<asrwt>0</asrwt>
<pdfrwt beam="1">  1        1 0.13247894E-01 0.10600432E+03</pdfrwt>
<pdfrwt beam="2">  1       -1 0.50189583E-02 0.10600432E+03</pdfrwt>
<totfact> 0.67165129E+04</totfact>
</mgrwt>
</event>
<event>
 5   1  0.1357339E+00  0.9214932E+02  0.7818608E-02  0.1297729E+00
         -1   -1    0    0    0  501 -0.00000000000E+00  0.00000000000E+00  0.96698619638E+01  0.96698630915E+01  0.46700000000E-02 0.  1.
          1   -1    0    0  501    0  0.00000000000E+00 -0.00000000000E+00 -0.21953511629E+03  0.21953511634E+03  0.46700000000E-02 0. -1.
         23    2    1    2    0    0  0.00000000000E+00  0.00000000000E+00 -0.20986525433E+03  0.22920497943E+03  0.92149322421E+02 0.  0.
        -11    1    3    3    0    0 -0.25631397598E+02  0.37152628794E+02 -0.81921471347E+02  0.93532955888E+02  0.51100000000E-03 0.  1.
         11    1    3    3    0    0  0.25631397598E+02 -0.37152628794E+02 -0.12794378298E+03  0.13567202354E+03  0.51100000000E-03 0. -1.
<mgrwt>
<rscale>  0 0.92149322E+02</rscale>
<asrwt>0</asrwt>
<pdfrwt beam="2">  1        1 0.33774630E-01 0.92149322E+02</pdfrwt>
<pdfrwt beam="1">  1       -1 0.14876713E-02 0.92149322E+02</pdfrwt>
<totfact> 0.11719226E+05</totfact>
</mgrwt>
</event>
<event>
 5   1  0.1357339E+00  0.9173190E+02  0.7818608E-02  0.1298711E+00
         -1   -1    0    0    0  501 -0.00000000000E+00  0.00000000000E+00  0.47847303374E+02  0.47847303602E+02  0.46700000000E-02 0.  1.
          1   -1    0    0  501    0  0.00000000000E+00 -0.00000000000E+00 -0.43966641044E+02  0.43966641292E+02  0.46700000000E-02 0. -1.
         23    2    1    2    0    0  0.00000000000E+00  0.00000000000E+00  0.38806623306E+01  0.91813944894E+02  0.91731897053E+02 0.  0.
        -11    1    3    3    0    0  0.11559027060E+02  0.12674464883E+02  0.44515797560E+02  0.47706492213E+02  0.51100000000E-03 0.  1.
         11    1    3    3    0    0 -0.11559027060E+02 -0.12674464883E+02 -0.40635135229E+02  0.44107452681E+02  0.51100000000E-03 0. -1.
<mgrwt>
<rscale>  0 0.91731897E+02</rscale>
<asrwt>0</asrwt>
<pdfrwt beam="2">  1        1 0.67640986E-02 0.91731897E+02</pdfrwt>
<pdfrwt beam="1">  1       -1 0.73611237E-02 0.91731897E+02</pdfrwt>
<totfact> 0.90411093E+04</totfact>
</mgrwt>
</event>
<event>
 5   1  0.1357339E+00  0.9166882E+02  0.7818608E-02  0.1298860E+00
         -1   -1    0    0    0  501 -0.00000000000E+00  0.00000000000E+00  0.12342188708E+02  0.12342189592E+02  0.46700000000E-02 0.  1.
          1   -1    0    0  501    0  0.00000000000E+00 -0.00000000000E+00 -0.17021235235E+03  0.17021235241E+03  0.46700000000E-02 0. -1.
         23    2    1    2    0    0  0.00000000000E+00  0.00000000000E+00 -0.15787016364E+03  0.18255454200E+03  0.91668818245E+02 0.  0.
        -11    1    3    3    0    0  0.20388025604E+02  0.31583725425E+02 -0.26715220979E+02  0.46118394725E+02  0.51100000000E-03 0.  1.
         11    1    3    3    0    0 -0.20388025604E+02 -0.31583725425E+02 -0.13115494266E+03  0.13643614728E+03  0.51100000000E-03 0. -1.
<mgrwt>
<rscale>  0 0.91668818E+02</rscale>
<asrwt>0</asrwt>
<pdfrwt beam="2">  1        1 0.26186514E-01 0.91668818E+02</pdfrwt>
<pdfrwt beam="1">  1       -1 0.18987985E-02 0.91668818E+02</pdfrwt>
<totfact> 0.11315063E+05</totfact>
</mgrwt>
</event>
<event>
 5   1  0.1357339E+00  0.8911696E+02  0.7818608E-02  0.1305004E+00
         -1   -1    0    0    0  501 -0.00000000000E+00  0.00000000000E+00  0.14663109067E+02  0.14663109811E+02  0.46700000000E-02 0.  1.
          1   -1    0    0  501    0  0.00000000000E+00 -0.00000000000E+00 -0.13540497872E+03  0.13540497880E+03  0.46700000000E-02 0. -1.
         23    2    1    2    0    0  0.00000000000E+00  0.00000000000E+00 -0.12074186965E+03  0.15006808861E+03  0.89116957601E+02 0.  0.
        -11    1    3    3    0    0  0.35566471021E+02  0.21260958704E+02 -0.32780127991E+02  0.52835016961E+02  0.51100000000E-03 0.  1.
         11    1    3    3    0    0 -0.35566471021E+02 -0.21260958704E+02 -0.87961741662E+02  0.97233071649E+02  0.51100000000E-03 0. -1.
<mgrwt>
<rscale>  0 0.89116958E+02</rscale>
<asrwt>0</asrwt>
<pdfrwt beam="2">  1        1 0.20831534E-01 0.89116958E+02</pdfrwt>
<pdfrwt beam="1">  1       -1 0.22558631E-02 0.89116958E+02</pdfrwt>
<totfact> 0.11706614E+05</totfact>
</mgrwt>
</event>
<event>
 5   1  0.1357339E+00  0.9196217E+02  0.7818608E-02  0.1298168E+00
         -1   -1    0    0    0  501 -0.00000000000E+00  0.00000000000E+00  0.10392572449E+03  0.10392572459E+03  0.46700000000E-02 0.  1.
          1   -1    0    0  501    0  0.00000000000E+00 -0.00000000000E+00 -0.20343953915E+02  0.20343954451E+02  0.46700000000E-02 0. -1.
         23    2    1    2    0    0  0.00000000000E+00  0.00000000000E+00  0.83581770574E+02  0.12426967905E+03  0.91962170254E+02 0.  0.
        -11    1    3    3    0    0  0.43705423851E+02 -0.92784956159E+01  0.56470252569E+02  0.72007943869E+02  0.51100000000E-03 0.  1.
         11    1    3    3    0    0 -0.43705423851E+02  0.92784956159E+01  0.27111518005E+02  0.52261735177E+02  0.51100000000E-03 0. -1.
<mgrwt>
<rscale>  0 0.91962170E+02</rscale>
<asrwt>0</asrwt>
<pdfrwt beam="2">  1        1 0.31298391E-02 0.91962170E+02</pdfrwt>
<pdfrwt beam="1">  1       -1 0.15988573E-01 0.91962170E+02</pdfrwt>
<totfact> 0.79016354E+04</totfact>
</mgrwt>
</event>
<event>
 5   1  0.1357339E+00  0.8790108E+02  0.7818608E-02  0.1308016E+00
          1   -1    0    0  501    0  0.00000000000E+00  0.00000000000E+00  0.50785038818E+02  0.50785039033E+02  0.46700000000E-02 0. -1.
         -1   -1    0    0    0  501 -0.00000000000E+00 -0.00000000000E+00 -0.38035807112E+02  0.38035807398E+02  0.46700000000E-02 0.  1.
         23    2    1    2    0    0  0.00000000000E+00  0.00000000000E+00  0.12749231706E+02  0.88820846431E+02  0.87901079923E+02 0.  0.
        -11    1    3    3    0    0 -0.25645429922E+02 -0.26976052380E+02  0.29991261026E+02  0.47800326527E+02  0.51100000000E-03 0. -1.
         11    1    3    3    0    0  0.25645429922E+02  0.26976052380E+02 -0.17242029320E+02  0.41020519904E+02  0.51100000000E-03 0.  1.
<mgrwt>
<rscale>  0 0.87901080E+02</rscale>
<asrwt>0</asrwt>
<pdfrwt beam="1">  1        1 0.78130828E-02 0.87901080E+02</pdfrwt>
<pdfrwt beam="2">  1       -1 0.58516627E-02 0.87901080E+02</pdfrwt>
<totfact> 0.10405630E+05</totfact>
</mgrwt>
</event>
<event>
 5   1  0.1357339E+00  0.9109537E+02  0.7818608E-02  0.1300221E+00
         -1   -1    0    0    0  501 -0.00000000000E+00  0.00000000000E+00  0.19366488629E+03  0.19366488635E+03  0.46700000000E-02 0.  1.
          1   -1    0    0  501    0  0.00000000000E+00 -0.00000000000E+00 -0.10712273950E+02  0.10712274968E+02  0.46700000000E-02 0. -1.
         23    2    1    2    0    0  0.00000000000E+00  0.00000000000E+00  0.18295261234E+03  0.20437716132E+03  0.91095365989E+02 0.  0.
        -11    1    3    3    0    0  0.16364988251E+01 -0.44592016247E+02  0.11197325784E+03  0.12053686786E+03  0.51100000000E-03 0.  1.
         11    1    3    3    0    0 -0.16364988251E+01  0.44592016247E+02  0.70979354507E+02  0.83840293463E+02  0.51100000000E-03 0. -1.
<mgrwt>
<rscale>  0 0.91095366E+02</rscale>
<asrwt>0</asrwt>
<pdfrwt beam="2">  1        1 0.16480421E-02 0.91095366E+02</pdfrwt>
<pdfrwt beam="1">  1       -1 0.29794599E-01 0.91095366E+02</pdfrwt>
<totfact> 0.70222776E+04</totfact>
</mgrwt>
</event>
<event>
 5   1  0.1357339E+00  0.8941479E+02  0.7818608E-02  0.1304275E+00
          1   -1    0    0  501    0  0.00000000000E+00  0.00000000000E+00  0.10272433625E+03  0.10272433635E+03  0.46700000000E-02 0. -1.
         -1   -1    0    0    0  501 -0.00000000000E+00 -0.00000000000E+00 -0.19457425684E+02  0.19457426244E+02  0.46700000000E-02 0.  1.
         23    2    1    2    0    0  0.00000000000E+00  0.00000000000E+00  0.83266910564E+02  0.12218176260E+03  0.89414790258E+02 0.  0.
        -11    1    3    3    0    0  0.37140423253E+02  0.24006434299E+02  0.32669720177E+02  0.54982092938E+02  0.51100000000E-03 0.  1.
         11    1    3    3    0    0 -0.37140423253E+02 -0.24006434299E+02  0.50597190387E+02  0.67199669661E+02  0.51100000000E-03 0. -1.
<mgrwt>
<rscale>  0 0.89414790E+02</rscale>
<asrwt>0</asrwt>
<pdfrwt beam="1">  1        1 0.15803744E-01 0.89414790E+02</pdfrwt>
<pdfrwt beam="2">  1       -1 0.29934502E-02 0.89414790E+02</pdfrwt>
<totfact> 0.11063742E+05</totfact>
</mgrwt>
</event>
<event>
 5   1  0.1357339E+00  0.9239891E+02  0.7818608E-02  0.1297144E+00
         -1   -1    0    0    0  501 -0.00000000000E+00  0.00000000000E+00  0.13638116568E+03  0.13638116576E+03  0.46700000000E-02 0. -1.
          1   -1    0    0  501    0  0.00000000000E+00 -0.00000000000E+00 -0.15650177425E+02  0.15650178122E+02  0.46700000000E-02 0.  1.
         23    2    1    2    0    0  0.00000000000E+00  0.00000000000E+00  0.12073098825E+03  0.15203134388E+03  0.92398906906E+02 0.  0.
        -11    1    3    3    0    0 -0.97895757758E+01  0.25702164552E+02  0.12144329834E+03  0.12451872055E+03  0.51100000000E-03 0. -1.
         11    1    3    3    0    0  0.97895757758E+01 -0.25702164552E+02 -0.71231008416E+00  0.27512623329E+02  0.51100000000E-03 0.  1.
<mgrwt>
<rscale>  0 0.92398907E+02</rscale>
<asrwt>0</asrwt>
<pdfrwt beam="2">  1        1 0.24077197E-02 0.92398907E+02</pdfrwt>
<pdfrwt beam="1">  1       -1 0.20981717E-01 0.92398907E+02</pdfrwt>
<totfact> 0.73828993E+04</totfact>
</mgrwt>
</event>
<event>
 5   1  0.1357339E+00  0.9202105E+02  0.7818608E-02  0.1298030E+00
          1   -1    0    0  501    0  0.00000000000E+00  0.00000000000E+00  0.19188569657E+02  0.19188570225E+02  0.46700000000E-02 0. -1.
         -1   -1    0    0    0  501 -0.00000000000E+00 -0.00000000000E+00 -0.11032444421E+03  0.11032444431E+03  0.46700000000E-02 0.  1.
         23    2    1    2    0    0  0.00000000000E+00  0.00000000000E+00 -0.91135874557E+02  0.12951301454E+03  0.92021048155E+02 0.  0.
        -11    1    3    3    0    0 -0.28557072480E+02  0.25503559261E+02 -0.96569891762E+01  0.39486647918E+02  0.51100000000E-03 0.  1.
         11    1    3    3    0    0  0.28557072480E+02 -0.25503559261E+02 -0.81478885381E+02  0.90026366620E+02  0.51100000000E-03 0. -1.
<mgrwt>
<rscale>  0 0.92021048E+02</rscale>
<asrwt>0</asrwt>
<pdfrwt beam="1">  1        1 0.29520877E-02 0.92021048E+02</pdfrwt>
<pdfrwt beam="2">  1       -1 0.16972991E-01 0.92021048E+02</pdfrwt>
<totfact> 0.77982085E+04</totfact>
</mgrwt>
</event>
<event>
 4   1  0.1357339E+00  0.4774905E+02  0.7818608E-02  0.1457875E+00
         -1   -1    0    0    0  501 -0.00000000000E+00  0.00000000000E+00  0.21621004144E+02  0.21621004648E+02  0.46700000000E-02 0. -1.
          1   -1    0    0  501    0  0.00000000000E+00 -0.00000000000E+00 -0.26362930483E+02  0.26362930896E+02  0.46700000000E-02 0.  1.
        -11    1    1    2    0    0  0.21595115810E+02  0.16112799311E+01 -0.12472664464E+02  0.24990250278E+02  0.51100000000E-03 0.  1.
         11    1    1    2    0    0 -0.21595115810E+02 -0.16112799311E+01  0.77307381256E+01  0.22993685266E+02  0.51100000000E-03 0. -1.
<mgrwt>
<rscale>  0 0.47749054E+02</rscale>
<asrwt>0</asrwt>
<pdfrwt beam="2">  1        1 0.40558355E-02 0.47749054E+02</pdfrwt>
<pdfrwt beam="1">  1       -1 0.33263084E-02 0.47749054E+02</pdfrwt>
<totfact> 0.49507341E+05</totfact>
</mgrwt>
</event>
<event>
 5   1  0.1357339E+00  0.8412167E+02  0.7818608E-02  0.1317746E+00
         -1   -1    0    0    0  501 -0.00000000000E+00  0.00000000000E+00  0.12647704016E+02  0.12647704878E+02  0.46700000000E-02 0.  1.
          1   -1    0    0  501    0  0.00000000000E+00 -0.00000000000E+00 -0.13987626264E+03  0.13987626272E+03  0.46700000000E-02 0. -1.
         23    2    1    2    0    0  0.00000000000E+00  0.00000000000E+00 -0.12722855862E+03  0.15252396760E+03  0.84121665233E+02 0.  0.
        -11    1    3    3    0    0  0.29077750156E+01  0.40310923449E+02 -0.84734616612E+02  0.93879608849E+02  0.51100000000E-03 0. -1.
         11    1    3    3    0    0 -0.29077750156E+01 -0.40310923449E+02 -0.42493942012E+02  0.58644358747E+02  0.51100000000E-03 0.  1.
<mgrwt>
<rscale>  0 0.84121665E+02</rscale>
<asrwt>0</asrwt>
<pdfrwt beam="2">  1        1 0.21519424E-01 0.84121665E+02</pdfrwt>
<pdfrwt beam="1">  1       -1 0.19458008E-02 0.84121665E+02</pdfrwt>
<totfact> 0.13746496E+05</totfact>
</mgrwt>
</event>
<event>
 5   1  0.1357339E+00  0.8875644E+02  0.7818608E-02  0.1305891E+00
         -1   -1    0    0    0  501 -0.00000000000E+00  0.00000000000E+00  0.25690981085E+03  0.25690981089E+03  0.46700000000E-02 0.  1.
          1   -1    0    0  501    0  0.00000000000E+00 -0.00000000000E+00 -0.76658263793E+01  0.76658278017E+01  0.46700000000E-02 0. -1.
         23    2    1    2    0    0  0.00000000000E+00  0.00000000000E+00  0.24924398447E+03  0.26457563869E+03  0.88756435234E+02 0.  0.
        -11    1    3    3    0    0  0.39164718171E+02 -0.11577345659E+02  0.72860681229E+02  0.83525977704E+02  0.51100000000E-03 0. -1.
         11    1    3    3    0    0 -0.39164718171E+02  0.11577345659E+02  0.17638330324E+03  0.18104966099E+03  0.51100000000E-03 0.  1.
<mgrwt>
<rscale>  0 0.88756435E+02</rscale>
<asrwt>0</asrwt>
<pdfrwt beam="2">  1        1 0.11793581E-02 0.88756435E+02</pdfrwt>
<pdfrwt beam="1">  1       -1 0.39524584E-01 0.88756435E+02</pdfrwt>
<totfact> 0.68826615E+04</totfact>
</mgrwt>
</event>
<event>
 5   1  0.1357339E+00  0.8971056E+02  0.7818608E-02  0.1303554E+00
          1   -1    0    0  501    0  0.00000000000E+00  0.00000000000E+00  0.85551010719E+02  0.85551010846E+02  0.46700000000E-02 0. -1.
         -1   -1    0    0    0  501 -0.00000000000E+00 -0.00000000000E+00 -0.23518086715E+02  0.23518087179E+02  0.46700000000E-02 0.  1.
         23    2    1    2    0    0  0.00000000000E+00  0.00000000000E+00  0.62032924003E+02  0.10906909802E+03  0.89710559488E+02 0.  0.
        -11    1    3    3    0    0  0.30410585573E+02 -0.27026860932E+02  0.80531362242E+01  0.41474183899E+02  0.51100000000E-03 0.  1.
         11    1    3    3    0    0 -0.30410585573E+02  0.27026860932E+02  0.53979787779E+02  0.67594914126E+02  0.51100000000E-03 0. -1.
<mgrwt>
<rscale>  0 0.89710559E+02</rscale>
<asrwt>0</asrwt>
<pdfrwt beam="1">  1        1 0.13161694E-01 0.89710559E+02</pdfrwt>
<pdfrwt beam="2">  1       -1 0.36181673E-02 0.89710559E+02</pdfrwt>
<totfact> 0.10643906E+05</totfact>
</mgrwt>
</event>
<event>
 5   1  0.1357339E+00  0.9004909E+02  0.7818608E-02  0.1302733E+00
         -1   -1    0    0    0  501 -0.00000000000E+00  0.00000000000E+00  0.13515350196E+02  0.13515351003E+02  0.46700000000E-02 0.  1.
          1   -1    0    0  501    0  0.00000000000E+00 -0.00000000000E+00 -0.14999311325E+03  0.14999311333E+03  0.46700000000E-02 0. -1.
         23    2    1    2    0    0  0.00000000000E+00  0.00000000000E+00 -0.13647776306E+03  0.16350846433E+03  0.90049087159E+02 0.  0.
        -11    1    3    3    0    0 -0.29211191066E+02  0.33466986749E+02 -0.81566764524E+02  0.92878791771E+02  0.51100000000E-03 0. -1.
         11    1    3    3    0    0  0.29211191066E+02 -0.33466986749E+02 -0.54910998532E+02  0.70629672558E+02  0.51100000000E-03 0.  1.
<mgrwt>
<rscale>  0 0.90049087E+02</rscale>
<asrwt>0</asrwt>
<pdfrwt beam="2">  1        1 0.23075862E-01 0.90049087E+02</pdfrwt>
<pdfrwt beam="1">  1       -1 0.20792848E-02 0.90049087E+02</pdfrwt>
<totfact> 0.11595532E+05</totfact>
</mgrwt>
</event>
<event>
 5   1  0.1357339E+00  0.8536426E+02  0.7818608E-02  0.1314483E+00
          1   -1    0    0  501    0  0.00000000000E+00  0.00000000000E+00  0.27373628970E+03  0.27373628974E+03  0.46700000000E-02 0. -1.
         -1   -1    0    0    0  501 -0.00000000000E+00 -0.00000000000E+00 -0.66551791736E+01  0.66551808121E+01  0.46700000000E-02 0.  1.
         23    2    1    2    0    0  0.00000000000E+00  0.00000000000E+00  0.26708111053E+03  0.28039147055E+03  0.85364261598E+02 0.  0.
        -11    1    3    3    0    0  0.19120191437E+02 -0.35057981066E+02  0.84039220554E+02  0.93044260160E+02  0.51100000000E-03 0.  1.
         11    1    3    3    0    0 -0.19120191437E+02  0.35057981066E+02  0.18304188997E+03  0.18734721039E+03  0.51100000000E-03 0. -1.
<mgrwt>
<rscale>  0 0.85364262E+02</rscale>
<asrwt>0</asrwt>
<pdfrwt beam="1">  1        1 0.42113274E-01 0.85364262E+02</pdfrwt>
<pdfrwt beam="2">  1       -1 0.10238739E-02 0.85364262E+02</pdfrwt>
<totfact> 0.14996044E+05</totfact>
</mgrwt>
</event>
<event>
 5   1  0.1357339E+00  0.1005913E+03  0.7818608E-02  0.1279057E+00
          1   -1    0    0  501    0  0.00000000000E+00  0.00000000000E+00  0.46740352573E+02  0.46740352807E+02  0.46700000000E-02 0. -1.
         -1   -1    0    0    0  501 -0.00000000000E+00 -0.00000000000E+00 -0.54121415077E+02  0.54121415279E+02  0.46700000000E-02 0.  1.
         23    2    1    2    0    0  0.00000000000E+00  0.00000000000E+00 -0.73810625037E+01  0.10086176809E+03  0.10059133252E+03 0.  0.
        -11    1    3    3    0    0  0.28891745072E+01 -0.23195804242E+02  0.40963018939E+02  0.47163137986E+02  0.51100000000E-03 0. -1.
         11    1    3    3    0    0 -0.28891745072E+01  0.23195804242E+02 -0.48344081443E+02  0.53698630100E+02  0.51100000000E-03 0.  1.
<mgrwt>
<rscale>  0 0.10059133E+03</rscale>
<asrwt>0</asrwt>
<pdfrwt beam="1">  1        1 0.71908235E-02 0.10059133E+03</pdfrwt>
<pdfrwt beam="2">  1       -1 0.83263716E-02 0.10059133E+03</pdfrwt>
<totfact> 0.70296013E+04</totfact>
</mgrwt>
</event>
<event>
 5   1  0.1357339E+00  0.9052463E+02  0.7818608E-02  0.1301586E+00
          1   -1    0    0  501    0  0.00000000000E+00  0.00000000000E+00  0.79093160490E+01  0.79093174276E+01  0.46700000000E-02 0. -1.
         -1   -1    0    0    0  501 -0.00000000000E+00 -0.00000000000E+00 -0.25902073473E+03  0.25902073477E+03  0.46700000000E-02 0.  1.
         23    2    1    2    0    0  0.00000000000E+00  0.00000000000E+00 -0.25111141868E+03  0.26693005220E+03  0.90524627451E+02 0.  0.
        -11    1    3    3    0    0 -0.24291374467E+02 -0.36502076144E+02 -0.92429760250E+02  0.10230216526E+03  0.51100000000E-03 0.  1.
         11    1    3    3    0    0  0.24291374467E+02  0.36502076144E+02 -0.15868165843E+03  0.16462788694E+03  0.51100000000E-03 0. -1.
<mgrwt>
<rscale>  0 0.90524627E+02</rscale>
<asrwt>0</asrwt>
<pdfrwt beam="1">  1        1 0.12168182E-02 0.90524627E+02</pdfrwt>
<pdfrwt beam="2">  1       -1 0.39849337E-01 0.90524627E+02</pdfrwt>
<totfact> 0.65190427E+04</totfact>
</mgrwt>
</event>
<event>
 5   1  0.1357339E+00  0.9075445E+02  0.7818608E-02  0.1301035E+00
         -1   -1    0    0    0  501 -0.00000000000E+00  0.00000000000E+00  0.28524729049E+02  0.28524729432E+02  0.46700000000E-02 0.  1.
          1   -1    0    0  501    0  0.00000000000E+00 -0.00000000000E+00 -0.72186231396E+02  0.72186231547E+02  0.46700000000E-02 0. -1.
         23    2    1    2    0    0  0.00000000000E+00  0.00000000000E+00 -0.43661502347E+02  0.10071096098E+03  0.90754453743E+02 0.  0.
        -11    1    3    3    0    0 -0.15445850322E+02 -0.22422459856E+02  0.18452599672E+02  0.32891327627E+02  0.51100000000E-03 0.  1.
         11    1    3    3    0    0  0.15445850322E+02  0.22422459856E+02 -0.62114102018E+02  0.67819633352E+02  0.51100000000E-03 0. -1.
<mgrwt>
<rscale>  0 0.90754454E+02</rscale>
<asrwt>0</asrwt>
<pdfrwt beam="2">  1        1 0.11105574E-01 0.90754454E+02</pdfrwt>
<pdfrwt beam="1">  1       -1 0.43884199E-02 0.90754454E+02</pdfrwt>
<totfact> 0.10041305E+05</totfact>
</mgrwt>
</event>
<event>
 5   1  0.1357339E+00  0.9133010E+02  0.7818608E-02  0.1299662E+00
          1   -1    0    0  501    0  0.00000000000E+00  0.00000000000E+00  0.30786520049E+02  0.30786520403E+02  0.46700000000E-02 0. -1.
         -1   -1    0    0    0  501 -0.00000000000E+00 -0.00000000000E+00 -0.67734091181E+02  0.67734091342E+02  0.46700000000E-02 0.  1.
         23    2    1    2    0    0  0.00000000000E+00  0.00000000000E+00 -0.36947571132E+02  0.98520611746E+02  0.91330104162E+02 0.  0.
        -11    1    3    3    0    0  0.25505543753E+01 -0.16239654124E+02 -0.64431589971E+02  0.66495574892E+02  0.51100000000E-03 0.  1.
         11    1    3    3    0    0 -0.25505543753E+01  0.16239654124E+02  0.27484018839E+02  0.32025036854E+02  0.51100000000E-03 0. -1.
<mgrwt>
<rscale>  0 0.91330104E+02</rscale>
<asrwt>0</asrwt>
<pdfrwt beam="1">  1        1 0.47363878E-02 0.91330104E+02</pdfrwt>
<pdfrwt beam="2">  1       -1 0.10420629E-01 0.91330104E+02</pdfrwt>
<totfact> 0.86627283E+04</totfact>
</mgrwt>
</event>
<event>
 5   1  0.1357339E+00  0.9091461E+02  0.7818608E-02  0.1300652E+00
          1   -1    0    0  501    0  0.00000000000E+00  0.00000000000E+00  0.33456695218E+02  0.33456695544E+02  0.46700000000E-02 0. -1.
         -1   -1    0    0    0  501 -0.00000000000E+00 -0.00000000000E+00 -0.61762416989E+02  0.61762417166E+02  0.46700000000E-02 0.  1.
         23    2    1    2    0    0  0.00000000000E+00  0.00000000000E+00 -0.28305721771E+02  0.95219112710E+02  0.90914605759E+02 0.  0.
        -11    1    3    3    0    0  0.40189879507E+02 -0.19943934440E+02 -0.21804905860E+02  0.49884274632E+02  0.51100000000E-03 0.  1.
         11    1    3    3    0    0 -0.40189879507E+02  0.19943934440E+02 -0.65008159110E+01  0.45334838078E+02  0.51100000000E-03 0. -1.
<mgrwt>
<rscale>  0 0.90914606E+02</rscale>
<asrwt>0</asrwt>
<pdfrwt beam="1">  1        1 0.51471839E-02 0.90914606E+02</pdfrwt>
<pdfrwt beam="2">  1       -1 0.95019104E-02 0.90914606E+02</pdfrwt>
<totfact> 0.88928187E+04</totfact>
</mgrwt>
</event>
<event>
 5   1  0.1357339E+00  0.8982904E+02  0.7818608E-02  0.1303266E+00
         -1   -1    0    0    0  501 -0.00000000000E+00  0.00000000000E+00  0.30106542482E+03  0.30106542485E+03  0.46700000000E-02 0.  1.
          1   -1    0    0  501    0  0.00000000000E+00 -0.00000000000E+00 -0.67005823843E+01  0.67005840117E+01  0.46700000000E-02 0. -1.
         23    2    1    2    0    0  0.00000000000E+00  0.00000000000E+00  0.29436484243E+03  0.30776600886E+03  0.89829036242E+02 0.  0.
        -11    1    3    3    0    0  0.32339472043E+02 -0.19891931396E+02  0.64970738156E+02  0.75251094367E+02  0.51100000000E-03 0. -1.
         11    1    3    3    0    0 -0.32339472043E+02  0.19891931396E+02  0.22939410428E+03  0.23251491450E+03  0.51100000000E-03 0.  1.
<mgrwt>
<rscale>  0 0.89829036E+02</rscale>
<asrwt>0</asrwt>
<pdfrwt beam="2">  1        1 0.10308590E-02 0.89829036E+02</pdfrwt>
<pdfrwt beam="1">  1       -1 0.46317757E-01 0.89829036E+02</pdfrwt>
<totfact> 0.62902138E+04</totfact>
</mgrwt>
</event>
<event>
 5   1  0.1357339E+00  0.9092636E+02  0.7818608E-02  0.1300624E+00
          1   -1    0    0  501    0  0.00000000000E+00  0.00000000000E+00  0.45671025593E+02  0.45671025832E+02  0.46700000000E-02 0. -1.
         -1   -1    0    0    0  501 -0.00000000000E+00 -0.00000000000E+00 -0.45256275464E+02  0.45256275705E+02  0.46700000000E-02 0.  1.
         23    2    1    2    0    0  0.00000000000E+00  0.00000000000E+00  0.41475012919E+00  0.90927301536E+02  0.90926355624E+02 0.  0.
        -11    1    3    3    0    0  0.27406032039E+02  0.32475254455E+02 -0.15953479689E+02  0.45389935652E+02  0.51100000000E-03 0. -1.
         11    1    3    3    0    0 -0.27406032039E+02 -0.32475254455E+02  0.16368229818E+02  0.45537365884E+02  0.51100000000E-03 0.  1.
<mgrwt>
<rscale>  0 0.90926356E+02</rscale>
<asrwt>0</asrwt>
<pdfrwt beam="1">  1        1 0.70263117E-02 0.90926356E+02</pdfrwt>
<pdfrwt beam="2">  1       -1 0.69625040E-02 0.90926356E+02</pdfrwt>
<totfact> 0.93214378E+04</totfact>
</mgrwt>
</event>
<event>
 5   1  0.1357339E+00  0.8988143E+02  0.7818608E-02  0.1303139E+00
          1   -1    0    0  501    0  0.00000000000E+00  0.00000000000E+00  0.45986161271E+02  0.45986161508E+02  0.46700000000E-02 0. -1.
         -1   -1    0    0    0  501 -0.00000000000E+00 -0.00000000000E+00 -0.43919038434E+02  0.43919038682E+02  0.46700000000E-02 0.  1.
         23    2    1    2    0    0  0.00000000000E+00  0.00000000000E+00  0.20671228373E+01  0.89905200190E+02  0.89881433146E+02 0.  0.
        -11    1    3    3    0    0 -0.41075607426E+02  0.25849496947E+01 -0.17020602320E+02  0.44537494249E+02  0.51100000000E-03 0.  1.
         11    1    3    3    0    0  0.41075607426E+02 -0.25849496947E+01  0.19087725158E+02  0.45367705941E+02  0.51100000000E-03 0. -1.
<mgrwt>
<rscale>  0 0.89881433E+02</rscale>
<asrwt>0</asrwt>
<pdfrwt beam="1">  1        1 0.70747941E-02 0.89881433E+02</pdfrwt>
<pdfrwt beam="2">  1       -1 0.67567752E-02 0.89881433E+02</pdfrwt>
<totfact> 0.96378779E+04</totfact>
</mgrwt>
</event>
<event>
 5   1  0.1357339E+00  0.9195093E+02  0.7818608E-02  0.1298195E+00
         -1   -1    0    0    0  501 -0.00000000000E+00  0.00000000000E+00  0.92001779380E+01  0.92001791232E+01  0.46700000000E-02 0.  1.
          1   -1    0    0  501    0  0.00000000000E+00 -0.00000000000E+00 -0.22975027628E+03  0.22975027633E+03  0.46700000000E-02 0. -1.
         23    2    1    2    0    0  0.00000000000E+00  0.00000000000E+00 -0.22055009834E+03  0.23895045545E+03  0.91950934098E+02 0.  0.
        -11    1    3    3    0    0  0.34979837115E+02 -0.99707549798E+01 -0.18334994246E+03  0.18692299581E+03  0.51100000000E-03 0. -1.
         11    1    3    3    0    0 -0.34979837115E+02  0.99707549798E+01 -0.37200155881E+02  0.52027459647E+02  0.51100000000E-03 0.  1.
<mgrwt>
<rscale>  0 0.91950934E+02</rscale>
<asrwt>0</asrwt>
<pdfrwt beam="2">  1        1 0.35346192E-01 0.91950934E+02</pdfrwt>
<pdfrwt beam="1">  1       -1 0.14154123E-02 0.91950934E+02</pdfrwt>
<totfact> 0.11892531E+05</totfact>
</mgrwt>
</event>
<event>
 5   1  0.1357339E+00  0.9106453E+02  0.7818608E-02  0.1300294E+00
         -1   -1    0    0    0  501 -0.00000000000E+00  0.00000000000E+00  0.12758820100E+03  0.12758820109E+03  0.46700000000E-02 0.  1.
          1   -1    0    0  501    0  0.00000000000E+00 -0.00000000000E+00 -0.16249050214E+02  0.16249050885E+02  0.46700000000E-02 0. -1.
         23    2    1    2    0    0  0.00000000000E+00  0.00000000000E+00  0.11133915079E+03  0.14383725197E+03  0.91064529631E+02 0.  0.
        -11    1    3    3    0    0  0.31541385505E+02  0.17712733494E+02  0.99344849913E+02  0.10572605702E+03  0.51100000000E-03 0.  1.
         11    1    3    3    0    0 -0.31541385505E+02 -0.17712733494E+02  0.11994300877E+02  0.38111194959E+02  0.51100000000E-03 0. -1.
<mgrwt>
<rscale>  0 0.91064530E+02</rscale>
<asrwt>0</asrwt>
<pdfrwt beam="2">  1        1 0.24998539E-02 0.91064530E+02</pdfrwt>
<pdfrwt beam="1">  1       -1 0.19628955E-01 0.91064530E+02</pdfrwt>
<totfact> 0.77781833E+04</totfact>
</mgrwt>
</event>
<event>
 5   1  0.1357339E+00  0.8955589E+02  0.7818608E-02  0.1303931E+00
          1   -1    0    0  501    0  0.00000000000E+00  0.00000000000E+00  0.17663769553E+03  0.17663769560E+03  0.46700000000E-02 0. -1.
         -1   -1    0    0    0  501 -0.00000000000E+00 -0.00000000000E+00 -0.11351280741E+02  0.11351281702E+02  0.46700000000E-02 0.  1.
         23    2    1    2    0    0  0.00000000000E+00  0.00000000000E+00  0.16528641479E+03  0.18798897730E+03  0.89555885737E+02 0.  0.
        -11    1    3    3    0    0  0.41254295703E+02 -0.73773660504E+01  0.49538091632E+02  0.64887325161E+02  0.51100000000E-03 0.  1.
         11    1    3    3    0    0 -0.41254295703E+02  0.73773660504E+01  0.11574832316E+03  0.12310165214E+03  0.51100000000E-03 0. -1.
<mgrwt>
<rscale>  0 0.89555886E+02</rscale>
<asrwt>0</asrwt>
<pdfrwt beam="1">  1        1 0.27175031E-01 0.89555886E+02</pdfrwt>
<pdfrwt beam="2">  1       -1 0.17463509E-02 0.89555886E+02</pdfrwt>
<totfact> 0.12131065E+05</totfact>
</mgrwt>
</event>
<event>
 5   1  0.1357339E+00  0.8688317E+02  0.7818608E-02  0.1310580E+00
         -1   -1    0    0    0  501 -0.00000000000E+00  0.00000000000E+00  0.97078338695E+01  0.97078349927E+01  0.46700000000E-02 0.  1.
          1   -1    0    0  501    0  0.00000000000E+00 -0.00000000000E+00 -0.19439671616E+03  0.19439671621E+03  0.46700000000E-02 0. -1.
         23    2    1    2    0    0  0.00000000000E+00  0.00000000000E+00 -0.18468888229E+03  0.20410455121E+03  0.86883166277E+02 0.  0.
        -11    1    3    3    0    0 -0.29497311827E+02 -0.25057394107E+02 -0.45998978046E+02  0.60115475429E+02  0.51100000000E-03 0.  1.
         11    1    3    3    0    0  0.29497311827E+02  0.25057394107E+02 -0.13868990424E+03  0.14398907578E+03  0.51100000000E-03 0. -1.
<mgrwt>
<rscale>  0 0.86883166E+02</rscale>
<asrwt>0</asrwt>
<pdfrwt beam="2">  1        1 0.29907184E-01 0.86883166E+02</pdfrwt>
<pdfrwt beam="1">  1       -1 0.14935131E-02 0.86883166E+02</pdfrwt>
<totfact> 0.13397053E+05</totfact>
</mgrwt>
</event>
<event>
 5   1  0.1357339E+00  0.9035972E+02  0.7818608E-02  0.1301983E+00
         -1   -1    0    0    0  501 -0.00000000000E+00  0.00000000000E+00  0.17742224201E+03  0.17742224207E+03  0.46700000000E-02 0.  1.
          1   -1    0    0  501    0  0.00000000000E+00 -0.00000000000E+00 -0.11504870140E+02  0.11504871088E+02  0.46700000000E-02 0. -1.
         23    2    1    2    0    0  0.00000000000E+00  0.00000000000E+00  0.16591737187E+03  0.18892711316E+03  0.90359724427E+02 0.  0.
        -11    1    3    3    0    0 -0.11463254999E+02  0.26626980055E+02  0.10505426919E+02  0.30834498165E+02  0.51100000000E-03 0. -1.
         11    1    3    3    0    0  0.11463254999E+02 -0.26626980055E+02  0.15541194495E+03  0.15809261499E+03  0.51100000000E-03 0.  1.
<mgrwt>
<rscale>  0 0.90359724E+02</rscale>
<asrwt>0</asrwt>
<pdfrwt beam="2">  1        1 0.17699802E-02 0.90359724E+02</pdfrwt>
<pdfrwt beam="1">  1       -1 0.27295728E-01 0.90359724E+02</pdfrwt>
<totfact> 0.73440592E+04</totfact>
</mgrwt>
</event>
<event>
 5   1  0.1357339E+00  0.9249419E+02  0.7818608E-02  0.1296922E+00
          1   -1    0    0  501    0  0.00000000000E+00  0.00000000000E+00  0.18736767405E+02  0.18736767987E+02  0.46700000000E-02 0. -1.
         -1   -1    0    0    0  501 -0.00000000000E+00 -0.00000000000E+00 -0.11414955375E+03  0.11414955384E+03  0.46700000000E-02 0.  1.
         23    2    1    2    0    0  0.00000000000E+00  0.00000000000E+00 -0.95412786341E+02  0.13288632183E+03  0.92494187556E+02 0.  0.
        -11    1    3    3    0    0 -0.61220807696E+00 -0.46191896119E+02 -0.50830220175E+02  0.68686078277E+02  0.51100000000E-03 0. -1.
         11    1    3    3    0    0  0.61220807696E+00  0.46191896119E+02 -0.44582566166E+02  0.64200243551E+02  0.51100000000E-03 0.  1.
<mgrwt>
<rscale>  0 0.92494188E+02</rscale>
<asrwt>0</asrwt>
<pdfrwt beam="1">  1        1 0.28825797E-02 0.92494188E+02</pdfrwt>
<pdfrwt beam="2">  1       -1 0.17561470E-01 0.92494188E+02</pdfrwt>
<totfact> 0.76437973E+04</totfact>
</mgrwt>
</event>
<event>
 5   1  0.1357339E+00  0.9469310E+02  0.7818608E-02  0.1291869E+00
         -1   -1    0    0    0  501 -0.00000000000E+00  0.00000000000E+00  0.27381093283E+03  0.27381093287E+03  0.46700000000E-02 0.  1.
          1   -1    0    0  501    0  0.00000000000E+00 -0.00000000000E+00 -0.81870206551E+01  0.81870219870E+01  0.46700000000E-02 0. -1.
         23    2    1    2    0    0  0.00000000000E+00  0.00000000000E+00  0.26562391217E+03  0.28199795486E+03  0.94693103362E+02 0.  0.
        -11    1    3    3    0    0 -0.11527770197E+02 -0.37687591906E+02  0.21095033662E+03  0.21460029961E+03  0.51100000000E-03 0.  1.
         11    1    3    3    0    0  0.11527770197E+02  0.37687591906E+02  0.54673575551E+02  0.67397655250E+02  0.51100000000E-03 0. -1.
<mgrwt>
<rscale>  0 0.94693103E+02</rscale>
<asrwt>0</asrwt>
<pdfrwt beam="2">  1        1 0.12595418E-02 0.94693103E+02</pdfrwt>
<pdfrwt beam="1">  1       -1 0.42124756E-01 0.94693103E+02</pdfrwt>
<totfact> 0.56806477E+04</totfact>
</mgrwt>
</event>
<event>
 5   1  0.1357339E+00  0.8983942E+02  0.7818608E-02  0.1303241E+00
          1   -1    0    0  501    0  0.00000000000E+00  0.00000000000E+00  0.90860136584E+02  0.90860136704E+02  0.46700000000E-02 0. -1.
         -1   -1    0    0    0  501 -0.00000000000E+00 -0.00000000000E+00 -0.22207542181E+02  0.22207542672E+02  0.46700000000E-02 0.  1.
         23    2    1    2    0    0  0.00000000000E+00  0.00000000000E+00  0.68652594403E+02  0.11306767938E+03  0.89839420085E+02 0.  0.
        -11    1    3    3    0    0 -0.36746946373E+02 -0.94796684092E+01  0.40796720781E+01  0.38168650819E+02  0.51100000000E-03 0.  1.
         11    1    3    3    0    0  0.36746946373E+02  0.94796684092E+01  0.64572922325E+02  0.74899028556E+02  0.51100000000E-03 0. -1.
<mgrwt>
<rscale>  0 0.89839420E+02</rscale>
<asrwt>0</asrwt>
<pdfrwt beam="1">  1        1 0.13978483E-01 0.89839420E+02</pdfrwt>
<pdfrwt beam="2">  1       -1 0.34165450E-02 0.89839420E+02</pdfrwt>
<totfact> 0.10705017E+05</totfact>
</mgrwt>
</event>
<event>
 5   1  0.1357339E+00  0.8946951E+02  0.7818608E-02  0.1304141E+00
         -1   -1    0    0    0  501 -0.00000000000E+00  0.00000000000E+00  0.16575619455E+02  0.16575620113E+02  0.46700000000E-02 0. -1.
          1   -1    0    0  501    0  0.00000000000E+00 -0.00000000000E+00 -0.12073144090E+03  0.12073144099E+03  0.46700000000E-02 0.  1.
         23    2    1    2    0    0  0.00000000000E+00  0.00000000000E+00 -0.10415582144E+03  0.13730706110E+03  0.89469513734E+02 0.  0.
        -11    1    3    3    0    0 -0.27587401374E+02 -0.23311172171E+02 -0.92586570171E+02  0.99381831533E+02  0.51100000000E-03 0.  1.
         11    1    3    3    0    0  0.27587401374E+02  0.23311172171E+02 -0.11569251272E+02  0.37925229569E+02  0.51100000000E-03 0. -1.
<mgrwt>
<rscale>  0 0.89469514E+02</rscale>
<asrwt>0</asrwt>
<pdfrwt beam="2">  1        1 0.18574067E-01 0.89469514E+02</pdfrwt>
<pdfrwt beam="1">  1       -1 0.25500954E-02 0.89469514E+02</pdfrwt>
<totfact> 0.11351413E+05</totfact>
</mgrwt>
</event>
<event>
 5   1  0.1357339E+00  0.8926627E+02  0.7818608E-02  0.1304638E+00
         -1   -1    0    0    0  501 -0.00000000000E+00  0.00000000000E+00  0.13880434948E+02  0.13880435734E+02  0.46700000000E-02 0. -1.
          1   -1    0    0  501    0  0.00000000000E+00 -0.00000000000E+00 -0.14351974990E+03  0.14351974998E+03  0.46700000000E-02 0.  1.
         23    2    1    2    0    0  0.00000000000E+00  0.00000000000E+00 -0.12963931495E+03  0.15740018571E+03  0.89266267314E+02 0.  0.
        -11    1    3    3    0    0 -0.39358081104E+02 -0.14574638449E+02 -0.91597974797E+02  0.10075548432E+03  0.51100000000E-03 0.  1.
         11    1    3    3    0    0  0.39358081104E+02  0.14574638449E+02 -0.38041340156E+02  0.56644701387E+02  0.51100000000E-03 0. -1.
<mgrwt>
<rscale>  0 0.89266267E+02</rscale>
<asrwt>0</asrwt>
<pdfrwt beam="2">  1        1 0.22079961E-01 0.89266267E+02</pdfrwt>
<pdfrwt beam="1">  1       -1 0.21354517E-02 0.89266267E+02</pdfrwt>
<totfact> 0.11776350E+05</totfact>
</mgrwt>
</event>
<event>
 5   1  0.1357339E+00  0.9262751E+02  0.7818608E-02  0.1296611E+00
          1   -1    0    0  501    0  0.00000000000E+00  0.00000000000E+00  0.39332027567E+03  0.39332027570E+03  0.46700000000E-02 0. -1.
         -1   -1    0    0    0  501 -0.00000000000E+00 -0.00000000000E+00 -0.54534785145E+01  0.54534805141E+01  0.46700000000E-02 0.  1.
         23    2    1    2    0    0  0.00000000000E+00  0.00000000000E+00  0.38786679716E+03  0.39877375621E+03  0.92627513772E+02 0.  0.
        -11    1    3    3    0    0 -0.63532457271E+01 -0.44688413644E+02  0.14928727507E+03  0.15596188170E+03  0.51100000000E-03 0.  1.
         11    1    3    3    0    0  0.63532457271E+01  0.44688413644E+02  0.23857952209E+03  0.24281187451E+03  0.51100000000E-03 0. -1.
<mgrwt>
<rscale>  0 0.92627514E+02</rscale>
<asrwt>0</asrwt>
<pdfrwt beam="1">  1        1 0.60510812E-01 0.92627514E+02</pdfrwt>
<pdfrwt beam="2">  1       -1 0.83899685E-03 0.92627514E+02</pdfrwt>
<totfact> 0.12898763E+05</totfact>
</mgrwt>
</event>
<event>
 5   1  0.1357339E+00  0.9127110E+02  0.7818608E-02  0.1299802E+00
         -1   -1    0    0    0  501 -0.00000000000E+00  0.00000000000E+00  0.20947661215E+02  0.20947661736E+02  0.46700000000E-02 0.  1.
          1   -1    0    0  501    0  0.00000000000E+00 -0.00000000000E+00 -0.99419375663E+02  0.99419375772E+02  0.46700000000E-02 0. -1.
         23    2    1    2    0    0  0.00000000000E+00  0.00000000000E+00 -0.78471714447E+02  0.12036703751E+03  0.91271100301E+02 0.  0.
        -11    1    3    3    0    0 -0.43897666336E+01 -0.30155952021E+02  0.55631249671E+01  0.30977408753E+02  0.51100000000E-03 0.  1.
         11    1    3    3    0    0  0.43897666336E+01  0.30155952021E+02 -0.84034839414E+02  0.89389628755E+02  0.51100000000E-03 0. -1.
<mgrwt>
<rscale>  0 0.91271100E+02</rscale>
<asrwt>0</asrwt>
<pdfrwt beam="2">  1        1 0.15295288E-01 0.91271100E+02</pdfrwt>
<pdfrwt beam="1">  1       -1 0.32227172E-02 0.91271100E+02</pdfrwt>
<totfact> 0.10405685E+05</totfact>
</mgrwt>
</event>
<event>
 5   1  0.1357339E+00  0.9803749E+02  0.7818608E-02  0.1284478E+00
          1   -1    0    0  501    0  0.00000000000E+00  0.00000000000E+00  0.13713700663E+03  0.13713700671E+03  0.46700000000E-02 0. -1.
         -1   -1    0    0    0  501 -0.00000000000E+00 -0.00000000000E+00 -0.17521437767E+02  0.17521438389E+02  0.46700000000E-02 0.  1.
         23    2    1    2    0    0  0.00000000000E+00  0.00000000000E+00  0.11961556886E+03  0.15465844510E+03  0.98037494490E+02 0.  0.
        -11    1    3    3    0    0  0.44385301482E+01  0.34795824546E+02  0.57924525454E+01  0.35552812301E+02  0.51100000000E-03 0.  1.
         11    1    3    3    0    0 -0.44385301482E+01 -0.34795824546E+02  0.11382311632E+03  0.11910563280E+03  0.51100000000E-03 0. -1.
<mgrwt>
<rscale>  0 0.98037494E+02</rscale>
<asrwt>0</asrwt>
<pdfrwt beam="1">  1        1 0.21098001E-01 0.98037494E+02</pdfrwt>
<pdfrwt beam="2">  1       -1 0.26956059E-02 0.98037494E+02</pdfrwt>
<totfact> 0.90581550E+04</totfact>
</mgrwt>
</event>
<event>
 5   1  0.1357339E+00  0.9089999E+02  0.7818608E-02  0.1300687E+00
         -1   -1    0    0    0  501 -0.00000000000E+00  0.00000000000E+00  0.53862191696E+02  0.53862191898E+02  0.46700000000E-02 0.  1.
          1   -1    0    0  501    0  0.00000000000E+00 -0.00000000000E+00 -0.38351617793E+02  0.38351618077E+02  0.46700000000E-02 0. -1.
         23    2    1    2    0    0  0.00000000000E+00  0.00000000000E+00  0.15510573903E+02  0.92213809975E+02  0.90899993660E+02 0.  0.
        -11    1    3    3    0    0  0.42583205332E+02 -0.15456749554E+02  0.40332341825E+01  0.45480847192E+02  0.51100000000E-03 0.  1.
         11    1    3    3    0    0 -0.42583205332E+02  0.15456749554E+02  0.11477339720E+02  0.46732962783E+02  0.51100000000E-03 0. -1.
<mgrwt>
<rscale>  0 0.90899994E+02</rscale>
<asrwt>0</asrwt>
<pdfrwt beam="2">  1        1 0.59002489E-02 0.90899994E+02</pdfrwt>
<pdfrwt beam="1">  1       -1 0.82864911E-02 0.90899994E+02</pdfrwt>
<totfact> 0.90862721E+04</totfact>
</mgrwt>
</event>
<event>
 4   1  0.1357339E+00  0.3571614E+02  0.7818608E-02  0.1542331E+00
          1   -1    0    0  501    0  0.00000000000E+00  0.00000000000E+00  0.60417630429E+02  0.60417630610E+02  0.46700000000E-02 0.  1.
         -1   -1    0    0    0  501 -0.00000000000E+00 -0.00000000000E+00 -0.52784360415E+01  0.52784381074E+01  0.46700000000E-02 0. -1.
        -11    1    1    2    0    0 -0.93410753221E+01 -0.14896365506E+02  0.21825124583E+02  0.28026656183E+02  0.51100000000E-03 0. -1.
         11    1    1    2    0    0  0.93410753221E+01  0.14896365506E+02  0.33314069805E+02  0.37669412534E+02  0.51100000000E-03 0.  1.
<mgrwt>
<rscale>  0 0.35716140E+02</rscale>
<asrwt>0</asrwt>
<pdfrwt beam="1">  1        1 0.92950204E-02 0.35716140E+02</pdfrwt>
<pdfrwt beam="2">  1       -1 0.81206724E-03 0.35716140E+02</pdfrwt>
<totfact> 0.10976414E+06</totfact>
</mgrwt>
</event>
<event>
 5   1  0.1357339E+00  0.9058267E+02  0.7818608E-02  0.1301447E+00
          1   -1    0    0  501    0  0.00000000000E+00  0.00000000000E+00  0.88672509517E+02  0.88672509640E+02  0.46700000000E-02 0. -1.
         -1   -1    0    0    0  501 -0.00000000000E+00 -0.00000000000E+00 -0.23133495874E+02  0.23133496345E+02  0.46700000000E-02 0.  1.
         23    2    1    2    0    0  0.00000000000E+00  0.00000000000E+00  0.65539013643E+02  0.11180600599E+03  0.90582673095E+02 0.  0.
        -11    1    3    3    0    0 -0.29111754481E+02 -0.15281802187E+01  0.75553121627E+02  0.80982120073E+02  0.51100000000E-03 0. -1.
         11    1    3    3    0    0  0.29111754481E+02  0.15281802187E+01 -0.10014107983E+02  0.30823885912E+02  0.51100000000E-03 0.  1.
<mgrwt>
<rscale>  0 0.90582673E+02</rscale>
<asrwt>0</asrwt>
<pdfrwt beam="1">  1        1 0.13641925E-01 0.90582673E+02</pdfrwt>
<pdfrwt beam="2">  1       -1 0.35589994E-02 0.90582673E+02</pdfrwt>
<totfact> 0.10426027E+05</totfact>
</mgrwt>
</event>
<event>
 5   1  0.1357339E+00  0.9074881E+02  0.7818608E-02  0.1301048E+00
          1   -1    0    0  501    0  0.00000000000E+00  0.00000000000E+00  0.20879627482E+03  0.20879627487E+03  0.46700000000E-02 0. -1.
         -1   -1    0    0    0  501 -0.00000000000E+00 -0.00000000000E+00 -0.98605038397E+01  0.98605049456E+01  0.46700000000E-02 0.  1.
         23    2    1    2    0    0  0.00000000000E+00  0.00000000000E+00  0.19893577098E+03  0.21865677982E+03  0.90748809274E+02 0.  0.
        -11    1    3    3    0    0 -0.14108217665E+02 -0.40444951611E+02  0.63406145277E+02  0.76519116407E+02  0.51100000000E-03 0.  1.
         11    1    3    3    0    0  0.14108217665E+02  0.40444951611E+02  0.13552962570E+03  0.14213766341E+03  0.51100000000E-03 0. -1.
<mgrwt>
<rscale>  0 0.90748809E+02</rscale>
<asrwt>0</asrwt>
<pdfrwt beam="1">  1        1 0.32122500E-01 0.90748809E+02</pdfrwt>
<pdfrwt beam="2">  1       -1 0.15170009E-02 0.90748809E+02</pdfrwt>
<totfact> 0.12091483E+05</totfact>
</mgrwt>
</event>
<event>
 5   1  0.1357339E+00  0.9164798E+02  0.7818608E-02  0.1298909E+00
         -1   -1    0    0    0  501 -0.00000000000E+00  0.00000000000E+00  0.14089274658E+02  0.14089275432E+02  0.46700000000E-02 0.  1.
          1   -1    0    0  501    0  0.00000000000E+00 -0.00000000000E+00 -0.14903805869E+03  0.14903805876E+03  0.46700000000E-02 0. -1.
         23    2    1    2    0    0  0.00000000000E+00  0.00000000000E+00 -0.13494878403E+03  0.16312733419E+03  0.91647983336E+02 0.  0.
        -11    1    3    3    0    0  0.15283392542E+02  0.43105815013E+02 -0.62394610727E+02  0.77361365187E+02  0.51100000000E-03 0.  1.
         11    1    3    3    0    0 -0.15283392542E+02 -0.43105815013E+02 -0.72554173301E+02  0.85765969004E+02  0.51100000000E-03 0. -1.
<mgrwt>
<rscale>  0 0.91647983E+02</rscale>
<asrwt>0</asrwt>
<pdfrwt beam="2">  1        1 0.22928931E-01 0.91647983E+02</pdfrwt>
<pdfrwt beam="1">  1       -1 0.21675809E-02 0.91647983E+02</pdfrwt>
<totfact> 0.11045169E+05</totfact>
</mgrwt>
</event>
<event>
 5   1  0.1357339E+00  0.9518054E+02  0.7818608E-02  0.1290770E+00
          1   -1    0    0  501    0  0.00000000000E+00  0.00000000000E+00  0.11107403093E+03  0.11107403103E+03  0.46700000000E-02 0. -1.
         -1   -1    0    0    0  501 -0.00000000000E+00 -0.00000000000E+00 -0.20390309434E+02  0.20390309969E+02  0.46700000000E-02 0.  1.
         23    2    1    2    0    0  0.00000000000E+00  0.00000000000E+00  0.90683721498E+02  0.13146434100E+03  0.95180542180E+02 0.  0.
        -11    1    3    3    0    0  0.38398260872E+02  0.73905645345E+01  0.78759878492E+01  0.39888319932E+02  0.51100000000E-03 0.  1.
         11    1    3    3    0    0 -0.38398260872E+02 -0.73905645345E+01  0.82807733649E+02  0.91576021067E+02  0.51100000000E-03 0. -1.
<mgrwt>
<rscale>  0 0.95180542E+02</rscale>
<asrwt>0</asrwt>
<pdfrwt beam="1">  1        1 0.17088313E-01 0.95180542E+02</pdfrwt>
<pdfrwt beam="2">  1       -1 0.31369707E-02 0.95180542E+02</pdfrwt>
<totfact> 0.94555876E+04</totfact>
</mgrwt>
</event>
<event>
 5   1  0.1357339E+00  0.8863861E+02  0.7818608E-02  0.1306182E+00
         -1   -1    0    0    0  501 -0.00000000000E+00  0.00000000000E+00  0.20262689364E+02  0.20262689902E+02  0.46700000000E-02 0.  1.
          1   -1    0    0  501    0  0.00000000000E+00 -0.00000000000E+00 -0.96936833237E+02  0.96936833349E+02  0.46700000000E-02 0. -1.
         23    2    1    2    0    0  0.00000000000E+00  0.00000000000E+00 -0.76674143873E+02  0.11719952325E+03  0.88638614113E+02 0.  0.
        -11    1    3    3    0    0  0.22594285486E+02 -0.24515005101E+02 -0.76947491860E+02  0.83859428304E+02  0.51100000000E-03 0. -1.
         11    1    3    3    0    0 -0.22594285486E+02  0.24515005101E+02  0.27334798739E+00  0.33340094948E+02  0.51100000000E-03 0.  1.
<mgrwt>
<rscale>  0 0.88638614E+02</rscale>
<asrwt>0</asrwt>
<pdfrwt beam="2">  1        1 0.14913359E-01 0.88638614E+02</pdfrwt>
<pdfrwt beam="1">  1       -1 0.31173369E-02 0.88638614E+02</pdfrwt>
<totfact> 0.11221352E+05</totfact>
</mgrwt>
</event>
<event>
 5   1  0.1357339E+00  0.9150788E+02  0.7818608E-02  0.1299241E+00
          1   -1    0    0  501    0  0.00000000000E+00  0.00000000000E+00  0.21704116655E+02  0.21704117157E+02  0.46700000000E-02 0. -1.
         -1   -1    0    0    0  501 -0.00000000000E+00 -0.00000000000E+00 -0.96452816245E+02  0.96452816358E+02  0.46700000000E-02 0.  1.
         23    2    1    2    0    0  0.00000000000E+00  0.00000000000E+00 -0.74748699590E+02  0.11815693352E+03  0.91507884072E+02 0.  0.
        -11    1    3    3    0    0 -0.21477336083E+01  0.31693319577E+02 -0.79893465886E+02  0.85977003652E+02  0.51100000000E-03 0.  1.
         11    1    3    3    0    0  0.21477336083E+01 -0.31693319577E+02  0.51447662958E+01  0.32179929863E+02  0.51100000000E-03 0. -1.
<mgrwt>
<rscale>  0 0.91507884E+02</rscale>
<asrwt>0</asrwt>
<pdfrwt beam="1">  1        1 0.33390950E-02 0.91507884E+02</pdfrwt>
<pdfrwt beam="2">  1       -1 0.14838895E-01 0.91507884E+02</pdfrwt>
<totfact> 0.81153210E+04</totfact>
</mgrwt>
</event>
<event>
 5   1  0.1357339E+00  0.9182210E+02  0.7818608E-02  0.1298498E+00
          1   -1    0    0  501    0  0.00000000000E+00  0.00000000000E+00  0.26381133727E+03  0.26381133731E+03  0.46700000000E-02 0. -1.
         -1   -1    0    0    0  501 -0.00000000000E+00 -0.00000000000E+00 -0.79898933623E+01  0.79898947270E+01  0.46700000000E-02 0.  1.
         23    2    1    2    0    0  0.00000000000E+00  0.00000000000E+00  0.25582144391E+03  0.27180123204E+03  0.91822102865E+02 0.  0.
        -11    1    3    3    0    0 -0.16403761786E+02  0.36564189588E+02  0.61602089690E+02  0.73490413085E+02  0.51100000000E-03 0.  1.
         11    1    3    3    0    0  0.16403761786E+02 -0.36564189588E+02  0.19421935422E+03  0.19831081895E+03  0.51100000000E-03 0. -1.
<mgrwt>
<rscale>  0 0.91822103E+02</rscale>
<asrwt>0</asrwt>
<pdfrwt beam="1">  1        1 0.40586355E-01 0.91822103E+02</pdfrwt>
<pdfrwt beam="2">  1       -1 0.12292146E-02 0.91822103E+02</pdfrwt>
<totfact> 0.12264213E+05</totfact>
</mgrwt>
</event>
<event>
 5   1  0.1357339E+00  0.9167904E+02  0.7818608E-02  0.1298836E+00
          1   -1    0    0  501    0  0.00000000000E+00  0.00000000000E+00  0.18646874211E+03  0.18646874217E+03  0.46700000000E-02 0. -1.
         -1   -1    0    0    0  501 -0.00000000000E+00 -0.00000000000E+00 -0.11268705751E+02  0.11268706719E+02  0.46700000000E-02 0.  1.
         23    2    1    2    0    0  0.00000000000E+00  0.00000000000E+00  0.17520003636E+03  0.19773744889E+03  0.91679037692E+02 0.  0.
        -11    1    3    3    0    0 -0.14277556301E+02  0.33624614293E+02  0.27874569701E+02  0.45950570579E+02  0.51100000000E-03 0.  1.
         11    1    3    3    0    0  0.14277556301E+02 -0.33624614293E+02  0.14732546666E+03  0.15178687831E+03  0.51100000000E-03 0. -1.
<mgrwt>
<rscale>  0 0.91679038E+02</rscale>
<asrwt>0</asrwt>
<pdfrwt beam="1">  1        1 0.28687497E-01 0.91679038E+02</pdfrwt>
<pdfrwt beam="2">  1       -1 0.17336472E-02 0.91679038E+02</pdfrwt>
<totfact> 0.11510225E+05</totfact>
</mgrwt>
</event>
<event>
 5   1  0.1357339E+00  0.8106318E+02  0.7818608E-02  0.1326061E+00
          1   -1    0    0  501    0  0.00000000000E+00  0.00000000000E+00  0.25027487063E+02  0.25027487499E+02  0.46700000000E-02 0. -1.
         -1   -1    0    0    0  501 -0.00000000000E+00 -0.00000000000E+00 -0.65640213092E+02  0.65640213258E+02  0.46700000000E-02 0.  1.
         23    2    1    2    0    0  0.00000000000E+00  0.00000000000E+00 -0.40612726030E+02  0.90667700757E+02  0.81063175641E+02 0.  0.
        -11    1    3    3    0    0  0.65068970437E+01  0.33395842247E+02 -0.44943137376E+02  0.56369385183E+02  0.51100000000E-03 0.  1.
         11    1    3    3    0    0 -0.65068970437E+01 -0.33395842247E+02  0.43304113465E+01  0.34298315574E+02  0.51100000000E-03 0. -1.
<mgrwt>
<rscale>  0 0.81063176E+02</rscale>
<asrwt>0</asrwt>
<pdfrwt beam="1">  1        1 0.38503827E-02 0.81063176E+02</pdfrwt>
<pdfrwt beam="2">  1       -1 0.10098494E-01 0.81063176E+02</pdfrwt>
<totfact> 0.11786107E+05</totfact>
</mgrwt>
</event>
<event>
 5   1  0.1357339E+00  0.8984537E+02  0.7818608E-02  0.1303227E+00
         -1   -1    0    0    0  501 -0.00000000000E+00  0.00000000000E+00  0.21777442428E+02  0.21777442928E+02  0.46700000000E-02 0.  1.
          1   -1    0    0  501    0  0.00000000000E+00 -0.00000000000E+00 -0.92666870733E+02  0.92666870851E+02  0.46700000000E-02 0. -1.
         23    2    1    2    0    0  0.00000000000E+00  0.00000000000E+00 -0.70889428306E+02  0.11444431378E+03  0.89845366664E+02 0.  0.
        -11    1    3    3    0    0  0.38883088071E+02 -0.10571874512E+02 -0.60741223965E+02  0.72891394264E+02  0.51100000000E-03 0. -1.
         11    1    3    3    0    0 -0.38883088071E+02  0.10571874512E+02 -0.10148204341E+02  0.41552919516E+02  0.51100000000E-03 0.  1.
<mgrwt>
<rscale>  0 0.89845367E+02</rscale>
<asrwt>0</asrwt>
<pdfrwt beam="2">  1        1 0.14256441E-01 0.89845367E+02</pdfrwt>
<pdfrwt beam="1">  1       -1 0.33503759E-02 0.89845367E+02</pdfrwt>
<totfact> 0.10737216E+05</totfact>
</mgrwt>
</event>
<event>
 5   1  0.1357339E+00  0.8102609E+02  0.7818608E-02  0.1326165E+00
         -1   -1    0    0    0  501 -0.00000000000E+00  0.00000000000E+00  0.28001904672E+02  0.28001905062E+02  0.46700000000E-02 0.  1.
          1   -1    0    0  501    0  0.00000000000E+00 -0.00000000000E+00 -0.58614107942E+02  0.58614108128E+02  0.46700000000E-02 0. -1.
         23    2    1    2    0    0  0.00000000000E+00  0.00000000000E+00 -0.30612203269E+02  0.86616013190E+02  0.81026086860E+02 0.  0.
        -11    1    3    3    0    0  0.34077013479E+02  0.13180883013E+02 -0.34015800087E+02  0.49920468552E+02  0.51100000000E-03 0. -1.
         11    1    3    3    0    0 -0.34077013479E+02 -0.13180883013E+02  0.34035968175E+01  0.36695544637E+02  0.51100000000E-03 0.  1.
<mgrwt>
<rscale>  0 0.81026087E+02</rscale>
<asrwt>0</asrwt>
<pdfrwt beam="2">  1        1 0.90175551E-02 0.81026087E+02</pdfrwt>
<pdfrwt beam="1">  1       -1 0.43079854E-02 0.81026087E+02</pdfrwt>
<totfact> 0.13286098E+05</totfact>
</mgrwt>
</event>
<event>
 5   1  0.1357339E+00  0.8938066E+02  0.7818608E-02  0.1304358E+00
          1   -1    0    0  501    0  0.00000000000E+00  0.00000000000E+00  0.22396018130E+02  0.22396018617E+02  0.46700000000E-02 0. -1.
         -1   -1    0    0    0  501 -0.00000000000E+00 -0.00000000000E+00 -0.89177710464E+02  0.89177710587E+02  0.46700000000E-02 0.  1.
         23    2    1    2    0    0  0.00000000000E+00  0.00000000000E+00 -0.66781692334E+02  0.11157372920E+03  0.89380661316E+02 0.  0.
        -11    1    3    3    0    0 -0.87612051170E+01  0.15809893239E+02 -0.84411200820E+02  0.86324748847E+02  0.51100000000E-03 0.  1.
         11    1    3    3    0    0  0.87612051170E+01 -0.15809893239E+02  0.17629508486E+02  0.25248980357E+02  0.51100000000E-03 0. -1.
<mgrwt>
<rscale>  0 0.89380661E+02</rscale>
<asrwt>0</asrwt>
<pdfrwt beam="1">  1        1 0.34455413E-02 0.89380661E+02</pdfrwt>
<pdfrwt beam="2">  1       -1 0.13719648E-01 0.89380661E+02</pdfrwt>
<totfact> 0.87426393E+04</totfact>
</mgrwt>
</event>
<event>
 5   1  0.1357339E+00  0.9624339E+02  0.7818608E-02  0.1288400E+00
         -1   -1    0    0    0  501 -0.00000000000E+00  0.00000000000E+00  0.87623325124E+02  0.87623325248E+02  0.46700000000E-02 0.  1.
          1   -1    0    0  501    0  0.00000000000E+00 -0.00000000000E+00 -0.26427863573E+02  0.26427863986E+02  0.46700000000E-02 0. -1.
         23    2    1    2    0    0  0.00000000000E+00  0.00000000000E+00  0.61195461551E+02  0.11405118923E+03  0.96243385494E+02 0.  0.
        -11    1    3    3    0    0 -0.44642053136E+02  0.17881182548E+02  0.32666519346E+02  0.58135626632E+02  0.51100000000E-03 0.  1.
         11    1    3    3    0    0  0.44642053136E+02 -0.17881182548E+02  0.28528942205E+02  0.55915562602E+02  0.51100000000E-03 0. -1.
<mgrwt>
<rscale>  0 0.96243385E+02</rscale>
<asrwt>0</asrwt>
<pdfrwt beam="2">  1        1 0.40658252E-02 0.96243385E+02</pdfrwt>
<pdfrwt beam="1">  1       -1 0.13480511E-01 0.96243385E+02</pdfrwt>
<totfact> 0.72520167E+04</totfact>
</mgrwt>
</event>
<event>
 5   1  0.1357339E+00  0.9047942E+02  0.7818608E-02  0.1301695E+00
         -1   -1    0    0    0  501 -0.00000000000E+00  0.00000000000E+00  0.15475377631E+02  0.15475378336E+02  0.46700000000E-02 0.  1.
          1   -1    0    0  501    0  0.00000000000E+00 -0.00000000000E+00 -0.13225081363E+03  0.13225081371E+03  0.46700000000E-02 0. -1.
         23    2    1    2    0    0  0.00000000000E+00  0.00000000000E+00 -0.11677543599E+03  0.14772619204E+03  0.90479419561E+02 0.  0.
        -11    1    3    3    0    0  0.19439252286E+02 -0.23224425391E+02 -0.35188028000E+01  0.30490005536E+02  0.51100000000E-03 0.  1.
         11    1    3    3    0    0 -0.19439252286E+02  0.23224425391E+02 -0.11325663319E+03  0.11723618651E+03  0.51100000000E-03 0. -1.
<mgrwt>
<rscale>  0 0.90479420E+02</rscale>
<asrwt>0</asrwt>
<pdfrwt beam="2">  1        1 0.20346278E-01 0.90479420E+02</pdfrwt>
<pdfrwt beam="1">  1       -1 0.23808275E-02 0.90479420E+02</pdfrwt>
<totfact> 0.11190045E+05</totfact>
</mgrwt>
</event>
<event>
 5   1  0.1357339E+00  0.9168962E+02  0.7818608E-02  0.1298811E+00
         -1   -1    0    0    0  501 -0.00000000000E+00  0.00000000000E+00  0.27995505307E+02  0.27995505697E+02  0.46700000000E-02 0.  1.
          1   -1    0    0  501    0  0.00000000000E+00 -0.00000000000E+00 -0.75074428992E+02  0.75074429137E+02  0.46700000000E-02 0. -1.
         23    2    1    2    0    0  0.00000000000E+00  0.00000000000E+00 -0.47078923684E+02  0.10306993483E+03  0.91689619976E+02 0.  0.
        -11    1    3    3    0    0 -0.16635915611E+02  0.25183263628E+01  0.24399266037E+02  0.29638148379E+02  0.51100000000E-03 0.  1.
         11    1    3    3    0    0  0.16635915611E+02 -0.25183263628E+01 -0.71478189722E+02  0.73431786455E+02  0.51100000000E-03 0. -1.
<mgrwt>
<rscale>  0 0.91689620E+02</rscale>
<asrwt>0</asrwt>
<pdfrwt beam="2">  1        1 0.11549912E-01 0.91689620E+02</pdfrwt>
<pdfrwt beam="1">  1       -1 0.43070009E-02 0.91689620E+02</pdfrwt>
<totfact> 0.98215496E+04</totfact>
</mgrwt>
</event>
<event>
 5   1  0.1357339E+00  0.9297851E+02  0.7818608E-02  0.1295795E+00
         -1   -1    0    0    0  501 -0.00000000000E+00  0.00000000000E+00  0.12239843595E+03  0.12239843604E+03  0.46700000000E-02 0.  1.
          1   -1    0    0  501    0  0.00000000000E+00 -0.00000000000E+00 -0.17657501676E+02  0.17657502293E+02  0.46700000000E-02 0. -1.
         23    2    1    2    0    0  0.00000000000E+00  0.00000000000E+00  0.10474093427E+03  0.14005593833E+03  0.92978505847E+02 0.  0.
        -11    1    3    3    0    0 -0.29614552000E+02  0.55441614961E+01 -0.96051883103E+00  0.30144352930E+02  0.51100000000E-03 0. -1.
         11    1    3    3    0    0  0.29614552000E+02 -0.55441614961E+01  0.10570145310E+03  0.10991158540E+03  0.51100000000E-03 0.  1.
<mgrwt>
<rscale>  0 0.92978506E+02</rscale>
<asrwt>0</asrwt>
<pdfrwt beam="2">  1        1 0.27165388E-02 0.92978506E+02</pdfrwt>
<pdfrwt beam="1">  1       -1 0.18830528E-01 0.92978506E+02</pdfrwt>
<totfact> 0.74347211E+04</totfact>
</mgrwt>
</event>
<event>
 5   1  0.1357339E+00  0.9349315E+02  0.7818608E-02  0.1294606E+00
         -1   -1    0    0    0  501 -0.00000000000E+00  0.00000000000E+00  0.29470982379E+02  0.29470982749E+02  0.46700000000E-02 0.  1.
          1   -1    0    0  501    0  0.00000000000E+00 -0.00000000000E+00 -0.74148950060E+02  0.74148950207E+02  0.46700000000E-02 0. -1.
         23    2    1    2    0    0  0.00000000000E+00  0.00000000000E+00 -0.44677967681E+02  0.10361993296E+03  0.93493153278E+02 0.  0.
        -11    1    3    3    0    0  0.15178074366E+02  0.19613462511E+02  0.21578585873E+02  0.32873959628E+02  0.51100000000E-03 0.  1.
         11    1    3    3    0    0 -0.15178074366E+02 -0.19613462511E+02 -0.66256553553E+02  0.70745973328E+02  0.51100000000E-03 0. -1.
<mgrwt>
<rscale>  0 0.93493153E+02</rscale>
<asrwt>0</asrwt>
<pdfrwt beam="2">  1        1 0.11407531E-01 0.93493153E+02</pdfrwt>
<pdfrwt beam="1">  1       -1 0.45339974E-02 0.93493153E+02</pdfrwt>
<totfact> 0.92892742E+04</totfact>
</mgrwt>
</event>
<event>
 5   1  0.1357339E+00  0.9426503E+02  0.7818608E-02  0.1292840E+00
         -1   -1    0    0    0  501 -0.00000000000E+00  0.00000000000E+00  0.16748243440E+02  0.16748244091E+02  0.46700000000E-02 0.  1.
          1   -1    0    0  501    0  0.00000000000E+00 -0.00000000000E+00 -0.13263920616E+03  0.13263920624E+03  0.46700000000E-02 0. -1.
         23    2    1    2    0    0  0.00000000000E+00  0.00000000000E+00 -0.11589096272E+03  0.14938745033E+03  0.94265025735E+02 0.  0.
        -11    1    3    3    0    0 -0.69675014628E+01  0.26839704181E+02  0.24535900423E+01  0.27837670548E+02  0.51100000000E-03 0.  1.
         11    1    3    3    0    0  0.69675014628E+01 -0.26839704181E+02 -0.11834455276E+03  0.12154977978E+03  0.51100000000E-03 0. -1.
<mgrwt>
<rscale>  0 0.94265026E+02</rscale>
<asrwt>0</asrwt>
<pdfrwt beam="2">  1        1 0.20406031E-01 0.94265026E+02</pdfrwt>
<pdfrwt beam="1">  1       -1 0.25766530E-02 0.94265026E+02</pdfrwt>
<totfact> 0.10018403E+05</totfact>
</mgrwt>
</event>
<event>
 5   1  0.1357339E+00  0.9012430E+02  0.7818608E-02  0.1302551E+00
          1   -1    0    0  501    0  0.00000000000E+00  0.00000000000E+00  0.72018263733E+02  0.72018263885E+02  0.46700000000E-02 0. -1.
         -1   -1    0    0    0  501 -0.00000000000E+00 -0.00000000000E+00 -0.28195590418E+02  0.28195590805E+02  0.46700000000E-02 0.  1.
         23    2    1    2    0    0  0.00000000000E+00  0.00000000000E+00  0.43822673315E+02  0.10021385469E+03  0.90124302911E+02 0.  0.
        -11    1    3    3    0    0  0.72683629511E+01 -0.12720125734E+02 -0.25473545010E+02  0.29385918300E+02  0.51100000000E-03 0.  1.
         11    1    3    3    0    0 -0.72683629511E+01  0.12720125734E+02  0.69296218326E+02  0.70827936389E+02  0.51100000000E-03 0. -1.
<mgrwt>
<rscale>  0 0.90124303E+02</rscale>
<asrwt>0</asrwt>
<pdfrwt beam="1">  1        1 0.11079733E-01 0.90124303E+02</pdfrwt>
<pdfrwt beam="2">  1       -1 0.43377832E-02 0.90124303E+02</pdfrwt>
<totfact> 0.10231817E+05</totfact>
</mgrwt>
</event>
<event>
 5   1  0.1357339E+00  0.8733611E+02  0.7818608E-02  0.1309434E+00
         -1   -1    0    0    0  501 -0.00000000000E+00  0.00000000000E+00  0.84188954667E+01  0.84188967619E+01  0.46700000000E-02 0.  1.
          1   -1    0    0  501    0  0.00000000000E+00 -0.00000000000E+00 -0.22650228517E+03  0.22650228522E+03  0.46700000000E-02 0. -1.
         23    2    1    2    0    0  0.00000000000E+00  0.00000000000E+00 -0.21808338970E+03  0.23492118198E+03  0.87336114399E+02 0.  0.
        -11    1    3    3    0    0  0.43310264105E+01 -0.40796740511E+02 -0.14927879856E+03  0.15481373171E+03  0.51100000000E-03 0. -1.
         11    1    3    3    0    0 -0.43310264105E+01  0.40796740511E+02 -0.68804591137E+02  0.80107450264E+02  0.51100000000E-03 0.  1.
<mgrwt>
<rscale>  0 0.87336114E+02</rscale>
<asrwt>0</asrwt>
<pdfrwt beam="2">  1        1 0.34846501E-01 0.87336114E+02</pdfrwt>
<pdfrwt beam="1">  1       -1 0.12952150E-02 0.87336114E+02</pdfrwt>
<totfact> 0.13607162E+05</totfact>
</mgrwt>
</event>
<event>
 5   1  0.1357339E+00  0.8915029E+02  0.7818608E-02  0.1304923E+00
         -1   -1    0    0    0  501 -0.00000000000E+00  0.00000000000E+00  0.95137047153E+02  0.95137047267E+02  0.46700000000E-02 0.  1.
          1   -1    0    0  501    0  0.00000000000E+00 -0.00000000000E+00 -0.20885066437E+02  0.20885066959E+02  0.46700000000E-02 0. -1.
         23    2    1    2    0    0  0.00000000000E+00  0.00000000000E+00  0.74251980716E+02  0.11602211423E+03  0.89150290798E+02 0.  0.
        -11    1    3    3    0    0  0.22390198397E+02  0.20503236463E+02  0.79601805602E+02  0.85194783556E+02  0.51100000000E-03 0.  1.
         11    1    3    3    0    0 -0.22390198397E+02 -0.20503236463E+02 -0.53498248869E+01  0.30827330670E+02  0.51100000000E-03 0. -1.
<mgrwt>
<rscale>  0 0.89150291E+02</rscale>
<asrwt>0</asrwt>
<pdfrwt beam="2">  1        1 0.32130872E-02 0.89150291E+02</pdfrwt>
<pdfrwt beam="1">  1       -1 0.14636469E-01 0.89150291E+02</pdfrwt>
<totfact> 0.87000977E+04</totfact>
</mgrwt>
</event>
<event>
 5   1  0.1357339E+00  0.9044834E+02  0.7818608E-02  0.1301770E+00
          1   -1    0    0  501    0  0.00000000000E+00  0.00000000000E+00  0.29026514158E+02  0.29026514533E+02  0.46700000000E-02 0. -1.
         -1   -1    0    0    0  501 -0.00000000000E+00 -0.00000000000E+00 -0.70460601559E+02  0.70460601714E+02  0.46700000000E-02 0.  1.
         23    2    1    2    0    0  0.00000000000E+00  0.00000000000E+00 -0.41434087401E+02  0.99487116247E+02  0.90448342718E+02 0.  0.
        -11    1    3    3    0    0  0.42197245654E+02  0.59468615517E+01 -0.40628460009E+01  0.42807469220E+02  0.51100000000E-03 0.  1.
         11    1    3    3    0    0 -0.42197245654E+02 -0.59468615517E+01 -0.37371241400E+02  0.56679647028E+02  0.51100000000E-03 0. -1.
<mgrwt>
<rscale>  0 0.90448343E+02</rscale>
<asrwt>0</asrwt>
<pdfrwt beam="1">  1        1 0.44656176E-02 0.90448343E+02</pdfrwt>
<pdfrwt beam="2">  1       -1 0.10840093E-01 0.90448343E+02</pdfrwt>
<totfact> 0.88232642E+04</totfact>
</mgrwt>
</event>
<event>
 5   1  0.1357339E+00  0.9387154E+02  0.7818608E-02  0.1293738E+00
          1   -1    0    0  501    0  0.00000000000E+00  0.00000000000E+00  0.85978951550E+02  0.85978951676E+02  0.46700000000E-02 0. -1.
         -1   -1    0    0    0  501 -0.00000000000E+00 -0.00000000000E+00 -0.25622162597E+02  0.25622163023E+02  0.46700000000E-02 0.  1.
         23    2    1    2    0    0  0.00000000000E+00  0.00000000000E+00  0.60356788952E+02  0.11160111470E+03  0.93871544301E+02 0.  0.
        -11    1    3    3    0    0  0.14849142834E+02  0.31374305373E+02  0.67738475483E+02  0.76114027233E+02  0.51100000000E-03 0.  1.
         11    1    3    3    0    0 -0.14849142834E+02 -0.31374305373E+02 -0.73816865312E+01  0.35487087466E+02  0.51100000000E-03 0. -1.
<mgrwt>
<rscale>  0 0.93871544E+02</rscale>
<asrwt>0</asrwt>
<pdfrwt beam="1">  1        1 0.13227531E-01 0.93871544E+02</pdfrwt>
<pdfrwt beam="2">  1       -1 0.39418712E-02 0.93871544E+02</pdfrwt>
<totfact> 0.94072274E+04</totfact>
</mgrwt>
</event>
<event>
 5   1  0.1357339E+00  0.8864171E+02  0.7818608E-02  0.1306175E+00
         -1   -1    0    0    0  501 -0.00000000000E+00  0.00000000000E+00  0.49860828704E+03  0.49860828706E+03  0.46700000000E-02 0.  1.
          1   -1    0    0  501    0  0.00000000000E+00 -0.00000000000E+00 -0.39396405885E+01  0.39396433563E+01  0.46700000000E-02 0. -1.
         23    2    1    2    0    0  0.00000000000E+00  0.00000000000E+00  0.49466864645E+03  0.50254793042E+03  0.88641709062E+02 0.  0.
        -11    1    3    3    0    0 -0.43554882817E+02 -0.74628824698E+01  0.22801186731E+03  0.23225445974E+03  0.51100000000E-03 0.  1.
         11    1    3    3    0    0  0.43554882817E+02  0.74628824698E+01  0.26665677914E+03  0.27029347068E+03  0.51100000000E-03 0. -1.
<mgrwt>
<rscale>  0 0.88641709E+02</rscale>
<asrwt>0</asrwt>
<pdfrwt beam="2">  1        1 0.60609876E-03 0.88641709E+02</pdfrwt>
<pdfrwt beam="1">  1       -1 0.76708969E-01 0.88641709E+02</pdfrwt>
<totfact> 0.50735453E+04</totfact>
</mgrwt>
</event>
<event>
 5   1  0.1357339E+00  0.8879962E+02  0.7818608E-02  0.1305785E+00
         -1   -1    0    0    0  501 -0.00000000000E+00  0.00000000000E+00  0.20562073026E+02  0.20562073556E+02  0.46700000000E-02 0.  1.
          1   -1    0    0  501    0  0.00000000000E+00 -0.00000000000E+00 -0.95872782074E+02  0.95872782188E+02  0.46700000000E-02 0. -1.
         23    2    1    2    0    0  0.00000000000E+00  0.00000000000E+00 -0.75310709048E+02  0.11643485574E+03  0.88799621254E+02 0.  0.
        -11    1    3    3    0    0 -0.11309526944E+02  0.22177636070E+02 -0.85860613441E+02  0.89396856109E+02  0.51100000000E-03 0. -1.
         11    1    3    3    0    0  0.11309526944E+02 -0.22177636070E+02  0.10549904393E+02  0.27037999636E+02  0.51100000000E-03 0.  1.
<mgrwt>
<rscale>  0 0.88799621E+02</rscale>
<asrwt>0</asrwt>
<pdfrwt beam="2">  1        1 0.14749658E-01 0.88799621E+02</pdfrwt>
<pdfrwt beam="1">  1       -1 0.31633960E-02 0.88799621E+02</pdfrwt>
<totfact> 0.11146128E+05</totfact>
</mgrwt>
</event>
<event>
 5   1  0.1357339E+00  0.9159015E+02  0.7818608E-02  0.1299046E+00
          1   -1    0    0  501    0  0.00000000000E+00  0.00000000000E+00  0.31158139487E+02  0.31158139837E+02  0.46700000000E-02 0. -1.
         -1   -1    0    0    0  501 -0.00000000000E+00 -0.00000000000E+00 -0.67307896682E+02  0.67307896844E+02  0.46700000000E-02 0.  1.
         23    2    1    2    0    0  0.00000000000E+00  0.00000000000E+00 -0.36149757195E+02  0.98466036681E+02  0.91590149221E+02 0.  0.
        -11    1    3    3    0    0  0.32288742376E+02  0.10017138783E+02 -0.51285443507E+02  0.61425586441E+02  0.51100000000E-03 0.  1.
         11    1    3    3    0    0 -0.32288742376E+02 -0.10017138783E+02  0.15135686312E+02  0.37040450240E+02  0.51100000000E-03 0. -1.
<mgrwt>
<rscale>  0 0.91590149E+02</rscale>
<asrwt>0</asrwt>
<pdfrwt beam="1">  1        1 0.47935600E-02 0.91590149E+02</pdfrwt>
<pdfrwt beam="2">  1       -1 0.10355061E-01 0.91590149E+02</pdfrwt>
<totfact> 0.86088825E+04</totfact>
</mgrwt>
</event>
<event>
 5   1  0.1357339E+00  0.9233395E+02  0.7818608E-02  0.1297296E+00
         -1   -1    0    0    0  501 -0.00000000000E+00  0.00000000000E+00  0.23445793041E+02  0.23445793506E+02  0.46700000000E-02 0.  1.
          1   -1    0    0  501    0  0.00000000000E+00 -0.00000000000E+00 -0.90907118062E+02  0.90907118182E+02  0.46700000000E-02 0. -1.
         23    2    1    2    0    0  0.00000000000E+00  0.00000000000E+00 -0.67461325021E+02  0.11435291169E+03  0.92333948459E+02 0.  0.
        -11    1    3    3    0    0  0.27815437507E+02 -0.35741390487E+02 -0.44824759883E+02  0.63721304572E+02  0.51100000000E-03 0. -1.
         11    1    3    3    0    0 -0.27815437507E+02  0.35741390487E+02 -0.22636565138E+02  0.50631607116E+02  0.51100000000E-03 0.  1.
<mgrwt>
<rscale>  0 0.92333948E+02</rscale>
<asrwt>0</asrwt>
<pdfrwt beam="2">  1        1 0.13985710E-01 0.92333948E+02</pdfrwt>
<pdfrwt beam="1">  1       -1 0.36070452E-02 0.92333948E+02</pdfrwt>
<totfact> 0.99337004E+04</totfact>
</mgrwt>
</event>
<event>
 5   1  0.1357339E+00  0.9526734E+02  0.7818608E-02  0.1290575E+00
          1   -1    0    0  501    0  0.00000000000E+00  0.00000000000E+00  0.11013452674E+03  0.11013452684E+03  0.46700000000E-02 0. -1.
         -1   -1    0    0    0  501 -0.00000000000E+00 -0.00000000000E+00 -0.20601773392E+02  0.20601773922E+02  0.46700000000E-02 0.  1.
         23    2    1    2    0    0  0.00000000000E+00  0.00000000000E+00  0.89532753348E+02  0.13073630076E+03  0.95267341805E+02 0.  0.
        -11    1    3    3    0    0  0.10022479265E+02 -0.41292231828E+02  0.74309885212E+02  0.85600569743E+02  0.51100000000E-03 0. -1.
         11    1    3    3    0    0 -0.10022479265E+02  0.41292231828E+02  0.15222868137E+02  0.45135731018E+02  0.51100000000E-03 0.  1.
<mgrwt>
<rscale>  0 0.95267342E+02</rscale>
<asrwt>0</asrwt>
<pdfrwt beam="1">  1        1 0.16943774E-01 0.95267342E+02</pdfrwt>
<pdfrwt beam="2">  1       -1 0.31695036E-02 0.95267342E+02</pdfrwt>
<totfact> 0.94181311E+04</totfact>
</mgrwt>
</event>
<event>
 5   1  0.1357339E+00  0.9123578E+02  0.7818608E-02  0.1299886E+00
          1   -1    0    0  501    0  0.00000000000E+00  0.00000000000E+00  0.48165920055E+02  0.48165920281E+02  0.46700000000E-02 0. -1.
         -1   -1    0    0    0  501 -0.00000000000E+00 -0.00000000000E+00 -0.43204650058E+02  0.43204650310E+02  0.46700000000E-02 0.  1.
         23    2    1    2    0    0  0.00000000000E+00  0.00000000000E+00  0.49612699976E+01  0.91370570591E+02  0.91235776810E+02 0.  0.
        -11    1    3    3    0    0  0.18884029225E+01 -0.23555454342E+02  0.41558359060E+02  0.47807140710E+02  0.51100000000E-03 0. -1.
         11    1    3    3    0    0 -0.18884029225E+01  0.23555454342E+02 -0.36597089063E+02  0.43563429881E+02  0.51100000000E-03 0.  1.
<mgrwt>
<rscale>  0 0.91235777E+02</rscale>
<asrwt>0</asrwt>
<pdfrwt beam="1">  1        1 0.74101416E-02 0.91235777E+02</pdfrwt>
<pdfrwt beam="2">  1       -1 0.66468693E-02 0.91235777E+02</pdfrwt>
<totfact> 0.93070709E+04</totfact>
</mgrwt>
</event>
<event>
 5   1  0.1357339E+00  0.9162980E+02  0.7818608E-02  0.1298952E+00
          1   -1    0    0  501    0  0.00000000000E+00  0.00000000000E+00  0.30786607456E+03  0.30786607460E+03  0.46700000000E-02 0. -1.
         -1   -1    0    0    0  501 -0.00000000000E+00 -0.00000000000E+00 -0.68179146351E+01  0.68179162345E+01  0.46700000000E-02 0.  1.
         23    2    1    2    0    0  0.00000000000E+00  0.00000000000E+00  0.30104815993E+03  0.31468399083E+03  0.91629795866E+02 0.  0.
        -11    1    3    3    0    0  0.33728600847E+02  0.26902327965E+02  0.20346699517E+03  0.20799079761E+03  0.51100000000E-03 0. -1.
         11    1    3    3    0    0 -0.33728600847E+02 -0.26902327965E+02  0.97581164752E+02  0.10669319322E+03  0.51100000000E-03 0.  1.
<mgrwt>
<rscale>  0 0.91629796E+02</rscale>
<asrwt>0</asrwt>
<pdfrwt beam="1">  1        1 0.47363999E-01 0.91629796E+02</pdfrwt>
<pdfrwt beam="2">  1       -1 0.10489103E-02 0.91629796E+02</pdfrwt>
<totfact> 0.12706328E+05</totfact>
</mgrwt>
</event>
<event>
 5   1  0.1357339E+00  0.8813613E+02  0.7818608E-02  0.1307429E+00
         -1   -1    0    0    0  501 -0.00000000000E+00  0.00000000000E+00  0.16923129633E+02  0.16923130278E+02  0.46700000000E-02 0.  1.
          1   -1    0    0  501    0  0.00000000000E+00 -0.00000000000E+00 -0.11475384271E+03  0.11475384281E+03  0.46700000000E-02 0. -1.
         23    2    1    2    0    0  0.00000000000E+00  0.00000000000E+00 -0.97830713079E+02  0.13167697308E+03  0.88136126641E+02 0.  0.
        -11    1    3    3    0    0  0.93757128363E+01  0.36897353438E+02 -0.15753688527E+02  0.41200696406E+02  0.51100000000E-03 0.  1.
         11    1    3    3    0    0 -0.93757128363E+01 -0.36897353438E+02 -0.82077024552E+02  0.90476276678E+02  0.51100000000E-03 0. -1.
<mgrwt>
<rscale>  0 0.88136127E+02</rscale>
<asrwt>0</asrwt>
<pdfrwt beam="2">  1        1 0.17654437E-01 0.88136127E+02</pdfrwt>
<pdfrwt beam="1">  1       -1 0.26035585E-02 0.88136127E+02</pdfrwt>
<totfact> 0.11719248E+05</totfact>
</mgrwt>
</event>
<event>
 5   1  0.1357339E+00  0.8970482E+02  0.7818608E-02  0.1303568E+00
          1   -1    0    0  501    0  0.00000000000E+00  0.00000000000E+00  0.97647148084E+01  0.97647159251E+01  0.46700000000E-02 0. -1.
         -1   -1    0    0    0  501 -0.00000000000E+00 -0.00000000000E+00 -0.20602124869E+03  0.20602124874E+03  0.46700000000E-02 0.  1.
         23    2    1    2    0    0  0.00000000000E+00  0.00000000000E+00 -0.19625653388E+03  0.21578596466E+03  0.89704824042E+02 0.  0.
        -11    1    3    3    0    0 -0.32054050652E+02  0.30724744932E+02 -0.82863833786E+02  0.94010037040E+02  0.51100000000E-03 0.  1.
         11    1    3    3    0    0  0.32054050652E+02 -0.30724744932E+02 -0.11339270009E+03  0.12177592762E+03  0.51100000000E-03 0. -1.
<mgrwt>
<rscale>  0 0.89704824E+02</rscale>
<asrwt>0</asrwt>
<pdfrwt beam="1">  1        1 0.15022641E-02 0.89704824E+02</pdfrwt>
<pdfrwt beam="2">  1       -1 0.31695574E-01 0.89704824E+02</pdfrwt>
<totfact> 0.71810892E+04</totfact>
</mgrwt>
</event>
<event>
 5   1  0.1357339E+00  0.9679789E+02  0.7818608E-02  0.1287177E+00
          1   -1    0    0  501    0  0.00000000000E+00  0.00000000000E+00  0.70653584465E+02  0.70653584620E+02  0.46700000000E-02 0. -1.
         -1   -1    0    0    0  501 -0.00000000000E+00 -0.00000000000E+00 -0.33154124100E+02  0.33154124429E+02  0.46700000000E-02 0.  1.
         23    2    1    2    0    0  0.00000000000E+00  0.00000000000E+00  0.37499460365E+02  0.10380770905E+03  0.96797887014E+02 0.  0.
        -11    1    3    3    0    0  0.26198710041E+02  0.40381204029E+02  0.24159188020E+02  0.53857965174E+02  0.51100000000E-03 0. -1.
         11    1    3    3    0    0 -0.26198710041E+02 -0.40381204029E+02  0.13340272344E+02  0.49949743875E+02  0.51100000000E-03 0.  1.
<mgrwt>
<rscale>  0 0.96797887E+02</rscale>
<asrwt>0</asrwt>
<pdfrwt beam="1">  1        1 0.10869782E-01 0.96797887E+02</pdfrwt>
<pdfrwt beam="2">  1       -1 0.51006346E-02 0.96797887E+02</pdfrwt>
<totfact> 0.83714180E+04</totfact>
</mgrwt>
</event>
<event>
 5   1  0.1357339E+00  0.9157241E+02  0.7818608E-02  0.1299088E+00
          1   -1    0    0  501    0  0.00000000000E+00  0.00000000000E+00  0.22184397170E+03  0.22184397175E+03  0.46700000000E-02 0. -1.
         -1   -1    0    0    0  501 -0.00000000000E+00 -0.00000000000E+00 -0.94497788926E+01  0.94497800466E+01  0.46700000000E-02 0.  1.
         23    2    1    2    0    0  0.00000000000E+00  0.00000000000E+00  0.21239419280E+03  0.23129375179E+03  0.91572411136E+02 0.  0.
        -11    1    3    3    0    0  0.30030184171E+02 -0.31399956271E+02  0.69716316725E+02  0.82147026928E+02  0.51100000000E-03 0.  1.
         11    1    3    3    0    0 -0.30030184171E+02  0.31399956271E+02  0.14267787608E+03  0.14914672486E+03  0.51100000000E-03 0. -1.
<mgrwt>
<rscale>  0 0.91572411E+02</rscale>
<asrwt>0</asrwt>
<pdfrwt beam="1">  1        1 0.34129841E-01 0.91572411E+02</pdfrwt>
<pdfrwt beam="2">  1       -1 0.14538123E-02 0.91572411E+02</pdfrwt>
<totfact> 0.11942652E+05</totfact>
</mgrwt>
</event>
<event>
 5   1  0.1357339E+00  0.8647240E+02  0.7818608E-02  0.1311626E+00
          1   -1    0    0  501    0  0.00000000000E+00  0.00000000000E+00  0.32942612045E+02  0.32942612376E+02  0.46700000000E-02 0. -1.
         -1   -1    0    0    0  501 -0.00000000000E+00 -0.00000000000E+00 -0.56746225458E+02  0.56746225650E+02  0.46700000000E-02 0.  1.
         23    2    1    2    0    0  0.00000000000E+00  0.00000000000E+00 -0.23803613413E+02  0.89688838026E+02  0.86472398226E+02 0.  0.
        -11    1    3    3    0    0 -0.24044687036E+02  0.53731689749E+01 -0.48752949200E+02  0.54624792681E+02  0.51100000000E-03 0.  1.
         11    1    3    3    0    0  0.24044687036E+02 -0.53731689749E+01  0.24949335786E+02  0.35064045345E+02  0.51100000000E-03 0. -1.
<mgrwt>
<rscale>  0 0.86472398E+02</rscale>
<asrwt>0</asrwt>
<pdfrwt beam="1">  1        1 0.50680942E-02 0.86472398E+02</pdfrwt>
<pdfrwt beam="2">  1       -1 0.87301885E-02 0.86472398E+02</pdfrwt>
<totfact> 0.10226467E+05</totfact>
</mgrwt>
</event>
<event>
 5   1  0.1357339E+00  0.9043376E+02  0.7818608E-02  0.1301805E+00
          1   -1    0    0  501    0  0.00000000000E+00  0.00000000000E+00  0.22938016297E+03  0.22938016302E+03  0.46700000000E-02 0. -1.
         -1   -1    0    0    0  501 -0.00000000000E+00 -0.00000000000E+00 -0.89134380510E+01  0.89134392743E+01  0.46700000000E-02 0.  1.
         23    2    1    2    0    0  0.00000000000E+00  0.00000000000E+00  0.22046672492E+03  0.23829360229E+03  0.90433755294E+02 0.  0.
        -11    1    3    3    0    0  0.39082884992E+02 -0.22455775699E+02  0.10079420062E+03  0.11041378827E+03  0.51100000000E-03 0. -1.
         11    1    3    3    0    0 -0.39082884992E+02  0.22455775699E+02  0.11967252430E+03  0.12787981402E+03  0.51100000000E-03 0.  1.
<mgrwt>
<rscale>  0 0.90433755E+02</rscale>
<asrwt>0</asrwt>
<pdfrwt beam="1">  1        1 0.35289257E-01 0.90433755E+02</pdfrwt>
<pdfrwt beam="2">  1       -1 0.13712982E-02 0.90433755E+02</pdfrwt>
<totfact> 0.12430013E+05</totfact>
</mgrwt>
</event>
<event>
 5   1  0.1357339E+00  0.7360306E+02  0.7818608E-02  0.1348252E+00
          1   -1    0    0  501    0  0.00000000000E+00  0.00000000000E+00  0.63068355543E+02  0.63068355716E+02  0.46700000000E-02 0. -1.
         -1   -1    0    0    0  501 -0.00000000000E+00 -0.00000000000E+00 -0.21474362896E+02  0.21474363403E+02  0.46700000000E-02 0.  1.
         23    2    1    2    0    0  0.00000000000E+00  0.00000000000E+00  0.41593992647E+02  0.84542719119E+02  0.73603064690E+02 0.  0.
        -11    1    3    3    0    0  0.36356946106E+02 -0.26339836605E+01  0.14986767381E+02  0.39412797374E+02  0.51100000000E-03 0.  1.
         11    1    3    3    0    0 -0.36356946106E+02  0.26339836605E+01  0.26607225266E+02  0.45129921745E+02  0.51100000000E-03 0. -1.
<mgrwt>
<rscale>  0 0.73603065E+02</rscale>
<asrwt>0</asrwt>
<pdfrwt beam="1">  1        1 0.97028237E-02 0.73603065E+02</pdfrwt>
<pdfrwt beam="2">  1       -1 0.33037483E-02 0.73603065E+02</pdfrwt>
<totfact> 0.17401198E+05</totfact>
</mgrwt>
</event>
<event>
 5   1  0.1357339E+00  0.9013756E+02  0.7818608E-02  0.1302519E+00
         -1   -1    0    0    0  501 -0.00000000000E+00  0.00000000000E+00  0.76326566369E+02  0.76326566512E+02  0.46700000000E-02 0.  1.
          1   -1    0    0  501    0  0.00000000000E+00 -0.00000000000E+00 -0.26611899221E+02  0.26611899631E+02  0.46700000000E-02 0. -1.
         23    2    1    2    0    0  0.00000000000E+00  0.00000000000E+00  0.49714667148E+02  0.10293846614E+03  0.90137559775E+02 0.  0.
        -11    1    3    3    0    0  0.10719973882E+02  0.35985340198E+02  0.53323821329E+02  0.65217271260E+02  0.51100000000E-03 0.  1.
         11    1    3    3    0    0 -0.10719973882E+02 -0.35985340198E+02 -0.36091541810E+01  0.37721194883E+02  0.51100000000E-03 0. -1.
<mgrwt>
<rscale>  0 0.90137560E+02</rscale>
<asrwt>0</asrwt>
<pdfrwt beam="2">  1        1 0.40941384E-02 0.90137560E+02</pdfrwt>
<pdfrwt beam="1">  1       -1 0.11742549E-01 0.90137560E+02</pdfrwt>
<totfact> 0.87855391E+04</totfact>
</mgrwt>
</event>
<event>
 5   1  0.1357339E+00  0.9238228E+02  0.7818608E-02  0.1297183E+00
         -1   -1    0    0    0  501 -0.00000000000E+00  0.00000000000E+00  0.75469708237E+01  0.75469722686E+01  0.46700000000E-02 0.  1.
          1   -1    0    0  501    0  0.00000000000E+00 -0.00000000000E+00 -0.28271225619E+03  0.28271225623E+03  0.46700000000E-02 0. -1.
         23    2    1    2    0    0  0.00000000000E+00  0.00000000000E+00 -0.27516528537E+03  0.29025922850E+03  0.92382278913E+02 0.  0.
        -11    1    3    3    0    0 -0.24859074740E+02 -0.34758047160E+02 -0.82484338570E+02  0.92896509886E+02  0.51100000000E-03 0.  1.
         11    1    3    3    0    0  0.24859074740E+02  0.34758047160E+02 -0.19268094680E+03  0.19736271861E+03  0.51100000000E-03 0. -1.
<mgrwt>
<rscale>  0 0.92382279E+02</rscale>
<asrwt>0</asrwt>
<pdfrwt beam="2">  1        1 0.43494185E-01 0.92382279E+02</pdfrwt>
<pdfrwt beam="1">  1       -1 0.11610728E-02 0.92382279E+02</pdfrwt>
<totfact> 0.12230382E+05</totfact>
</mgrwt>
</event>
<event>
 5   1  0.1357339E+00  0.8843602E+02  0.7818608E-02  0.1306684E+00
          1   -1    0    0  501    0  0.00000000000E+00  0.00000000000E+00  0.41013227287E+01  0.41013253875E+01  0.46700000000E-02 0. -1.
         -1   -1    0    0    0  501 -0.00000000000E+00 -0.00000000000E+00 -0.47673195514E+03  0.47673195516E+03  0.46700000000E-02 0.  1.
         23    2    1    2    0    0  0.00000000000E+00  0.00000000000E+00 -0.47263063241E+03  0.48083328055E+03  0.88436016369E+02 0.  0.
        -11    1    3    3    0    0  0.43537946926E+02 -0.63158202011E+01 -0.26050256613E+03  0.26419127421E+03  0.51100000000E-03 0.  1.
         11    1    3    3    0    0 -0.43537946926E+02  0.63158202011E+01 -0.21212806628E+03  0.21664200634E+03  0.51100000000E-03 0. -1.
<mgrwt>
<rscale>  0 0.88436016E+02</rscale>
<asrwt>0</asrwt>
<pdfrwt beam="1">  1        1 0.63097331E-03 0.88436016E+02</pdfrwt>
<pdfrwt beam="2">  1       -1 0.73343334E-01 0.88436016E+02</pdfrwt>
<totfact> 0.52443532E+04</totfact>
</mgrwt>
</event>
<event>
 5   1  0.1357339E+00  0.9091061E+02  0.7818608E-02  0.1300661E+00
          1   -1    0    0  501    0  0.00000000000E+00  0.00000000000E+00  0.92933692495E+01  0.92933704228E+01  0.46700000000E-02 0. -1.
         -1   -1    0    0    0  501 -0.00000000000E+00 -0.00000000000E+00 -0.22232892556E+03  0.22232892561E+03  0.46700000000E-02 0.  1.
         23    2    1    2    0    0  0.00000000000E+00  0.00000000000E+00 -0.21303555631E+03  0.23162229604E+03  0.90910614158E+02 0.  0.
        -11    1    3    3    0    0  0.45124442514E+02 -0.44014711168E+01 -0.98224032645E+02  0.10818294158E+03  0.51100000000E-03 0. -1.
         11    1    3    3    0    0 -0.45124442514E+02  0.44014711168E+01 -0.11481152367E+03  0.12343935445E+03  0.51100000000E-03 0.  1.
<mgrwt>
<rscale>  0 0.90910614E+02</rscale>
<asrwt>0</asrwt>
<pdfrwt beam="1">  1        1 0.14297494E-02 0.90910614E+02</pdfrwt>
<pdfrwt beam="2">  1       -1 0.34204446E-01 0.90910614E+02</pdfrwt>
<totfact> 0.67787622E+04</totfact>
</mgrwt>
</event>
<event>
 5   1  0.1357339E+00  0.8974827E+02  0.7818608E-02  0.1303462E+00
          1   -1    0    0  501    0  0.00000000000E+00  0.00000000000E+00  0.42493044094E+02  0.42493044351E+02  0.46700000000E-02 0. -1.
         -1   -1    0    0    0  501 -0.00000000000E+00 -0.00000000000E+00 -0.47388644240E+02  0.47388644471E+02  0.46700000000E-02 0.  1.
         23    2    1    2    0    0  0.00000000000E+00  0.00000000000E+00 -0.48956001465E+01  0.89881688821E+02  0.89748265078E+02 0.  0.
        -11    1    3    3    0    0  0.83886865074E+01  0.41810732212E+02  0.11543666627E+02  0.44178768983E+02  0.51100000000E-03 0.  1.
         11    1    3    3    0    0 -0.83886865074E+01 -0.41810732212E+02 -0.16439266773E+02  0.45702919838E+02  0.51100000000E-03 0. -1.
<mgrwt>
<rscale>  0 0.89748265E+02</rscale>
<asrwt>0</asrwt>
<pdfrwt beam="1">  1        1 0.65373914E-02 0.89748265E+02</pdfrwt>
<pdfrwt beam="2">  1       -1 0.72905607E-02 0.89748265E+02</pdfrwt>
<totfact> 0.95650101E+04</totfact>
</mgrwt>
</event>
<event>
 5   1  0.1357339E+00  0.9434216E+02  0.7818608E-02  0.1292665E+00
          1   -1    0    0  501    0  0.00000000000E+00  0.00000000000E+00  0.22314718645E+02  0.22314719134E+02  0.46700000000E-02 0. -1.
         -1   -1    0    0    0  501 -0.00000000000E+00 -0.00000000000E+00 -0.99714939548E+02  0.99714939657E+02  0.46700000000E-02 0.  1.
         23    2    1    2    0    0  0.00000000000E+00  0.00000000000E+00 -0.77400220903E+02  0.12202965879E+03  0.94342161459E+02 0.  0.
        -11    1    3    3    0    0  0.64863737823E+01  0.43742890281E+02 -0.59938295180E+02  0.74485654487E+02  0.51100000000E-03 0.  1.
         11    1    3    3    0    0 -0.64863737823E+01 -0.43742890281E+02 -0.17461925723E+02  0.47544004304E+02  0.51100000000E-03 0. -1.
<mgrwt>
<rscale>  0 0.94342161E+02</rscale>
<asrwt>0</asrwt>
<pdfrwt beam="1">  1        1 0.34330337E-02 0.94342161E+02</pdfrwt>
<pdfrwt beam="2">  1       -1 0.15340760E-01 0.94342161E+02</pdfrwt>
<totfact> 0.74555229E+04</totfact>
</mgrwt>
</event>
<event>
 5   1  0.1357339E+00  0.9184256E+02  0.7818608E-02  0.1298450E+00
          1   -1    0    0  501    0  0.00000000000E+00  0.00000000000E+00  0.21753688883E+03  0.21753688888E+03  0.46700000000E-02 0. -1.
         -1   -1    0    0    0  501 -0.00000000000E+00 -0.00000000000E+00 -0.96938223184E+01  0.96938234433E+01  0.46700000000E-02 0.  1.
         23    2    1    2    0    0  0.00000000000E+00  0.00000000000E+00  0.20784306651E+03  0.22723071232E+03  0.91842562715E+02 0.  0.
        -11    1    3    3    0    0 -0.33856904577E+01 -0.39892157469E+02  0.15957121091E+03  0.16451692460E+03  0.51100000000E-03 0. -1.
         11    1    3    3    0    0  0.33856904577E+01  0.39892157469E+02  0.48271855600E+02  0.62713787725E+02  0.51100000000E-03 0.  1.
<mgrwt>
<rscale>  0 0.91842563E+02</rscale>
<asrwt>0</asrwt>
<pdfrwt beam="1">  1        1 0.33467213E-01 0.91842563E+02</pdfrwt>
<pdfrwt beam="2">  1       -1 0.14913574E-02 0.91842563E+02</pdfrwt>
<totfact> 0.11803386E+05</totfact>
</mgrwt>
</event>
<event>
 5   1  0.1357339E+00  0.9238627E+02  0.7818608E-02  0.1297174E+00
         -1   -1    0    0    0  501 -0.00000000000E+00  0.00000000000E+00  0.26619401498E+02  0.26619401908E+02  0.46700000000E-02 0.  1.
          1   -1    0    0  501    0  0.00000000000E+00 -0.00000000000E+00 -0.80159799666E+02  0.80159799802E+02  0.46700000000E-02 0. -1.
         23    2    1    2    0    0  0.00000000000E+00  0.00000000000E+00 -0.53540398168E+02  0.10677920171E+03  0.92386274315E+02 0.  0.
        -11    1    3    3    0    0  0.16577889434E+02 -0.27911123651E+02 -0.64752456682E+02  0.72434369523E+02  0.51100000000E-03 0. -1.
         11    1    3    3    0    0 -0.16577889434E+02  0.27911123651E+02  0.11212058515E+02  0.34344832187E+02  0.51100000000E-03 0.  1.
<mgrwt>
<rscale>  0 0.92386274E+02</rscale>
<asrwt>0</asrwt>
<pdfrwt beam="2">  1        1 0.12332277E-01 0.92386274E+02</pdfrwt>
<pdfrwt beam="1">  1       -1 0.40952926E-02 0.92386274E+02</pdfrwt>
<totfact> 0.97189732E+04</totfact>
</mgrwt>
</event>
<event>
 5   1  0.1357339E+00  0.9187215E+02  0.7818608E-02  0.1298380E+00
         -1   -1    0    0    0  501 -0.00000000000E+00  0.00000000000E+00  0.24127773263E+03  0.24127773268E+03  0.46700000000E-02 0.  1.
          1   -1    0    0  501    0  0.00000000000E+00 -0.00000000000E+00 -0.87456186040E+01  0.87456198509E+01  0.46700000000E-02 0. -1.
         23    2    1    2    0    0  0.00000000000E+00  0.00000000000E+00  0.23253211403E+03  0.25002335253E+03  0.91872154405E+02 0.  0.
        -11    1    3    3    0    0 -0.28181015045E+02  0.26382728278E+02  0.18402386115E+03  0.18802925153E+03  0.51100000000E-03 0.  1.
         11    1    3    3    0    0  0.28181015045E+02 -0.26382728278E+02  0.48508252881E+02  0.61994100995E+02  0.51100000000E-03 0. -1.
<mgrwt>
<rscale>  0 0.91872154E+02</rscale>
<asrwt>0</asrwt>
<pdfrwt beam="2">  1        1 0.13454800E-02 0.91872154E+02</pdfrwt>
<pdfrwt beam="1">  1       -1 0.37119647E-01 0.91872154E+02</pdfrwt>
<totfact> 0.64249990E+04</totfact>
</mgrwt>
</event>
<event>
 5   1  0.1357339E+00  0.9172586E+02  0.7818608E-02  0.1298725E+00
         -1   -1    0    0    0  501 -0.00000000000E+00  0.00000000000E+00  0.53435927443E+02  0.53435927647E+02  0.46700000000E-02 0.  1.
          1   -1    0    0  501    0  0.00000000000E+00 -0.00000000000E+00 -0.39363186940E+02  0.39363187217E+02  0.46700000000E-02 0. -1.
         23    2    1    2    0    0  0.00000000000E+00  0.00000000000E+00  0.14072740503E+02  0.92799114865E+02  0.91725861644E+02 0.  0.
        -11    1    3    3    0    0  0.31528909804E+02  0.26503783979E+02 -0.13371056658E+02  0.43304825078E+02  0.51100000000E-03 0. -1.
         11    1    3    3    0    0 -0.31528909804E+02 -0.26503783979E+02  0.27443797160E+02  0.49494289787E+02  0.51100000000E-03 0.  1.
<mgrwt>
<rscale>  0 0.91725862E+02</rscale>
<asrwt>0</asrwt>
<pdfrwt beam="2">  1        1 0.60558750E-02 0.91725862E+02</pdfrwt>
<pdfrwt beam="1">  1       -1 0.82209120E-02 0.91725862E+02</pdfrwt>
<totfact> 0.88918269E+04</totfact>
</mgrwt>
</event>
<event>
 5   1  0.1357339E+00  0.9254305E+02  0.7818608E-02  0.1296808E+00
          1   -1    0    0  501    0  0.00000000000E+00  0.00000000000E+00  0.26986061568E+02  0.26986061972E+02  0.46700000000E-02 0. -1.
         -1   -1    0    0    0  501 -0.00000000000E+00 -0.00000000000E+00 -0.79339247045E+02  0.79339247182E+02  0.46700000000E-02 0.  1.
         23    2    1    2    0    0  0.00000000000E+00  0.00000000000E+00 -0.52353185477E+02  0.10632530915E+03  0.92543045860E+02 0.  0.
        -11    1    3    3    0    0  0.45198391438E+01 -0.46030208282E+02 -0.24616073542E+02  0.52394275425E+02  0.51100000000E-03 0. -1.
         11    1    3    3    0    0 -0.45198391438E+01  0.46030208282E+02 -0.27737111935E+02  0.53931033729E+02  0.51100000000E-03 0.  1.
<mgrwt>
<rscale>  0 0.92543046E+02</rscale>
<asrwt>0</asrwt>
<pdfrwt beam="1">  1        1 0.41517019E-02 0.92543046E+02</pdfrwt>
<pdfrwt beam="2">  1       -1 0.12206038E-01 0.92543046E+02</pdfrwt>
<totfact> 0.81599656E+04</totfact>
</mgrwt>
</event>
<event>
 5   1  0.1357339E+00  0.9295458E+02  0.7818608E-02  0.1295850E+00
          1   -1    0    0  501    0  0.00000000000E+00  0.00000000000E+00  0.36355691344E+02  0.36355691644E+02  0.46700000000E-02 0. -1.
         -1   -1    0    0    0  501 -0.00000000000E+00 -0.00000000000E+00 -0.59416792777E+02  0.59416792960E+02  0.46700000000E-02 0.  1.
         23    2    1    2    0    0  0.00000000000E+00  0.00000000000E+00 -0.23061101432E+02  0.95772484604E+02  0.92954582501E+02 0.  0.
        -11    1    3    3    0    0 -0.17287751796E+02  0.34116933090E+02  0.15676533342E+02  0.41335035787E+02  0.51100000000E-03 0. -1.
         11    1    3    3    0    0  0.17287751796E+02 -0.34116933090E+02 -0.38737634774E+02  0.54437448818E+02  0.51100000000E-03 0.  1.
<mgrwt>
<rscale>  0 0.92954583E+02</rscale>
<asrwt>0</asrwt>
<pdfrwt beam="1">  1        1 0.55931833E-02 0.92954583E+02</pdfrwt>
<pdfrwt beam="2">  1       -1 0.91410451E-02 0.92954583E+02</pdfrwt>
<totfact> 0.84569053E+04</totfact>
</mgrwt>
</event>
<event>
 5   1  0.1357339E+00  0.8897012E+02  0.7818608E-02  0.1305365E+00
          1   -1    0    0  501    0  0.00000000000E+00  0.00000000000E+00  0.22510620596E+02  0.22510621081E+02  0.46700000000E-02 0. -1.
         -1   -1    0    0    0  501 -0.00000000000E+00 -0.00000000000E+00 -0.87910525151E+02  0.87910525275E+02  0.46700000000E-02 0.  1.
         23    2    1    2    0    0  0.00000000000E+00  0.00000000000E+00 -0.65399904555E+02  0.11042114636E+03  0.88970118842E+02 0.  0.
        -11    1    3    3    0    0 -0.25122021108E+02  0.17522309960E+02  0.73393163065E+01  0.31496235569E+02  0.51100000000E-03 0. -1.
         11    1    3    3    0    0  0.25122021108E+02 -0.17522309960E+02 -0.72739220862E+02  0.78924910787E+02  0.51100000000E-03 0.  1.
<mgrwt>
<rscale>  0 0.88970119E+02</rscale>
<asrwt>0</asrwt>
<pdfrwt beam="1">  1        1 0.34631725E-02 0.88970119E+02</pdfrwt>
<pdfrwt beam="2">  1       -1 0.13524696E-01 0.88970119E+02</pdfrwt>
<totfact> 0.88685544E+04</totfact>
</mgrwt>
</event>
<event>
 5   1  0.1357339E+00  0.9031341E+02  0.7818608E-02  0.1302095E+00
          1   -1    0    0  501    0  0.00000000000E+00  0.00000000000E+00  0.19571435383E+03  0.19571435388E+03  0.46700000000E-02 0. -1.
         -1   -1    0    0    0  501 -0.00000000000E+00 -0.00000000000E+00 -0.10418897226E+02  0.10418898273E+02  0.46700000000E-02 0.  1.
         23    2    1    2    0    0  0.00000000000E+00  0.00000000000E+00  0.18529545660E+03  0.20613325216E+03  0.90313406575E+02 0.  0.
        -11    1    3    3    0    0  0.41538061038E+02 -0.16022542253E+02  0.75416508371E+02  0.87577292206E+02  0.51100000000E-03 0. -1.
         11    1    3    3    0    0 -0.41538061038E+02  0.16022542253E+02  0.10987894823E+03  0.11855595995E+03  0.51100000000E-03 0.  1.
<mgrwt>
<rscale>  0 0.90313407E+02</rscale>
<asrwt>0</asrwt>
<pdfrwt beam="1">  1        1 0.30109901E-01 0.90313407E+02</pdfrwt>
<pdfrwt beam="2">  1       -1 0.16029073E-02 0.90313407E+02</pdfrwt>
<totfact> 0.12095569E+05</totfact>
</mgrwt>
</event>
<event>
 5   1  0.1357339E+00  0.9564718E+02  0.7818608E-02  0.1289725E+00
          1   -1    0    0  501    0  0.00000000000E+00  0.00000000000E+00  0.18293033893E+02  0.18293034489E+02  0.46700000000E-02 0. -1.
         -1   -1    0    0    0  501 -0.00000000000E+00 -0.00000000000E+00 -0.12502550218E+03  0.12502550227E+03  0.46700000000E-02 0.  1.
         23    2    1    2    0    0  0.00000000000E+00  0.00000000000E+00 -0.10673246829E+03  0.14331853676E+03  0.95647180781E+02 0.  0.
        -11    1    3    3    0    0 -0.23275004775E+01  0.46194452284E+02 -0.71579825091E+02  0.85223330377E+02  0.51100000000E-03 0.  1.
         11    1    3    3    0    0  0.23275004775E+01 -0.46194452284E+02 -0.35152643195E+02  0.58095206378E+02  0.51100000000E-03 0. -1.
<mgrwt>
<rscale>  0 0.95647181E+02</rscale>
<asrwt>0</asrwt>
<pdfrwt beam="1">  1        1 0.28143130E-02 0.95647181E+02</pdfrwt>
<pdfrwt beam="2">  1       -1 0.19234692E-01 0.95647181E+02</pdfrwt>
<totfact> 0.68781332E+04</totfact>
</mgrwt>
</event>
<event>
 5   1  0.1357339E+00  0.9197603E+02  0.7818608E-02  0.1298136E+00
         -1   -1    0    0    0  501 -0.00000000000E+00  0.00000000000E+00  0.14426091696E+02  0.14426092452E+02  0.46700000000E-02 0.  1.
          1   -1    0    0  501    0  0.00000000000E+00 -0.00000000000E+00 -0.14660223631E+03  0.14660223638E+03  0.46700000000E-02 0. -1.
         23    2    1    2    0    0  0.00000000000E+00  0.00000000000E+00 -0.13217614461E+03  0.16102832883E+03  0.91976026674E+02 0.  0.
        -11    1    3    3    0    0 -0.25675442489E+02 -0.19796457665E+02 -0.89860663217E+01  0.33643386740E+02  0.51100000000E-03 0.  1.
         11    1    3    3    0    0  0.25675442489E+02  0.19796457665E+02 -0.12319007829E+03  0.12738494209E+03  0.51100000000E-03 0. -1.
<mgrwt>
<rscale>  0 0.91976027E+02</rscale>
<asrwt>0</asrwt>
<pdfrwt beam="2">  1        1 0.22554189E-01 0.91976027E+02</pdfrwt>
<pdfrwt beam="1">  1       -1 0.22193989E-02 0.91976027E+02</pdfrwt>
<totfact> 0.10905942E+05</totfact>
</mgrwt>
</event>
<event>
 5   1  0.1357339E+00  0.7796954E+02  0.7818608E-02  0.1334914E+00
         -1   -1    0    0    0  501 -0.00000000000E+00  0.00000000000E+00  0.99924231765E+02  0.99924231874E+02  0.46700000000E-02 0.  1.
          1   -1    0    0  501    0  0.00000000000E+00 -0.00000000000E+00 -0.15209648208E+02  0.15209648925E+02  0.46700000000E-02 0. -1.
         23    2    1    2    0    0  0.00000000000E+00  0.00000000000E+00  0.84714583557E+02  0.11513388080E+03  0.77969544315E+02 0.  0.
        -11    1    3    3    0    0  0.37036320386E+02  0.30020804198E+01  0.24940875417E+02  0.44752081308E+02  0.51100000000E-03 0. -1.
         11    1    3    3    0    0 -0.37036320386E+02 -0.30020804198E+01  0.59773708140E+02  0.70381799492E+02  0.51100000000E-03 0.  1.
<mgrwt>
<rscale>  0 0.77969544E+02</rscale>
<asrwt>0</asrwt>
<pdfrwt beam="2">  1        1 0.23399459E-02 0.77969544E+02</pdfrwt>
<pdfrwt beam="1">  1       -1 0.15372959E-01 0.77969544E+02</pdfrwt>
<totfact> 0.12159489E+05</totfact>
</mgrwt>
</event>
<event>
 5   1  0.1357339E+00  0.9048853E+02  0.7818608E-02  0.1301673E+00
          1   -1    0    0  501    0  0.00000000000E+00  0.00000000000E+00  0.62724550244E+01  0.62724567629E+01  0.46700000000E-02 0. -1.
         -1   -1    0    0    0  501 -0.00000000000E+00 -0.00000000000E+00 -0.32635440831E+03  0.32635440834E+03  0.46700000000E-02 0.  1.
         23    2    1    2    0    0  0.00000000000E+00  0.00000000000E+00 -0.32008195329E+03  0.33262686511E+03  0.90488532817E+02 0.  0.
        -11    1    3    3    0    0 -0.44356410541E+02  0.84867882693E+01 -0.17012589015E+03  0.17601799689E+03  0.51100000000E-03 0.  1.
         11    1    3    3    0    0  0.44356410541E+02 -0.84867882693E+01 -0.14995606314E+03  0.15660886822E+03  0.51100000000E-03 0. -1.
<mgrwt>
<rscale>  0 0.90488533E+02</rscale>
<asrwt>0</asrwt>
<pdfrwt beam="1">  1        1 0.96499347E-03 0.90488533E+02</pdfrwt>
<pdfrwt beam="2">  1       -1 0.50208357E-01 0.90488533E+02</pdfrwt>
<totfact> 0.59713258E+04</totfact>
</mgrwt>
</event>
<event>
 5   1  0.1357339E+00  0.9185350E+02  0.7818608E-02  0.1298424E+00
          1   -1    0    0  501    0  0.00000000000E+00  0.00000000000E+00  0.32701382181E+03  0.32701382184E+03  0.46700000000E-02 0. -1.
         -1   -1    0    0    0  501 -0.00000000000E+00 -0.00000000000E+00 -0.64500828663E+01  0.64500845569E+01  0.46700000000E-02 0.  1.
         23    2    1    2    0    0  0.00000000000E+00  0.00000000000E+00  0.32056373894E+03  0.33346390640E+03  0.91853503723E+02 0.  0.
        -11    1    3    3    0    0  0.25542848820E+02  0.37167648619E+02  0.12875903495E+03  0.13642859052E+03  0.51100000000E-03 0. -1.
         11    1    3    3    0    0 -0.25542848820E+02 -0.37167648619E+02  0.19180470399E+03  0.19703531588E+03  0.51100000000E-03 0.  1.
<mgrwt>
<rscale>  0 0.91853504E+02</rscale>
<asrwt>0</asrwt>
<pdfrwt beam="1">  1        1 0.50309828E-01 0.91853504E+02</pdfrwt>
<pdfrwt beam="2">  1       -1 0.99232038E-03 0.91853504E+02</pdfrwt>
<totfact> 0.12767449E+05</totfact>
</mgrwt>
</event>
<event>
 5   1  0.1357339E+00  0.9349516E+02  0.7818608E-02  0.1294602E+00
         -1   -1    0    0    0  501 -0.00000000000E+00  0.00000000000E+00  0.60132556007E+02  0.60132556188E+02  0.46700000000E-02 0.  1.
          1   -1    0    0  501    0  0.00000000000E+00 -0.00000000000E+00 -0.36341981159E+02  0.36341981459E+02  0.46700000000E-02 0. -1.
         23    2    1    2    0    0  0.00000000000E+00  0.00000000000E+00  0.23790574848E+02  0.96474537647E+02  0.93495160102E+02 0.  0.
        -11    1    3    3    0    0  0.33984623215E+02 -0.31690465982E+02  0.66240755285E+01  0.46937390491E+02  0.51100000000E-03 0.  1.
         11    1    3    3    0    0 -0.33984623215E+02  0.31690465982E+02  0.17166499320E+02  0.49537147156E+02  0.51100000000E-03 0. -1.
<mgrwt>
<rscale>  0 0.93495160E+02</rscale>
<asrwt>0</asrwt>
<pdfrwt beam="2">  1        1 0.55910741E-02 0.93495160E+02</pdfrwt>
<pdfrwt beam="1">  1       -1 0.92511625E-02 0.93495160E+02</pdfrwt>
<totfact> 0.83176474E+04</totfact>
</mgrwt>
</event>
<event>
 5   1  0.1357339E+00  0.9265122E+02  0.7818608E-02  0.1296555E+00
         -1   -1    0    0    0  501 -0.00000000000E+00  0.00000000000E+00  0.54543036874E+02  0.54543037074E+02  0.46700000000E-02 0.  1.
          1   -1    0    0  501    0  0.00000000000E+00 -0.00000000000E+00 -0.39346217628E+02  0.39346217905E+02  0.46700000000E-02 0. -1.
         23    2    1    2    0    0  0.00000000000E+00  0.00000000000E+00  0.15196819246E+02  0.93889254978E+02  0.92651221715E+02 0.  0.
        -11    1    3    3    0    0  0.20445706786E+01  0.33267249389E+02  0.40202419452E+02  0.52221879334E+02  0.51100000000E-03 0.  1.
         11    1    3    3    0    0 -0.20445706786E+01 -0.33267249389E+02 -0.25005600206E+02  0.41667375644E+02  0.51100000000E-03 0. -1.
<mgrwt>
<rscale>  0 0.92651222E+02</rscale>
<asrwt>0</asrwt>
<pdfrwt beam="2">  1        1 0.60532643E-02 0.92651222E+02</pdfrwt>
<pdfrwt beam="1">  1       -1 0.83912365E-02 0.92651222E+02</pdfrwt>
<totfact> 0.86417693E+04</totfact>
</mgrwt>
</event>
<event>
 5   1  0.1357339E+00  0.9041308E+02  0.7818608E-02  0.1301854E+00
         -1   -1    0    0    0  501 -0.00000000000E+00  0.00000000000E+00  0.14820321699E+03  0.14820321707E+03  0.46700000000E-02 0.  1.
          1   -1    0    0  501    0  0.00000000000E+00 -0.00000000000E+00 -0.13789384761E+02  0.13789385552E+02  0.46700000000E-02 0. -1.
         23    2    1    2    0    0  0.00000000000E+00  0.00000000000E+00  0.13441383223E+03  0.16199260262E+03  0.90413079848E+02 0.  0.
        -11    1    3    3    0    0  0.15225500059E+02  0.40799749298E+02  0.45469310133E+02  0.62959459647E+02  0.51100000000E-03 0.  1.
         11    1    3    3    0    0 -0.15225500059E+02 -0.40799749298E+02  0.88944522099E+02  0.99033142970E+02  0.51100000000E-03 0. -1.
<mgrwt>
<rscale>  0 0.90413080E+02</rscale>
<asrwt>0</asrwt>
<pdfrwt beam="2">  1        1 0.21214439E-02 0.90413080E+02</pdfrwt>
<pdfrwt beam="1">  1       -1 0.22800495E-01 0.90413080E+02</pdfrwt>
<totfact> 0.76652832E+04</totfact>
</mgrwt>
</event>
<event>
 5   1  0.1357339E+00  0.9056527E+02  0.7818608E-02  0.1301489E+00
         -1   -1    0    0    0  501 -0.00000000000E+00  0.00000000000E+00  0.15967275610E+02  0.15967276293E+02  0.46700000000E-02 0.  1.
          1   -1    0    0  501    0  0.00000000000E+00 -0.00000000000E+00 -0.12841996681E+03  0.12841996689E+03  0.46700000000E-02 0. -1.
         23    2    1    2    0    0  0.00000000000E+00  0.00000000000E+00 -0.11245269120E+03  0.14438724318E+03  0.90565270589E+02 0.  0.
        -11    1    3    3    0    0  0.25090383329E+02  0.35492815995E+02 -0.76471292482E+02  0.87960933925E+02  0.51100000000E-03 0. -1.
         11    1    3    3    0    0 -0.25090383329E+02 -0.35492815995E+02 -0.35981398715E+02  0.56426309259E+02  0.51100000000E-03 0.  1.
<mgrwt>
<rscale>  0 0.90565271E+02</rscale>
<asrwt>0</asrwt>
<pdfrwt beam="2">  1        1 0.19756917E-01 0.90565271E+02</pdfrwt>
<pdfrwt beam="1">  1       -1 0.24565041E-02 0.90565271E+02</pdfrwt>
<totfact> 0.11103326E+05</totfact>
</mgrwt>
</event>
<event>
 5   1  0.1357339E+00  0.9028438E+02  0.7818608E-02  0.1302164E+00
         -1   -1    0    0    0  501 -0.00000000000E+00  0.00000000000E+00  0.99584455349E+02  0.99584455458E+02  0.46700000000E-02 0.  1.
          1   -1    0    0  501    0  0.00000000000E+00 -0.00000000000E+00 -0.20463207556E+02  0.20463208089E+02  0.46700000000E-02 0. -1.
         23    2    1    2    0    0  0.00000000000E+00  0.00000000000E+00  0.79121247793E+02  0.12004766355E+03  0.90284382209E+02 0.  0.
        -11    1    3    3    0    0 -0.21312948677E+02 -0.16836658863E+02  0.87504140634E+02  0.91622538119E+02  0.51100000000E-03 0.  1.
         11    1    3    3    0    0  0.21312948677E+02  0.16836658863E+02 -0.83828928405E+01  0.28425125429E+02  0.51100000000E-03 0. -1.
<mgrwt>
<rscale>  0 0.90284382E+02</rscale>
<asrwt>0</asrwt>
<pdfrwt beam="2">  1        1 0.31481858E-02 0.90284382E+02</pdfrwt>
<pdfrwt beam="1">  1       -1 0.15320686E-01 0.90284382E+02</pdfrwt>
<totfact> 0.83520593E+04</totfact>
</mgrwt>
</event>
<event>
 5   1  0.1357339E+00  0.9159488E+02  0.7818608E-02  0.1299035E+00
          1   -1    0    0  501    0  0.00000000000E+00  0.00000000000E+00  0.80414903518E+02  0.80414903654E+02  0.46700000000E-02 0. -1.
         -1   -1    0    0    0  501 -0.00000000000E+00 -0.00000000000E+00 -0.26082299535E+02  0.26082299953E+02  0.46700000000E-02 0.  1.
         23    2    1    2    0    0  0.00000000000E+00  0.00000000000E+00  0.54332603983E+02  0.10649720361E+03  0.91594882610E+02 0.  0.
        -11    1    3    3    0    0 -0.19061141515E+02 -0.80871377165E+01 -0.20329267246E+02  0.29017374438E+02  0.51100000000E-03 0.  1.
         11    1    3    3    0    0  0.19061141515E+02  0.80871377165E+01  0.74661871229E+02  0.77479829168E+02  0.51100000000E-03 0. -1.
<mgrwt>
<rscale>  0 0.91594883E+02</rscale>
<asrwt>0</asrwt>
<pdfrwt beam="1">  1        1 0.12371523E-01 0.91594883E+02</pdfrwt>
<pdfrwt beam="2">  1       -1 0.40126616E-02 0.91594883E+02</pdfrwt>
<totfact> 0.99567034E+04</totfact>
</mgrwt>
</event>
<event>
 5   1  0.1357339E+00  0.8795754E+02  0.7818608E-02  0.1307875E+00
          1   -1    0    0  501    0  0.00000000000E+00  0.00000000000E+00  0.51614641968E+02  0.51614642180E+02  0.46700000000E-02 0. -1.
         -1   -1    0    0    0  501 -0.00000000000E+00 -0.00000000000E+00 -0.37472546669E+02  0.37472546960E+02  0.46700000000E-02 0.  1.
         23    2    1    2    0    0  0.00000000000E+00  0.00000000000E+00  0.14142095300E+02  0.89087189139E+02  0.87957537535E+02 0.  0.
        -11    1    3    3    0    0  0.14032416990E+02 -0.11737956827E+02  0.47577730438E+02  0.50973804949E+02  0.51100000000E-03 0. -1.
         11    1    3    3    0    0 -0.14032416990E+02  0.11737956827E+02 -0.33435635139E+02  0.38113384190E+02  0.51100000000E-03 0.  1.
<mgrwt>
<rscale>  0 0.87957538E+02</rscale>
<asrwt>0</asrwt>
<pdfrwt beam="1">  1        1 0.79407142E-02 0.87957538E+02</pdfrwt>
<pdfrwt beam="2">  1       -1 0.57650072E-02 0.87957538E+02</pdfrwt>
<totfact> 0.10411659E+05</totfact>
</mgrwt>
</event>
<event>
 5   1  0.1357339E+00  0.9103769E+02  0.7818608E-02  0.1300358E+00
          1   -1    0    0  501    0  0.00000000000E+00  0.00000000000E+00  0.25011727421E+03  0.25011727425E+03  0.46700000000E-02 0. -1.
         -1   -1    0    0    0  501 -0.00000000000E+00 -0.00000000000E+00 -0.82839750353E+01  0.82839763516E+01  0.46700000000E-02 0.  1.
         23    2    1    2    0    0  0.00000000000E+00  0.00000000000E+00  0.24183329917E+03  0.25840125060E+03  0.91037693976E+02 0.  0.
        -11    1    3    3    0    0  0.43527503604E+02  0.11939062187E+02  0.13765614030E+03  0.14486682760E+03  0.51100000000E-03 0.  1.
         11    1    3    3    0    0 -0.43527503604E+02 -0.11939062187E+02  0.10417715887E+03  0.11353442300E+03  0.51100000000E-03 0. -1.
<mgrwt>
<rscale>  0 0.91037694E+02</rscale>
<asrwt>0</asrwt>
<pdfrwt beam="1">  1        1 0.38479585E-01 0.91037694E+02</pdfrwt>
<pdfrwt beam="2">  1       -1 0.12744577E-02 0.91037694E+02</pdfrwt>
<totfact> 0.12418727E+05</totfact>
</mgrwt>
</event>
<event>
 5   1  0.1357339E+00  0.8955058E+02  0.7818608E-02  0.1303944E+00
         -1   -1    0    0    0  501 -0.00000000000E+00  0.00000000000E+00  0.95811245591E+01  0.95811256972E+01  0.46700000000E-02 0.  1.
          1   -1    0    0  501    0  0.00000000000E+00 -0.00000000000E+00 -0.20924753338E+03  0.20924753343E+03  0.46700000000E-02 0. -1.
         23    2    1    2    0    0  0.00000000000E+00  0.00000000000E+00 -0.19966640882E+03  0.21882865913E+03  0.89550584839E+02 0.  0.
        -11    1    3    3    0    0 -0.35396323656E+02 -0.25827615013E+02 -0.77322409490E+02  0.88874745767E+02  0.51100000000E-03 0.  1.
         11    1    3    3    0    0  0.35396323656E+02  0.25827615013E+02 -0.12234399933E+03  0.12995391336E+03  0.51100000000E-03 0. -1.
<mgrwt>
<rscale>  0 0.89550585E+02</rscale>
<asrwt>0</asrwt>
<pdfrwt beam="2">  1        1 0.32191925E-01 0.89550585E+02</pdfrwt>
<pdfrwt beam="1">  1       -1 0.14740194E-02 0.89550585E+02</pdfrwt>
<totfact> 0.12534286E+05</totfact>
</mgrwt>
</event>
<event>
 5   1  0.1357339E+00  0.9125176E+02  0.7818608E-02  0.1299848E+00
         -1   -1    0    0    0  501 -0.00000000000E+00  0.00000000000E+00  0.67145871190E+02  0.67145871352E+02  0.46700000000E-02 0.  1.
          1   -1    0    0  501    0  0.00000000000E+00 -0.00000000000E+00 -0.31002961218E+02  0.31002961570E+02  0.46700000000E-02 0. -1.
         23    2    1    2    0    0  0.00000000000E+00  0.00000000000E+00  0.36142909972E+02  0.98148832922E+02  0.91251758683E+02 0.  0.
        -11    1    3    3    0    0  0.15659183773E+02  0.30276388444E+02  0.50692860580E+02  0.61087116871E+02  0.51100000000E-03 0.  1.
         11    1    3    3    0    0 -0.15659183773E+02 -0.30276388444E+02 -0.14549950608E+02  0.37061716051E+02  0.51100000000E-03 0. -1.
<mgrwt>
<rscale>  0 0.91251759E+02</rscale>
<asrwt>0</asrwt>
<pdfrwt beam="2">  1        1 0.47696865E-02 0.91251759E+02</pdfrwt>
<pdfrwt beam="1">  1       -1 0.10330134E-01 0.91251759E+02</pdfrwt>
<totfact> 0.86938382E+04</totfact>
</mgrwt>
</event>
<event>
 5   1  0.1357339E+00  0.8950256E+02  0.7818608E-02  0.1304061E+00
         -1   -1    0    0    0  501 -0.00000000000E+00  0.00000000000E+00  0.15371177920E+02  0.15371178629E+02  0.46700000000E-02 0.  1.
          1   -1    0    0  501    0  0.00000000000E+00 -0.00000000000E+00 -0.13028780328E+03  0.13028780337E+03  0.46700000000E-02 0. -1.
         23    2    1    2    0    0  0.00000000000E+00  0.00000000000E+00 -0.11491662537E+03  0.14565898200E+03  0.89502560026E+02 0.  0.
        -11    1    3    3    0    0 -0.13908861602E+02 -0.40095246418E+02 -0.34351593101E+02  0.54599607739E+02  0.51100000000E-03 0. -1.
         11    1    3    3    0    0  0.13908861602E+02  0.40095246418E+02 -0.80565032264E+02  0.91059374259E+02  0.51100000000E-03 0.  1.
<mgrwt>
<rscale>  0 0.89502560E+02</rscale>
<asrwt>0</asrwt>
<pdfrwt beam="2">  1        1 0.20044277E-01 0.89502560E+02</pdfrwt>
<pdfrwt beam="1">  1       -1 0.23647968E-02 0.89502560E+02</pdfrwt>
<totfact> 0.11492267E+05</totfact>
</mgrwt>
</event>
<event>
 5   1  0.1357339E+00  0.8672289E+02  0.7818608E-02  0.1310987E+00
          1   -1    0    0  501    0  0.00000000000E+00  0.00000000000E+00  0.26600863761E+02  0.26600864171E+02  0.46700000000E-02 0. -1.
         -1   -1    0    0    0  501 -0.00000000000E+00 -0.00000000000E+00 -0.70682482922E+02  0.70682483076E+02  0.46700000000E-02 0.  1.
         23    2    1    2    0    0  0.00000000000E+00  0.00000000000E+00 -0.44081619161E+02  0.97283347247E+02  0.86722894922E+02 0.  0.
        -11    1    3    3    0    0  0.26165745221E+02 -0.16200116600E+02  0.12226079586E+02  0.33114453387E+02  0.51100000000E-03 0. -1.
         11    1    3    3    0    0 -0.26165745221E+02  0.16200116600E+02 -0.56307698747E+02  0.64168893860E+02  0.51100000000E-03 0.  1.
<mgrwt>
<rscale>  0 0.86722895E+02</rscale>
<asrwt>0</asrwt>
<pdfrwt beam="1">  1        1 0.40924407E-02 0.86722895E+02</pdfrwt>
<pdfrwt beam="2">  1       -1 0.10874228E-01 0.86722895E+02</pdfrwt>
<totfact> 0.98157863E+04</totfact>
</mgrwt>
</event>
<event>
 5   1  0.1357339E+00  0.9094205E+02  0.7818608E-02  0.1300586E+00
         -1   -1    0    0    0  501 -0.00000000000E+00  0.00000000000E+00  0.23943125757E+02  0.23943126212E+02  0.46700000000E-02 0.  1.
          1   -1    0    0  501    0  0.00000000000E+00 -0.00000000000E+00 -0.86355229732E+02  0.86355229859E+02  0.46700000000E-02 0. -1.
         23    2    1    2    0    0  0.00000000000E+00  0.00000000000E+00 -0.62412103975E+02  0.11029835607E+03  0.90942050941E+02 0.  0.
        -11    1    3    3    0    0  0.40546077123E+02  0.19405086813E+02 -0.39527280196E+02  0.59857728359E+02  0.51100000000E-03 0.  1.
         11    1    3    3    0    0 -0.40546077123E+02 -0.19405086813E+02 -0.22884823779E+02  0.50440627712E+02  0.51100000000E-03 0. -1.
<mgrwt>
<rscale>  0 0.90942051E+02</rscale>
<asrwt>0</asrwt>
<pdfrwt beam="2">  1        1 0.13285420E-01 0.90942051E+02</pdfrwt>
<pdfrwt beam="1">  1       -1 0.36835579E-02 0.90942051E+02</pdfrwt>
<totfact> 0.10270018E+05</totfact>
</mgrwt>
</event>
<event>
 5   1  0.1357339E+00  0.1109150E+03  0.7818608E-02  0.1258885E+00
          1   -1    0    0  501    0  0.00000000000E+00  0.00000000000E+00  0.15170223893E+02  0.15170224612E+02  0.46700000000E-02 0. -1.
         -1   -1    0    0    0  501 -0.00000000000E+00 -0.00000000000E+00 -0.20273483475E+03  0.20273483481E+03  0.46700000000E-02 0.  1.
         23    2    1    2    0    0  0.00000000000E+00  0.00000000000E+00 -0.18756461086E+03  0.21790505942E+03  0.11091497497E+03 0.  0.
        -11    1    3    3    0    0 -0.65724681553E+00  0.38183756149E+02 -0.14778902749E+02  0.40949324460E+02  0.51100000000E-03 0. -1.
         11    1    3    3    0    0  0.65724681553E+00 -0.38183756149E+02 -0.17278570811E+03  0.17695573496E+03  0.51100000000E-03 0.  1.
<mgrwt>
<rscale>  0 0.11091497E+03</rscale>
<asrwt>0</asrwt>
<pdfrwt beam="1">  1        1 0.23338808E-02 0.11091497E+03</pdfrwt>
<pdfrwt beam="2">  1       -1 0.31189973E-01 0.11091497E+03</pdfrwt>
<totfact> 0.41382105E+04</totfact>
</mgrwt>
</event>
<event>
 5   1  0.1357339E+00  0.9081799E+02  0.7818608E-02  0.1300883E+00
         -1   -1    0    0    0  501 -0.00000000000E+00  0.00000000000E+00  0.52462956187E+01  0.52462976972E+01  0.46700000000E-02 0. -1.
          1   -1    0    0  501    0  0.00000000000E+00 -0.00000000000E+00 -0.39303472071E+03  0.39303472074E+03  0.46700000000E-02 0.  1.
         23    2    1    2    0    0  0.00000000000E+00  0.00000000000E+00 -0.38778842509E+03  0.39828101844E+03  0.90817988366E+02 0.  0.
        -11    1    3    3    0    0 -0.41926102143E+02 -0.98303832253E+01 -0.25707296120E+03  0.26065483279E+03  0.51100000000E-03 0.  1.
         11    1    3    3    0    0  0.41926102143E+02  0.98303832253E+01 -0.13071546389E+03  0.13762618565E+03  0.51100000000E-03 0. -1.
<mgrwt>
<rscale>  0 0.90817988E+02</rscale>
<asrwt>0</asrwt>
<pdfrwt beam="2">  1        1 0.60466857E-01 0.90817988E+02</pdfrwt>
<pdfrwt beam="1">  1       -1 0.80712288E-03 0.90817988E+02</pdfrwt>
<totfact> 0.13591664E+05</totfact>
</mgrwt>
</event>
<event>
 5   1  0.1357339E+00  0.9374525E+02  0.7818608E-02  0.1294027E+00
         -1   -1    0    0    0  501 -0.00000000000E+00  0.00000000000E+00  0.38307531765E+02  0.38307532049E+02  0.46700000000E-02 0.  1.
          1   -1    0    0  501    0  0.00000000000E+00 -0.00000000000E+00 -0.57352771315E+02  0.57352771505E+02  0.46700000000E-02 0. -1.
         23    2    1    2    0    0  0.00000000000E+00  0.00000000000E+00 -0.19045239551E+02  0.95660303555E+02  0.93745253355E+02 0.  0.
        -11    1    3    3    0    0  0.16432918851E+02  0.16599302528E+02  0.31945774173E+02  0.39574109645E+02  0.51100000000E-03 0.  1.
         11    1    3    3    0    0 -0.16432918851E+02 -0.16599302528E+02 -0.50991013724E+02  0.56086193910E+02  0.51100000000E-03 0. -1.
<mgrwt>
<rscale>  0 0.93745253E+02</rscale>
<asrwt>0</asrwt>
<pdfrwt beam="2">  1        1 0.88235033E-02 0.93745253E+02</pdfrwt>
<pdfrwt beam="1">  1       -1 0.58934665E-02 0.93745253E+02</pdfrwt>
<totfact> 0.88585111E+04</totfact>
</mgrwt>
</event>
<event>
 5   1  0.1357339E+00  0.9107462E+02  0.7818608E-02  0.1300270E+00
          1   -1    0    0  501    0  0.00000000000E+00  0.00000000000E+00  0.57150244647E+02  0.57150244838E+02  0.46700000000E-02 0. -1.
         -1   -1    0    0    0  501 -0.00000000000E+00 -0.00000000000E+00 -0.36284127425E+02  0.36284127726E+02  0.46700000000E-02 0.  1.
         23    2    1    2    0    0  0.00000000000E+00  0.00000000000E+00  0.20866117222E+02  0.93434372564E+02  0.91074623955E+02 0.  0.
        -11    1    3    3    0    0 -0.11562332659E+02 -0.43319729234E+02  0.18599219170E+02  0.48540884123E+02  0.51100000000E-03 0. -1.
         11    1    3    3    0    0  0.11562332659E+02  0.43319729234E+02  0.22668980515E+01  0.44893488441E+02  0.51100000000E-03 0.  1.
<mgrwt>
<rscale>  0 0.91074624E+02</rscale>
<asrwt>0</asrwt>
<pdfrwt beam="1">  1        1 0.87923454E-02 0.91074624E+02</pdfrwt>
<pdfrwt beam="2">  1       -1 0.55821735E-02 0.91074624E+02</pdfrwt>
<totfact> 0.95964670E+04</totfact>
</mgrwt>
</event>
<event>
 5   1  0.1357339E+00  0.9202186E+02  0.7818608E-02  0.1298028E+00
          1   -1    0    0  501    0  0.00000000000E+00  0.00000000000E+00  0.17467539457E+03  0.17467539464E+03  0.46700000000E-02 0. -1.
         -1   -1    0    0    0  501 -0.00000000000E+00 -0.00000000000E+00 -0.12119655572E+02  0.12119656472E+02  0.46700000000E-02 0.  1.
         23    2    1    2    0    0  0.00000000000E+00  0.00000000000E+00  0.16255573900E+03  0.18679505111E+03  0.92021860643E+02 0.  0.
        -11    1    3    3    0    0  0.30589916990E+02 -0.25850030107E+02  0.35299942160E+02  0.53385887599E+02  0.51100000000E-03 0.  1.
         11    1    3    3    0    0 -0.30589916990E+02  0.25850030107E+02  0.12725579684E+03  0.13340916351E+03  0.51100000000E-03 0. -1.
<mgrwt>
<rscale>  0 0.92021861E+02</rscale>
<asrwt>0</asrwt>
<pdfrwt beam="1">  1        1 0.26873137E-01 0.92021861E+02</pdfrwt>
<pdfrwt beam="2">  1       -1 0.18645625E-02 0.92021861E+02</pdfrwt>
<totfact> 0.11253470E+05</totfact>
</mgrwt>
</event>
<event>
 5   1  0.1357339E+00  0.9109442E+02  0.7818608E-02  0.1300223E+00
          1   -1    0    0  501    0  0.00000000000E+00  0.00000000000E+00  0.16710789879E+03  0.16710789886E+03  0.46700000000E-02 0. -1.
         -1   -1    0    0    0  501 -0.00000000000E+00 -0.00000000000E+00 -0.12414423337E+02  0.12414424215E+02  0.46700000000E-02 0.  1.
         23    2    1    2    0    0  0.00000000000E+00  0.00000000000E+00  0.15469347546E+03  0.17952232307E+03  0.91094418780E+02 0.  0.
        -11    1    3    3    0    0  0.18007605173E+02 -0.39480146449E+02  0.50068524836E+02  0.66255663812E+02  0.51100000000E-03 0.  1.
         11    1    3    3    0    0 -0.18007605173E+02  0.39480146449E+02  0.10462495062E+03  0.11326665926E+03  0.51100000000E-03 0. -1.
<mgrwt>
<rscale>  0 0.91094419E+02</rscale>
<asrwt>0</asrwt>
<pdfrwt beam="1">  1        1 0.25708903E-01 0.91094419E+02</pdfrwt>
<pdfrwt beam="2">  1       -1 0.19099117E-02 0.91094419E+02</pdfrwt>
<totfact> 0.11468487E+05</totfact>
</mgrwt>
</event>
<event>
 5   1  0.1357339E+00  0.8124874E+02  0.7818608E-02  0.1325545E+00
         -1   -1    0    0    0  501 -0.00000000000E+00  0.00000000000E+00  0.14795699736E+02  0.14795700473E+02  0.46700000000E-02 0.  1.
          1   -1    0    0  501    0  0.00000000000E+00 -0.00000000000E+00 -0.11154182103E+03  0.11154182113E+03  0.46700000000E-02 0. -1.
         23    2    1    2    0    0  0.00000000000E+00  0.00000000000E+00 -0.96746121297E+02  0.12633752160E+03  0.81248737708E+02 0.  0.
        -11    1    3    3    0    0  0.18834715305E+02  0.25427599944E+02 -0.87987007813E+02  0.93504132976E+02  0.51100000000E-03 0. -1.
         11    1    3    3    0    0 -0.18834715305E+02 -0.25427599944E+02 -0.87591134847E+01  0.32833388628E+02  0.51100000000E-03 0.  1.
<mgrwt>
<rscale>  0 0.81248738E+02</rscale>
<asrwt>0</asrwt>
<pdfrwt beam="2">  1        1 0.17160280E-01 0.81248738E+02</pdfrwt>
<pdfrwt beam="1">  1       -1 0.22762616E-02 0.81248738E+02</pdfrwt>
<totfact> 0.14517990E+05</totfact>
</mgrwt>
</event>
<event>
 5   1  0.1357339E+00  0.8978307E+02  0.7818608E-02  0.1303378E+00
         -1   -1    0    0    0  501 -0.00000000000E+00  0.00000000000E+00  0.51993042050E+01  0.51993063023E+01  0.46700000000E-02 0.  1.
          1   -1    0    0  501    0  0.00000000000E+00 -0.00000000000E+00 -0.38759988259E+03  0.38759988262E+03  0.46700000000E-02 0. -1.
         23    2    1    2    0    0  0.00000000000E+00  0.00000000000E+00 -0.38240057839E+03  0.39279918892E+03  0.89783074504E+02 0.  0.
        -11    1    3    3    0    0 -0.13155381171E+02  0.41923787884E+02 -0.15096424561E+03  0.15722872352E+03  0.51100000000E-03 0.  1.
         11    1    3    3    0    0  0.13155381171E+02 -0.41923787884E+02 -0.23143633278E+03  0.23557046541E+03  0.51100000000E-03 0. -1.
<mgrwt>
<rscale>  0 0.89783075E+02</rscale>
<asrwt>0</asrwt>
<pdfrwt beam="2">  1        1 0.59630729E-01 0.89783075E+02</pdfrwt>
<pdfrwt beam="1">  1       -1 0.79989342E-03 0.89783075E+02</pdfrwt>
<totfact> 0.13978569E+05</totfact>
</mgrwt>
</event>
<event>
 5   1  0.1357339E+00  0.1063925E+03  0.7818608E-02  0.1267400E+00
          1   -1    0    0  501    0  0.00000000000E+00  0.00000000000E+00  0.18748109505E+03  0.18748109511E+03  0.46700000000E-02 0. -1.
         -1   -1    0    0    0  501 -0.00000000000E+00 -0.00000000000E+00 -0.15094002568E+02  0.15094003290E+02  0.46700000000E-02 0.  1.
         23    2    1    2    0    0  0.00000000000E+00  0.00000000000E+00  0.17238709248E+03  0.20257509840E+03  0.10639248487E+03 0.  0.
        -11    1    3    3    0    0 -0.26355392974E+02 -0.45115306227E+02  0.67168177711E+02  0.85097365952E+02  0.51100000000E-03 0. -1.
         11    1    3    3    0    0  0.26355392974E+02  0.45115306227E+02  0.10521891477E+03  0.11747773245E+03  0.51100000000E-03 0.  1.
<mgrwt>
<rscale>  0 0.10639248E+03</rscale>
<asrwt>0</asrwt>
<pdfrwt beam="1">  1        1 0.28843244E-01 0.10639248E+03</pdfrwt>
<pdfrwt beam="2">  1       -1 0.23221544E-02 0.10639248E+03</pdfrwt>
<totfact> 0.76970398E+04</totfact>
</mgrwt>
</event>
<event>
 5   1  0.1357339E+00  0.9068586E+02  0.7818608E-02  0.1301199E+00
         -1   -1    0    0    0  501 -0.00000000000E+00  0.00000000000E+00  0.95072560896E+01  0.95072572366E+01  0.46700000000E-02 0.  1.
          1   -1    0    0  501    0  0.00000000000E+00 -0.00000000000E+00 -0.21625389116E+03  0.21625389121E+03  0.46700000000E-02 0. -1.
         23    2    1    2    0    0  0.00000000000E+00  0.00000000000E+00 -0.20674663507E+03  0.22576114845E+03  0.90685859070E+02 0.  0.
        -11    1    3    3    0    0  0.23741021478E+02  0.24745475658E+02 -0.17722367418E+03  0.18051095633E+03  0.51100000000E-03 0. -1.
         11    1    3    3    0    0 -0.23741021478E+02 -0.24745475658E+02 -0.29522960893E+02  0.45250192116E+02  0.51100000000E-03 0.  1.
<mgrwt>
<rscale>  0 0.90685859E+02</rscale>
<asrwt>0</asrwt>
<pdfrwt beam="2">  1        1 0.33269826E-01 0.90685859E+02</pdfrwt>
<pdfrwt beam="1">  1       -1 0.14626550E-02 0.90685859E+02</pdfrwt>
<totfact> 0.12196976E+05</totfact>
</mgrwt>
</event>
<event>
 5   1  0.1357339E+00  0.9749009E+02  0.7818608E-02  0.1285664E+00
         -1   -1    0    0    0  501 -0.00000000000E+00  0.00000000000E+00  0.19033737964E+02  0.19033738537E+02  0.46700000000E-02 0.  1.
          1   -1    0    0  501    0  0.00000000000E+00 -0.00000000000E+00 -0.12483515372E+03  0.12483515380E+03  0.46700000000E-02 0. -1.
         23    2    1    2    0    0  0.00000000000E+00  0.00000000000E+00 -0.10580141575E+03  0.14386889234E+03  0.97490094923E+02 0.  0.
        -11    1    3    3    0    0 -0.29323808347E+02 -0.30854062132E+02 -0.87954171724E+02  0.97712820089E+02  0.51100000000E-03 0. -1.
         11    1    3    3    0    0  0.29323808347E+02  0.30854062132E+02 -0.17847244030E+02  0.46156072252E+02  0.51100000000E-03 0.  1.
<mgrwt>
<rscale>  0 0.97490095E+02</rscale>
<asrwt>0</asrwt>
<pdfrwt beam="2">  1        1 0.19205408E-01 0.97490095E+02</pdfrwt>
<pdfrwt beam="1">  1       -1 0.29282675E-02 0.97490095E+02</pdfrwt>
<totfact> 0.90409197E+04</totfact>
</mgrwt>
</event>
<event>
 5   1  0.1357339E+00  0.7980059E+02  0.7818608E-02  0.1329618E+00
         -1   -1    0    0    0  501 -0.00000000000E+00  0.00000000000E+00  0.23662804549E+03  0.23662804554E+03  0.46700000000E-02 0. -1.
          1   -1    0    0  501    0  0.00000000000E+00 -0.00000000000E+00 -0.67279988618E+01  0.67280004825E+01  0.46700000000E-02 0.  1.
         23    2    1    2    0    0  0.00000000000E+00  0.00000000000E+00  0.22990004663E+03  0.24335604602E+03  0.79800587054E+02 0.  0.
        -11    1    3    3    0    0 -0.20818192142E+02  0.27482442984E+02  0.53703990785E+02  0.63818495931E+02  0.51100000000E-03 0.  1.
         11    1    3    3    0    0  0.20818192142E+02 -0.27482442984E+02  0.17619605584E+03  0.17953755009E+03  0.51100000000E-03 0. -1.
<mgrwt>
<rscale>  0 0.79800587E+02</rscale>
<asrwt>0</asrwt>
<pdfrwt beam="2">  1        1 0.10350769E-02 0.79800587E+02</pdfrwt>
<pdfrwt beam="1">  1       -1 0.36404315E-01 0.79800587E+02</pdfrwt>
<totfact> 0.93237735E+04</totfact>
</mgrwt>
</event>
<event>
 5   1  0.1357339E+00  0.9092765E+02  0.7818608E-02  0.1300621E+00
          1   -1    0    0  501    0  0.00000000000E+00  0.00000000000E+00  0.23920225818E+03  0.23920225823E+03  0.46700000000E-02 0. -1.
         -1   -1    0    0    0  501 -0.00000000000E+00 -0.00000000000E+00 -0.86410522391E+01  0.86410535010E+01  0.46700000000E-02 0.  1.
         23    2    1    2    0    0  0.00000000000E+00  0.00000000000E+00  0.23056120594E+03  0.24784331173E+03  0.90927649715E+02 0.  0.
        -11    1    3    3    0    0 -0.43730762301E+02 -0.11120158179E+02  0.10012357015E+03  0.10982152243E+03  0.51100000000E-03 0.  1.
         11    1    3    3    0    0  0.43730762301E+02  0.11120158179E+02  0.13043763579E+03  0.13802178930E+03  0.51100000000E-03 0. -1.
<mgrwt>
<rscale>  0 0.90927650E+02</rscale>
<asrwt>0</asrwt>
<pdfrwt beam="1">  1        1 0.36800349E-01 0.90927650E+02</pdfrwt>
<pdfrwt beam="2">  1       -1 0.13293927E-02 0.90927650E+02</pdfrwt>
<totfact> 0.12351051E+05</totfact>
</mgrwt>
</event>
<event>
 5   1  0.1357339E+00  0.9180852E+02  0.7818608E-02  0.1298530E+00
          1   -1    0    0  501    0  0.00000000000E+00  0.00000000000E+00  0.14737854347E+03  0.14737854354E+03  0.46700000000E-02 0. -1.
         -1   -1    0    0    0  501 -0.00000000000E+00 -0.00000000000E+00 -0.14297883300E+02  0.14297884063E+02  0.46700000000E-02 0.  1.
         23    2    1    2    0    0  0.00000000000E+00  0.00000000000E+00  0.13308066017E+03  0.16167642761E+03  0.91808524291E+02 0.  0.
        -11    1    3    3    0    0  0.14913286763E+02  0.41379398915E+02  0.43408540575E+02  0.61797752157E+02  0.51100000000E-03 0. -1.
         11    1    3    3    0    0 -0.14913286763E+02 -0.41379398915E+02  0.89672119593E+02  0.99878675448E+02  0.51100000000E-03 0.  1.
<mgrwt>
<rscale>  0 0.91808524E+02</rscale>
<asrwt>0</asrwt>
<pdfrwt beam="1">  1        1 0.22673621E-01 0.91808524E+02</pdfrwt>
<pdfrwt beam="2">  1       -1 0.21996745E-02 0.91808524E+02</pdfrwt>
<totfact> 0.10970452E+05</totfact>
</mgrwt>
</event>
<event>
 5   1  0.1357339E+00  0.9247268E+02  0.7818608E-02  0.1296972E+00
          1   -1    0    0  501    0  0.00000000000E+00  0.00000000000E+00  0.64016543300E+02  0.64016543470E+02  0.46700000000E-02 0. -1.
         -1   -1    0    0    0  501 -0.00000000000E+00 -0.00000000000E+00 -0.33394475680E+02  0.33394476006E+02  0.46700000000E-02 0.  1.
         23    2    1    2    0    0  0.00000000000E+00  0.00000000000E+00  0.30622067620E+02  0.97411019476E+02  0.92472675370E+02 0.  0.
        -11    1    3    3    0    0 -0.19967078194E+02 -0.38409116161E+02  0.32422094195E+02  0.54084532060E+02  0.51100000000E-03 0. -1.
         11    1    3    3    0    0  0.19967078194E+02  0.38409116161E+02 -0.18000265745E+01  0.43326487416E+02  0.51100000000E-03 0.  1.
<mgrwt>
<rscale>  0 0.92472675E+02</rscale>
<asrwt>0</asrwt>
<pdfrwt beam="1">  1        1 0.98486988E-02 0.92472675E+02</pdfrwt>
<pdfrwt beam="2">  1       -1 0.51376118E-02 0.92472675E+02</pdfrwt>
<totfact> 0.93589892E+04</totfact>
</mgrwt>
</event>
<event>
 5   1  0.1357339E+00  0.9197614E+02  0.7818608E-02  0.1298136E+00
         -1   -1    0    0    0  501 -0.00000000000E+00  0.00000000000E+00  0.16711855977E+02  0.16711856630E+02  0.46700000000E-02 0.  1.
          1   -1    0    0  501    0  0.00000000000E+00 -0.00000000000E+00 -0.12655103231E+03  0.12655103240E+03  0.46700000000E-02 0. -1.
         23    2    1    2    0    0  0.00000000000E+00  0.00000000000E+00 -0.10983917634E+03  0.14326288903E+03  0.91976142096E+02 0.  0.
        -11    1    3    3    0    0  0.25843216327E+02  0.16025833136E+02 -0.11831185354E+01  0.30431873547E+02  0.51100000000E-03 0.  1.
         11    1    3    3    0    0 -0.25843216327E+02 -0.16025833136E+02 -0.10865605780E+03  0.11283101548E+03  0.51100000000E-03 0. -1.
<mgrwt>
<rscale>  0 0.91976142E+02</rscale>
<asrwt>0</asrwt>
<pdfrwt beam="2">  1        1 0.19469389E-01 0.91976142E+02</pdfrwt>
<pdfrwt beam="1">  1       -1 0.25710549E-02 0.91976142E+02</pdfrwt>
<totfact> 0.10620326E+05</totfact>
</mgrwt>
</event>
<event>
 5   1  0.1357339E+00  0.8854249E+02  0.7818608E-02  0.1306420E+00
          1   -1    0    0  501    0  0.00000000000E+00  0.00000000000E+00  0.42821163217E+03  0.42821163220E+03  0.46700000000E-02 0. -1.
         -1   -1    0    0    0  501 -0.00000000000E+00 -0.00000000000E+00 -0.45770416338E+01  0.45770440162E+01  0.46700000000E-02 0.  1.
         23    2    1    2    0    0  0.00000000000E+00  0.00000000000E+00  0.42363459054E+03  0.43278867622E+03  0.88542486741E+02 0.  0.
        -11    1    3    3    0    0 -0.38388452521E+02  0.21307823037E+02  0.23957379233E+03  0.24356374645E+03  0.51100000000E-03 0.  1.
         11    1    3    3    0    0  0.38388452521E+02 -0.21307823037E+02  0.18406079821E+03  0.18922492977E+03  0.51100000000E-03 0. -1.
<mgrwt>
<rscale>  0 0.88542487E+02</rscale>
<asrwt>0</asrwt>
<pdfrwt beam="1">  1        1 0.65878733E-01 0.88542487E+02</pdfrwt>
<pdfrwt beam="2">  1       -1 0.70416022E-03 0.88542487E+02</pdfrwt>
<totfact> 0.14736481E+05</totfact>
</mgrwt>
</event>
<event>
 5   1  0.1357339E+00  0.9111954E+02  0.7818608E-02  0.1300163E+00
          1   -1    0    0  501    0  0.00000000000E+00  0.00000000000E+00  0.11431383675E+02  0.11431384629E+02  0.46700000000E-02 0. -1.
         -1   -1    0    0    0  501 -0.00000000000E+00 -0.00000000000E+00 -0.18157841173E+03  0.18157841179E+03  0.46700000000E-02 0.  1.
         23    2    1    2    0    0  0.00000000000E+00  0.00000000000E+00 -0.17014702805E+03  0.19300979642E+03  0.91119538836E+02 0.  0.
        -11    1    3    3    0    0 -0.35121904916E+02 -0.19063943140E+02 -0.13141866448E+03  0.13736028359E+03  0.51100000000E-03 0.  1.
         11    1    3    3    0    0  0.35121904916E+02  0.19063943140E+02 -0.38728363572E+02  0.55649512830E+02  0.51100000000E-03 0. -1.
<mgrwt>
<rscale>  0 0.91119539E+02</rscale>
<asrwt>0</asrwt>
<pdfrwt beam="1">  1        1 0.17586746E-02 0.91119539E+02</pdfrwt>
<pdfrwt beam="2">  1       -1 0.27935138E-01 0.91119539E+02</pdfrwt>
<totfact> 0.71420312E+04</totfact>
</mgrwt>
</event>
<event>
 5   1  0.1357339E+00  0.8730368E+02  0.7818608E-02  0.1309516E+00
          1   -1    0    0  501    0  0.00000000000E+00  0.00000000000E+00  0.31695812153E+03  0.31695812157E+03  0.46700000000E-02 0. -1.
         -1   -1    0    0    0  501 -0.00000000000E+00 -0.00000000000E+00 -0.60117806820E+01  0.60117824959E+01  0.46700000000E-02 0.  1.
         23    2    1    2    0    0  0.00000000000E+00  0.00000000000E+00  0.31094634085E+03  0.32296990406E+03  0.87303677139E+02 0.  0.
        -11    1    3    3    0    0 -0.36246696652E+01  0.41313116538E+02  0.10507847958E+03  0.11296636092E+03  0.51100000000E-03 0.  1.
         11    1    3    3    0    0  0.36246696652E+01 -0.41313116538E+02  0.20586786128E+03  0.21000354315E+03  0.51100000000E-03 0. -1.
<mgrwt>
<rscale>  0 0.87303677E+02</rscale>
<asrwt>0</asrwt>
<pdfrwt beam="1">  1        1 0.48762792E-01 0.87303677E+02</pdfrwt>
<pdfrwt beam="2">  1       -1 0.92488939E-03 0.87303677E+02</pdfrwt>
<totfact> 0.14527593E+05</totfact>
</mgrwt>
</event>
<event>
 5   1  0.1357339E+00  0.9137518E+02  0.7818608E-02  0.1299555E+00
          1   -1    0    0  501    0  0.00000000000E+00  0.00000000000E+00  0.52738364890E+02  0.52738365097E+02  0.46700000000E-02 0. -1.
         -1   -1    0    0    0  501 -0.00000000000E+00 -0.00000000000E+00 -0.39579453339E+02  0.39579453614E+02  0.46700000000E-02 0.  1.
         23    2    1    2    0    0  0.00000000000E+00  0.00000000000E+00  0.13158911552E+02  0.92317818711E+02  0.91375175504E+02 0.  0.
        -11    1    3    3    0    0  0.34048366251E+01  0.12763984015E+02 -0.37607799624E+02  0.39860491633E+02  0.51100000000E-03 0.  1.
         11    1    3    3    0    0 -0.34048366251E+01 -0.12763984015E+02  0.50766711176E+02  0.52457327079E+02  0.51100000000E-03 0. -1.
<mgrwt>
<rscale>  0 0.91375176E+02</rscale>
<asrwt>0</asrwt>
<pdfrwt beam="1">  1        1 0.81135947E-02 0.91375176E+02</pdfrwt>
<pdfrwt beam="2">  1       -1 0.60891467E-02 0.91375176E+02</pdfrwt>
<totfact> 0.93945697E+04</totfact>
</mgrwt>
</event>
<event>
 5   1  0.1357339E+00  0.9065589E+02  0.7818608E-02  0.1301271E+00
         -1   -1    0    0    0  501 -0.00000000000E+00  0.00000000000E+00  0.33910549578E+02  0.33910549900E+02  0.46700000000E-02 0.  1.
          1   -1    0    0  501    0  0.00000000000E+00 -0.00000000000E+00 -0.60589483449E+02  0.60589483629E+02  0.46700000000E-02 0. -1.
         23    2    1    2    0    0  0.00000000000E+00  0.00000000000E+00 -0.26678933871E+02  0.94500033529E+02  0.90655892387E+02 0.  0.
        -11    1    3    3    0    0 -0.14961382359E+02 -0.36943064004E+02  0.91626882071E+01  0.40897283474E+02  0.51100000000E-03 0.  1.
         11    1    3    3    0    0  0.14961382359E+02  0.36943064004E+02 -0.35841622078E+02  0.53602750055E+02  0.51100000000E-03 0. -1.
<mgrwt>
<rscale>  0 0.90655892E+02</rscale>
<asrwt>0</asrwt>
<pdfrwt beam="2">  1        1 0.93214590E-02 0.90655892E+02</pdfrwt>
<pdfrwt beam="1">  1       -1 0.52170077E-02 0.90655892E+02</pdfrwt>
<totfact> 0.98058289E+04</totfact>
</mgrwt>
</event>
<event>
 5   1  0.1357339E+00  0.9250285E+02  0.7818608E-02  0.1296901E+00
         -1   -1    0    0    0  501 -0.00000000000E+00  0.00000000000E+00  0.68838346303E+01  0.68838362143E+01  0.46700000000E-02 0.  1.
          1   -1    0    0  501    0  0.00000000000E+00 -0.00000000000E+00 -0.31075613599E+03  0.31075613603E+03  0.46700000000E-02 0. -1.
         23    2    1    2    0    0  0.00000000000E+00  0.00000000000E+00 -0.30387230136E+03  0.31763997224E+03  0.92502845528E+02 0.  0.
        -11    1    3    3    0    0  0.18905944135E+02  0.36932084381E+02 -0.22212274243E+03  0.22596443588E+03  0.51100000000E-03 0. -1.
         11    1    3    3    0    0 -0.18905944135E+02 -0.36932084381E+02 -0.81749558935E+02  0.91675536359E+02  0.51100000000E-03 0.  1.
<mgrwt>
<rscale>  0 0.92502846E+02</rscale>
<asrwt>0</asrwt>
<pdfrwt beam="2">  1        1 0.47808625E-01 0.92502846E+02</pdfrwt>
<pdfrwt beam="1">  1       -1 0.10590518E-02 0.92502846E+02</pdfrwt>
<totfact> 0.12410837E+05</totfact>
</mgrwt>
</event>
<event>
 5   1  0.1357339E+00  0.9074436E+02  0.7818608E-02  0.1301059E+00
          1   -1    0    0  501    0  0.00000000000E+00  0.00000000000E+00  0.66150884356E+01  0.66150900840E+01  0.46700000000E-02 0. -1.
         -1   -1    0    0    0  501 -0.00000000000E+00 -0.00000000000E+00 -0.31120288611E+03  0.31120288615E+03  0.46700000000E-02 0.  1.
         23    2    1    2    0    0  0.00000000000E+00  0.00000000000E+00 -0.30458779768E+03  0.31781797623E+03  0.90744363584E+02 0.  0.
        -11    1    3    3    0    0  0.15780206464E+01 -0.43412913149E+02 -0.19815504433E+03  0.20286101836E+03  0.51100000000E-03 0. -1.
         11    1    3    3    0    0 -0.15780206464E+01  0.43412913149E+02 -0.10643275334E+03  0.11495695787E+03  0.51100000000E-03 0.  1.
<mgrwt>
<rscale>  0 0.90744364E+02</rscale>
<asrwt>0</asrwt>
<pdfrwt beam="1">  1        1 0.10177063E-02 0.90744364E+02</pdfrwt>
<pdfrwt beam="2">  1       -1 0.47877356E-01 0.90744364E+02</pdfrwt>
<totfact> 0.60451912E+04</totfact>
</mgrwt>
</event>
<event>
 4   1  0.1357339E+00  0.3912351E+02  0.7818608E-02  0.1514762E+00
         -1   -1    0    0    0  501 -0.00000000000E+00  0.00000000000E+00  0.36029505418E+02  0.36029505721E+02  0.46700000000E-02 0.  1.
          1   -1    0    0  501    0  0.00000000000E+00 -0.00000000000E+00 -0.10620803057E+02  0.10620804084E+02  0.46700000000E-02 0. -1.
        -11    1    1    2    0    0 -0.65601089186E+01 -0.15353336327E+02  0.24858634873E+02  0.29945144738E+02  0.51100000000E-03 0. -1.
         11    1    1    2    0    0  0.65601089186E+01  0.15353336327E+02  0.55006748886E+00  0.16705165066E+02  0.51100000000E-03 0.  1.
<mgrwt>
<rscale>  0 0.39123513E+02</rscale>
<asrwt>0</asrwt>
<pdfrwt beam="2">  1        1 0.16339698E-02 0.39123513E+02</pdfrwt>
<pdfrwt beam="1">  1       -1 0.55430008E-02 0.39123513E+02</pdfrwt>
<totfact> 0.76565767E+05</totfact>
</mgrwt>
</event>
<event>
 5   1  0.1357339E+00  0.9075115E+02  0.7818608E-02  0.1301043E+00
          1   -1    0    0  501    0  0.00000000000E+00  0.00000000000E+00  0.47654369464E+03  0.47654369466E+03  0.46700000000E-02 0. -1.
         -1   -1    0    0    0  501 -0.00000000000E+00 -0.00000000000E+00 -0.43205736825E+01  0.43205762063E+01  0.46700000000E-02 0.  1.
         23    2    1    2    0    0  0.00000000000E+00  0.00000000000E+00  0.47222312096E+03  0.48086427087E+03  0.90751148928E+02 0.  0.
        -11    1    3    3    0    0  0.10365550239E+02  0.43798988403E+02  0.26661794875E+03  0.27039032270E+03  0.51100000000E-03 0. -1.
         11    1    3    3    0    0 -0.10365550239E+02 -0.43798988403E+02  0.20560517221E+03  0.21047394817E+03  0.51100000000E-03 0.  1.
<mgrwt>
<rscale>  0 0.90751149E+02</rscale>
<asrwt>0</asrwt>
<pdfrwt beam="1">  1        1 0.73314376E-01 0.90751149E+02</pdfrwt>
<pdfrwt beam="2">  1       -1 0.66470419E-03 0.90751149E+02</pdfrwt>
<totfact> 0.14016433E+05</totfact>
</mgrwt>
</event>
<event>
 5   1  0.1357339E+00  0.9118706E+02  0.7818608E-02  0.1300002E+00
         -1   -1    0    0    0  501 -0.00000000000E+00  0.00000000000E+00  0.79335521325E+02  0.79335521463E+02  0.46700000000E-02 0.  1.
          1   -1    0    0  501    0  0.00000000000E+00 -0.00000000000E+00 -0.26202258108E+02  0.26202258524E+02  0.46700000000E-02 0. -1.
         23    2    1    2    0    0  0.00000000000E+00  0.00000000000E+00  0.53133263217E+02  0.10553777999E+03  0.91187056891E+02 0.  0.
        -11    1    3    3    0    0 -0.57652168909E+01  0.43369095594E+02  0.41417793988E+02  0.60245745390E+02  0.51100000000E-03 0.  1.
         11    1    3    3    0    0  0.57652168909E+01 -0.43369095594E+02  0.11715469229E+02  0.45292034597E+02  0.51100000000E-03 0. -1.
<mgrwt>
<rscale>  0 0.91187057E+02</rscale>
<asrwt>0</asrwt>
<pdfrwt beam="2">  1        1 0.40311168E-02 0.91187057E+02</pdfrwt>
<pdfrwt beam="1">  1       -1 0.12205465E-01 0.91187057E+02</pdfrwt>
<totfact> 0.84745574E+04</totfact>
</mgrwt>
</event>
<event>
 5   1  0.1357339E+00  0.9100753E+02  0.7818608E-02  0.1300430E+00
         -1   -1    0    0    0  501 -0.00000000000E+00  0.00000000000E+00  0.31951919668E+02  0.31951920009E+02  0.46700000000E-02 0.  1.
          1   -1    0    0  501    0  0.00000000000E+00 -0.00000000000E+00 -0.64803380428E+02  0.64803380596E+02  0.46700000000E-02 0. -1.
         23    2    1    2    0    0  0.00000000000E+00  0.00000000000E+00 -0.32851460760E+02  0.96755300606E+02  0.91007525630E+02 0.  0.
        -11    1    3    3    0    0  0.53411072322E+01  0.28363672396E+02  0.20975150945E+02  0.35678877444E+02  0.51100000000E-03 0.  1.
         11    1    3    3    0    0 -0.53411072322E+01 -0.28363672396E+02 -0.53826611705E+02  0.61076423161E+02  0.51100000000E-03 0. -1.
<mgrwt>
<rscale>  0 0.91007526E+02</rscale>
<asrwt>0</asrwt>
<pdfrwt beam="2">  1        1 0.99697508E-02 0.91007526E+02</pdfrwt>
<pdfrwt beam="1">  1       -1 0.49156800E-02 0.91007526E+02</pdfrwt>
<totfact> 0.98008619E+04</totfact>
</mgrwt>
</event>
<event>
 5   1  0.1357339E+00  0.9111637E+02  0.7818608E-02  0.1300171E+00
         -1   -1    0    0    0  501 -0.00000000000E+00  0.00000000000E+00  0.11110261033E+02  0.11110262015E+02  0.46700000000E-02 0.  1.
          1   -1    0    0  501    0  0.00000000000E+00 -0.00000000000E+00 -0.18681360707E+03  0.18681360712E+03  0.46700000000E-02 0. -1.
         23    2    1    2    0    0  0.00000000000E+00  0.00000000000E+00 -0.17570334603E+03  0.19792386914E+03  0.91116366082E+02 0.  0.
        -11    1    3    3    0    0  0.21631399674E+02  0.39988434246E+02 -0.94205420814E+02  0.10460235961E+03  0.51100000000E-03 0. -1.
         11    1    3    3    0    0 -0.21631399674E+02 -0.39988434246E+02 -0.81497925218E+02  0.93321509527E+02  0.51100000000E-03 0.  1.
<mgrwt>
<rscale>  0 0.91116366E+02</rscale>
<asrwt>0</asrwt>
<pdfrwt beam="2">  1        1 0.28740553E-01 0.91116366E+02</pdfrwt>
<pdfrwt beam="1">  1       -1 0.17092711E-02 0.91116366E+02</pdfrwt>
<totfact> 0.11706459E+05</totfact>
</mgrwt>
</event>
<event>
 5   1  0.1357339E+00  0.9867922E+02  0.7818608E-02  0.1283098E+00
         -1   -1    0    0    0  501 -0.00000000000E+00  0.00000000000E+00  0.72039100496E+02  0.72039100647E+02  0.46700000000E-02 0.  1.
          1   -1    0    0  501    0  0.00000000000E+00 -0.00000000000E+00 -0.33792722040E+02  0.33792722362E+02  0.46700000000E-02 0. -1.
         23    2    1    2    0    0  0.00000000000E+00  0.00000000000E+00  0.38246378456E+02  0.10583182301E+03  0.98679224239E+02 0.  0.
        -11    1    3    3    0    0 -0.43478971559E+02  0.96604579486E+01 -0.36440912447E+01  0.44688083611E+02  0.51100000000E-03 0. -1.
         11    1    3    3    0    0  0.43478971559E+02 -0.96604579486E+01  0.41890469701E+02  0.61143739398E+02  0.51100000000E-03 0.  1.
<mgrwt>
<rscale>  0 0.98679224E+02</rscale>
<asrwt>0</asrwt>
<pdfrwt beam="2">  1        1 0.51988805E-02 0.98679224E+02</pdfrwt>
<pdfrwt beam="1">  1       -1 0.11082938E-01 0.98679224E+02</pdfrwt>
<totfact> 0.70380175E+04</totfact>
</mgrwt>
</event>
<event>
 5   1  0.1357339E+00  0.9017711E+02  0.7818608E-02  0.1302423E+00
         -1   -1    0    0    0  501 -0.00000000000E+00  0.00000000000E+00  0.28583847957E+03  0.28583847961E+03  0.46700000000E-02 0.  1.
          1   -1    0    0  501    0  0.00000000000E+00 -0.00000000000E+00 -0.71123304725E+01  0.71123320056E+01  0.46700000000E-02 0. -1.
         23    2    1    2    0    0  0.00000000000E+00  0.00000000000E+00  0.27872614910E+03  0.29295081162E+03  0.90177113696E+02 0.  0.
        -11    1    3    3    0    0  0.12454425891E+02 -0.36347936346E+02  0.21601201582E+03  0.21940254370E+03  0.51100000000E-03 0.  1.
         11    1    3    3    0    0 -0.12454425891E+02  0.36347936346E+02  0.62714133277E+02  0.73548267919E+02  0.51100000000E-03 0. -1.
<mgrwt>
<rscale>  0 0.90177114E+02</rscale>
<asrwt>0</asrwt>
<pdfrwt beam="2">  1        1 0.10942051E-02 0.90177114E+02</pdfrwt>
<pdfrwt beam="1">  1       -1 0.43975140E-01 0.90177114E+02</pdfrwt>
<totfact> 0.63531294E+04</totfact>
</mgrwt>
</event>
<event>
 4   1  0.1357339E+00  0.2169385E+02  0.7818608E-02  0.1713601E+00
         -1   -1    0    0    0  501 -0.00000000000E+00  0.00000000000E+00  0.37388560855E+02  0.37388561146E+02  0.46700000000E-02 0. -1.
          1   -1    0    0  501    0  0.00000000000E+00 -0.00000000000E+00 -0.31468381193E+01  0.31468415845E+01  0.46700000000E-02 0.  1.
        -11    1    1    2    0    0  0.55042401744E+01 -0.85009807223E+01  0.98618371205E+01  0.14135740688E+02  0.51100000000E-03 0.  1.
         11    1    1    2    0    0 -0.55042401744E+01  0.85009807223E+01  0.24379885615E+02  0.26399662043E+02  0.51100000000E-03 0. -1.
<mgrwt>
<rscale>  0 0.21693854E+02</rscale>
<asrwt>0</asrwt>
<pdfrwt beam="2">  1        1 0.48412923E-03 0.21693854E+02</pdfrwt>
<pdfrwt beam="1">  1       -1 0.57520866E-02 0.21693854E+02</pdfrwt>
<totfact> 0.29960475E+06</totfact>
</mgrwt>
</event>
<event>
 5   1  0.1357339E+00  0.9066215E+02  0.7818608E-02  0.1301256E+00
         -1   -1    0    0    0  501 -0.00000000000E+00  0.00000000000E+00  0.20371389297E+03  0.20371389302E+03  0.46700000000E-02 0.  1.
          1   -1    0    0  501    0  0.00000000000E+00 -0.00000000000E+00 -0.10087216013E+02  0.10087217094E+02  0.46700000000E-02 0. -1.
         23    2    1    2    0    0  0.00000000000E+00  0.00000000000E+00  0.19362667696E+03  0.21380111012E+03  0.90662145674E+02 0.  0.
        -11    1    3    3    0    0 -0.30691763925E+02 -0.23307730930E+02  0.40527881327E+02  0.55926235874E+02  0.51100000000E-03 0. -1.
         11    1    3    3    0    0  0.30691763925E+02  0.23307730930E+02  0.15309879563E+03  0.15787487424E+03  0.51100000000E-03 0.  1.
<mgrwt>
<rscale>  0 0.90662146E+02</rscale>
<asrwt>0</asrwt>
<pdfrwt beam="2">  1        1 0.15518797E-02 0.90662146E+02</pdfrwt>
<pdfrwt beam="1">  1       -1 0.31340595E-01 0.90662146E+02</pdfrwt>
<totfact> 0.70083458E+04</totfact>
</mgrwt>
</event>
<event>
 5   1  0.1357339E+00  0.9326035E+02  0.7818608E-02  0.1295143E+00
          1   -1    0    0  501    0  0.00000000000E+00  0.00000000000E+00  0.28214754743E+03  0.28214754747E+03  0.46700000000E-02 0. -1.
         -1   -1    0    0    0  501 -0.00000000000E+00 -0.00000000000E+00 -0.77065098361E+01  0.77065112510E+01  0.46700000000E-02 0.  1.
         23    2    1    2    0    0  0.00000000000E+00  0.00000000000E+00  0.27444103759E+03  0.28985405872E+03  0.93260346561E+02 0.  0.
        -11    1    3    3    0    0  0.15081215593E+02  0.43505575949E+02  0.16010080223E+03  0.16659065123E+03  0.51100000000E-03 0. -1.
         11    1    3    3    0    0 -0.15081215593E+02 -0.43505575949E+02  0.11434023536E+03  0.12326340749E+03  0.51100000000E-03 0.  1.
<mgrwt>
<rscale>  0 0.93260347E+02</rscale>
<asrwt>0</asrwt>
<pdfrwt beam="1">  1        1 0.43407313E-01 0.93260347E+02</pdfrwt>
<pdfrwt beam="2">  1       -1 0.11856171E-02 0.93260347E+02</pdfrwt>
<totfact> 0.11920342E+05</totfact>
</mgrwt>
</event>
<event>
 5   1  0.1357339E+00  0.8854378E+02  0.7818608E-02  0.1306417E+00
         -1   -1    0    0    0  501 -0.00000000000E+00  0.00000000000E+00  0.17773235934E+02  0.17773236547E+02  0.46700000000E-02 0.  1.
          1   -1    0    0  501    0  0.00000000000E+00 -0.00000000000E+00 -0.11027818548E+03  0.11027818558E+03  0.46700000000E-02 0. -1.
         23    2    1    2    0    0  0.00000000000E+00  0.00000000000E+00 -0.92504949551E+02  0.12805142213E+03  0.88543780235E+02 0.  0.
        -11    1    3    3    0    0 -0.29054079551E+02 -0.27030847510E+02 -0.17868964653E+02  0.43521329870E+02  0.51100000000E-03 0.  1.
         11    1    3    3    0    0  0.29054079551E+02  0.27030847510E+02 -0.74635984898E+02  0.84530092261E+02  0.51100000000E-03 0. -1.
<mgrwt>
<rscale>  0 0.88543780E+02</rscale>
<asrwt>0</asrwt>
<pdfrwt beam="2">  1        1 0.16965874E-01 0.88543780E+02</pdfrwt>
<pdfrwt beam="1">  1       -1 0.27343441E-02 0.88543780E+02</pdfrwt>
<totfact> 0.11496512E+05</totfact>
</mgrwt>
</event>
<event>
 5   1  0.1357339E+00  0.9086519E+02  0.7818608E-02  0.1300770E+00
          1   -1    0    0  501    0  0.00000000000E+00  0.00000000000E+00  0.26024894536E+03  0.26024894540E+03  0.46700000000E-02 0. -1.
         -1   -1    0    0    0  501 -0.00000000000E+00 -0.00000000000E+00 -0.79313311092E+01  0.79313324840E+01  0.46700000000E-02 0.  1.
         23    2    1    2    0    0  0.00000000000E+00  0.00000000000E+00  0.25231761425E+03  0.26818027788E+03  0.90865191276E+02 0.  0.
        -11    1    3    3    0    0 -0.18977233466E+02  0.41049398695E+02  0.13900073115E+03  0.14617247273E+03  0.51100000000E-03 0. -1.
         11    1    3    3    0    0  0.18977233466E+02 -0.41049398695E+02  0.11331688310E+03  0.12200780515E+03  0.51100000000E-03 0.  1.
<mgrwt>
<rscale>  0 0.90865191E+02</rscale>
<asrwt>0</asrwt>
<pdfrwt beam="1">  1        1 0.40038298E-01 0.90865191E+02</pdfrwt>
<pdfrwt beam="2">  1       -1 0.12202049E-02 0.90865191E+02</pdfrwt>
<totfact> 0.12578748E+05</totfact>
</mgrwt>
</event>
<event>
 5   1  0.1357339E+00  0.9198746E+02  0.7818608E-02  0.1298109E+00
          1   -1    0    0  501    0  0.00000000000E+00  0.00000000000E+00  0.21912547652E+02  0.21912548150E+02  0.46700000000E-02 0. -1.
         -1   -1    0    0    0  501 -0.00000000000E+00 -0.00000000000E+00 -0.96539353474E+02  0.96539353587E+02  0.46700000000E-02 0.  1.
         23    2    1    2    0    0  0.00000000000E+00  0.00000000000E+00 -0.74626805821E+02  0.11845190174E+03  0.91987460439E+02 0.  0.
        -11    1    3    3    0    0 -0.34075242391E+02  0.16644036622E+02 -0.70825114581E+02  0.80338925526E+02  0.51100000000E-03 0. -1.
         11    1    3    3    0    0  0.34075242391E+02 -0.16644036622E+02 -0.38016912403E+01  0.38112976210E+02  0.51100000000E-03 0.  1.
<mgrwt>
<rscale>  0 0.91987460E+02</rscale>
<asrwt>0</asrwt>
<pdfrwt beam="1">  1        1 0.33711613E-02 0.91987460E+02</pdfrwt>
<pdfrwt beam="2">  1       -1 0.14852208E-01 0.91987460E+02</pdfrwt>
<totfact> 0.80054632E+04</totfact>
</mgrwt>
</event>
<event>
 5   1  0.1357339E+00  0.9508902E+02  0.7818608E-02  0.1290976E+00
          1   -1    0    0  501    0  0.00000000000E+00  0.00000000000E+00  0.32319334317E+03  0.32319334321E+03  0.46700000000E-02 0. -1.
         -1   -1    0    0    0  501 -0.00000000000E+00 -0.00000000000E+00 -0.69942037270E+01  0.69942052861E+01  0.46700000000E-02 0.  1.
         23    2    1    2    0    0  0.00000000000E+00  0.00000000000E+00  0.31619913945E+03  0.33018754849E+03  0.95089018259E+02 0.  0.
        -11    1    3    3    0    0  0.35490518813E+02 -0.30742726781E+02  0.18403547408E+03  0.18993090296E+03  0.51100000000E-03 0. -1.
         11    1    3    3    0    0 -0.35490518813E+02  0.30742726781E+02  0.13216366536E+03  0.14025664554E+03  0.51100000000E-03 0.  1.
<mgrwt>
<rscale>  0 0.95089018E+02</rscale>
<asrwt>0</asrwt>
<pdfrwt beam="1">  1        1 0.49722041E-01 0.95089018E+02</pdfrwt>
<pdfrwt beam="2">  1       -1 0.10760317E-02 0.95089018E+02</pdfrwt>
<totfact> 0.11614854E+05</totfact>
</mgrwt>
</event>
<event>
 5   1  0.1357339E+00  0.9175678E+02  0.7818608E-02  0.1298652E+00
         -1   -1    0    0    0  501 -0.00000000000E+00  0.00000000000E+00  0.58568033290E+02  0.58568033476E+02  0.46700000000E-02 0.  1.
          1   -1    0    0  501    0  0.00000000000E+00 -0.00000000000E+00 -0.35938144262E+02  0.35938144565E+02  0.46700000000E-02 0. -1.
         23    2    1    2    0    0  0.00000000000E+00  0.00000000000E+00  0.22629889028E+02  0.94506178041E+02  0.91756775284E+02 0.  0.
        -11    1    3    3    0    0 -0.14864471688E+02 -0.45852300561E+01  0.55768955671E+02  0.57897782946E+02  0.51100000000E-03 0.  1.
         11    1    3    3    0    0  0.14864471688E+02  0.45852300561E+01 -0.33139066642E+02  0.36608395095E+02  0.51100000000E-03 0. -1.
<mgrwt>
<rscale>  0 0.91756775E+02</rscale>
<asrwt>0</asrwt>
<pdfrwt beam="2">  1        1 0.55289454E-02 0.91756775E+02</pdfrwt>
<pdfrwt beam="1">  1       -1 0.90104665E-02 0.91756775E+02</pdfrwt>
<totfact> 0.87594292E+04</totfact>
</mgrwt>
</event>
<event>
 5   1  0.1357339E+00  0.9370720E+02  0.7818608E-02  0.1294115E+00
         -1   -1    0    0    0  501 -0.00000000000E+00  0.00000000000E+00  0.66622515556E+02  0.66622515720E+02  0.46700000000E-02 0.  1.
          1   -1    0    0  501    0  0.00000000000E+00 -0.00000000000E+00 -0.32950717092E+02  0.32950717422E+02  0.46700000000E-02 0. -1.
         23    2    1    2    0    0  0.00000000000E+00  0.00000000000E+00  0.33671798465E+02  0.99573233142E+02  0.93707196877E+02 0.  0.
        -11    1    3    3    0    0 -0.83080244345E+01 -0.39800362504E+02  0.41577991764E+02  0.58153430895E+02  0.51100000000E-03 0.  1.
         11    1    3    3    0    0  0.83080244345E+01  0.39800362504E+02 -0.79061932991E+01  0.41419802247E+02  0.51100000000E-03 0. -1.
<mgrwt>
<rscale>  0 0.93707197E+02</rscale>
<asrwt>0</asrwt>
<pdfrwt beam="2">  1        1 0.50693412E-02 0.93707197E+02</pdfrwt>
<pdfrwt beam="1">  1       -1 0.10249618E-01 0.93707197E+02</pdfrwt>
<totfact> 0.81352867E+04</totfact>
</mgrwt>
</event>
<event>
 5   1  0.1357339E+00  0.9060020E+02  0.7818608E-02  0.1301405E+00
          1   -1    0    0  501    0  0.00000000000E+00  0.00000000000E+00  0.12242181862E+02  0.12242182753E+02  0.46700000000E-02 0. -1.
         -1   -1    0    0    0  501 -0.00000000000E+00 -0.00000000000E+00 -0.16762527324E+03  0.16762527331E+03  0.46700000000E-02 0.  1.
         23    2    1    2    0    0  0.00000000000E+00  0.00000000000E+00 -0.15538309138E+03  0.17986745606E+03  0.90600202333E+02 0.  0.
        -11    1    3    3    0    0 -0.45094052133E+02 -0.33512704672E+01 -0.72292945372E+02  0.85270009396E+02  0.51100000000E-03 0. -1.
         11    1    3    3    0    0  0.45094052133E+02  0.33512704672E+01 -0.83090146008E+02  0.94597446665E+02  0.51100000000E-03 0.  1.
<mgrwt>
<rscale>  0 0.90600202E+02</rscale>
<asrwt>0</asrwt>
<pdfrwt beam="1">  1        1 0.18834128E-02 0.90600202E+02</pdfrwt>
<pdfrwt beam="2">  1       -1 0.25788502E-01 0.90600202E+02</pdfrwt>
<totfact> 0.74007056E+04</totfact>
</mgrwt>
</event>
<event>
 5   1  0.1357339E+00  0.9923024E+02  0.7818608E-02  0.1281923E+00
          1   -1    0    0  501    0  0.00000000000E+00  0.00000000000E+00  0.13501254772E+03  0.13501254780E+03  0.46700000000E-02 0. -1.
         -1   -1    0    0    0  501 -0.00000000000E+00 -0.00000000000E+00 -0.18232824033E+02  0.18232824631E+02  0.46700000000E-02 0.  1.
         23    2    1    2    0    0  0.00000000000E+00  0.00000000000E+00  0.11677972368E+03  0.15324537243E+03  0.99230238874E+02 0.  0.
        -11    1    3    3    0    0  0.41938262354E+02  0.19782145605E+02  0.85646895556E+02  0.97393746476E+02  0.51100000000E-03 0. -1.
         11    1    3    3    0    0 -0.41938262354E+02 -0.19782145605E+02  0.31132828129E+02  0.55851625953E+02  0.51100000000E-03 0.  1.
<mgrwt>
<rscale>  0 0.99230239E+02</rscale>
<asrwt>0</asrwt>
<pdfrwt beam="1">  1        1 0.20771161E-01 0.99230239E+02</pdfrwt>
<pdfrwt beam="2">  1       -1 0.28050499E-02 0.99230239E+02</pdfrwt>
<totfact> 0.87386235E+04</totfact>
</mgrwt>
</event>
<event>
 5   1  0.1357339E+00  0.8977545E+02  0.7818608E-02  0.1303396E+00
          1   -1    0    0  501    0  0.00000000000E+00  0.00000000000E+00  0.21807103870E+02  0.21807104370E+02  0.46700000000E-02 0. -1.
         -1   -1    0    0    0  501 -0.00000000000E+00 -0.00000000000E+00 -0.92396861885E+02  0.92396862003E+02  0.46700000000E-02 0.  1.
         23    2    1    2    0    0  0.00000000000E+00  0.00000000000E+00 -0.70589758016E+02  0.11420396637E+03  0.89775453208E+02 0.  0.
        -11    1    3    3    0    0  0.29295881537E+02  0.24564642773E+02 -0.65216109188E+02  0.75596370598E+02  0.51100000000E-03 0.  1.
         11    1    3    3    0    0 -0.29295881537E+02 -0.24564642773E+02 -0.53736488271E+01  0.38607595775E+02  0.51100000000E-03 0. -1.
<mgrwt>
<rscale>  0 0.89775453E+02</rscale>
<asrwt>0</asrwt>
<pdfrwt beam="1">  1        1 0.33549392E-02 0.89775453E+02</pdfrwt>
<pdfrwt beam="2">  1       -1 0.14214902E-01 0.89775453E+02</pdfrwt>
<totfact> 0.85903220E+04</totfact>
</mgrwt>
</event>
<event>
 5   1  0.1357339E+00  0.9054517E+02  0.7818608E-02  0.1301537E+00
         -1   -1    0    0    0  501 -0.00000000000E+00  0.00000000000E+00  0.38626973906E+02  0.38626974188E+02  0.46700000000E-02 0.  1.
          1   -1    0    0  501    0  0.00000000000E+00 -0.00000000000E+00 -0.53061540591E+02  0.53061540796E+02  0.46700000000E-02 0. -1.
         23    2    1    2    0    0  0.00000000000E+00  0.00000000000E+00 -0.14434566684E+02  0.91688514985E+02  0.90545165883E+02 0.  0.
        -11    1    3    3    0    0  0.33823592564E+02  0.30023335019E+02 -0.92853021113E+01  0.46169826674E+02  0.51100000000E-03 0. -1.
         11    1    3    3    0    0 -0.33823592564E+02 -0.30023335019E+02 -0.51492645732E+01  0.45518688310E+02  0.51100000000E-03 0.  1.
<mgrwt>
<rscale>  0 0.90545166E+02</rscale>
<asrwt>0</asrwt>
<pdfrwt beam="2">  1        1 0.81633139E-02 0.90545166E+02</pdfrwt>
<pdfrwt beam="1">  1       -1 0.59426114E-02 0.90545166E+02</pdfrwt>
<totfact> 0.96453278E+04</totfact>
</mgrwt>
</event>
<event>
 5   1  0.1357339E+00  0.9116871E+02  0.7818608E-02  0.1300046E+00
          1   -1    0    0  501    0  0.00000000000E+00  0.00000000000E+00  0.28169336190E+02  0.28169336577E+02  0.46700000000E-02 0. -1.
         -1   -1    0    0    0  501 -0.00000000000E+00 -0.00000000000E+00 -0.73765787023E+02  0.73765787170E+02  0.46700000000E-02 0.  1.
         23    2    1    2    0    0  0.00000000000E+00  0.00000000000E+00 -0.45596450833E+02  0.10193512375E+03  0.91168706939E+02 0.  0.
        -11    1    3    3    0    0  0.17519806271E+02 -0.22900663548E+02 -0.62274193130E+02  0.68625499146E+02  0.51100000000E-03 0.  1.
         11    1    3    3    0    0 -0.17519806271E+02  0.22900663548E+02  0.16677742297E+02  0.33309624602E+02  0.51100000000E-03 0. -1.
<mgrwt>
<rscale>  0 0.91168707E+02</rscale>
<asrwt>0</asrwt>
<pdfrwt beam="1">  1        1 0.43337441E-02 0.91168707E+02</pdfrwt>
<pdfrwt beam="2">  1       -1 0.11348583E-01 0.91168707E+02</pdfrwt>
<totfact> 0.85822717E+04</totfact>
</mgrwt>
</event>
<event>
 5   1  0.1357339E+00  0.9568589E+02  0.7818608E-02  0.1289639E+00
          1   -1    0    0  501    0  0.00000000000E+00  0.00000000000E+00  0.35066539261E+03  0.35066539264E+03  0.46700000000E-02 0. -1.
         -1   -1    0    0    0  501 -0.00000000000E+00 -0.00000000000E+00 -0.65274393960E+01  0.65274410666E+01  0.46700000000E-02 0.  1.
         23    2    1    2    0    0  0.00000000000E+00  0.00000000000E+00  0.34413795321E+03  0.35719283370E+03  0.95685890338E+02 0.  0.
        -11    1    3    3    0    0  0.44474844514E+02  0.68032083014E+00  0.10629310769E+03  0.11522456064E+03  0.51100000000E-03 0.  1.
         11    1    3    3    0    0 -0.44474844514E+02 -0.68032083014E+00  0.23784484552E+03  0.24196827307E+03  0.51100000000E-03 0. -1.
<mgrwt>
<rscale>  0 0.95685890E+02</rscale>
<asrwt>0</asrwt>
<pdfrwt beam="1">  1        1 0.53948528E-01 0.95685890E+02</pdfrwt>
<pdfrwt beam="2">  1       -1 0.10042215E-02 0.95685890E+02</pdfrwt>
<totfact> 0.11594717E+05</totfact>
</mgrwt>
</event>
<event>
 5   1  0.1357339E+00  0.9243868E+02  0.7818608E-02  0.1297051E+00
         -1   -1    0    0    0  501 -0.00000000000E+00  0.00000000000E+00  0.48450386115E+01  0.48450408621E+01  0.46700000000E-02 0.  1.
          1   -1    0    0  501    0  0.00000000000E+00 -0.00000000000E+00 -0.44091017345E+03  0.44091017348E+03  0.46700000000E-02 0. -1.
         23    2    1    2    0    0  0.00000000000E+00  0.00000000000E+00 -0.43606513484E+03  0.44575521434E+03  0.92438678522E+02 0.  0.
        -11    1    3    3    0    0 -0.20309457160E+02 -0.41150691167E+02 -0.24460876819E+03  0.24887607942E+03  0.51100000000E-03 0.  1.
         11    1    3    3    0    0  0.20309457160E+02  0.41150691167E+02 -0.19145636665E+03  0.19687913492E+03  0.51100000000E-03 0. -1.
<mgrwt>
<rscale>  0 0.92438679E+02</rscale>
<asrwt>0</asrwt>
<pdfrwt beam="2">  1        1 0.67832303E-01 0.92438679E+02</pdfrwt>
<pdfrwt beam="1">  1       -1 0.74539108E-03 0.92438679E+02</pdfrwt>
<totfact> 0.13204297E+05</totfact>
</mgrwt>
</event>
<event>
 5   1  0.1357339E+00  0.8983654E+02  0.7818608E-02  0.1303248E+00
          1   -1    0    0  501    0  0.00000000000E+00  0.00000000000E+00  0.54667808009E+01  0.54667827956E+01  0.46700000000E-02 0. -1.
         -1   -1    0    0    0  501 -0.00000000000E+00 -0.00000000000E+00 -0.36907470253E+03  0.36907470256E+03  0.46700000000E-02 0.  1.
         23    2    1    2    0    0  0.00000000000E+00  0.00000000000E+00 -0.36360792172E+03  0.37454148535E+03  0.89836537710E+02 0.  0.
        -11    1    3    3    0    0  0.26268360324E+02 -0.36147347378E+02 -0.16270154419E+03  0.16872596113E+03  0.51100000000E-03 0. -1.
         11    1    3    3    0    0 -0.26268360324E+02  0.36147347378E+02 -0.20090637753E+03  0.20581552422E+03  0.51100000000E-03 0.  1.
<mgrwt>
<rscale>  0 0.89836538E+02</rscale>
<asrwt>0</asrwt>
<pdfrwt beam="1">  1        1 0.84104365E-03 0.89836538E+02</pdfrwt>
<pdfrwt beam="2">  1       -1 0.56780704E-01 0.89836538E+02</pdfrwt>
<totfact> 0.57611501E+04</totfact>
</mgrwt>
</event>
<event>
 5   1  0.1357339E+00  0.9301475E+02  0.7818608E-02  0.1295711E+00
         -1   -1    0    0    0  501 -0.00000000000E+00  0.00000000000E+00  0.36101808671E+02  0.36101808973E+02  0.46700000000E-02 0.  1.
          1   -1    0    0  501    0  0.00000000000E+00 -0.00000000000E+00 -0.59912118751E+02  0.59912118933E+02  0.46700000000E-02 0. -1.
         23    2    1    2    0    0  0.00000000000E+00  0.00000000000E+00 -0.23810310080E+02  0.96013927906E+02  0.93014748755E+02 0.  0.
        -11    1    3    3    0    0  0.16453421073E+02 -0.42295602978E+00  0.32994995405E+02  0.36872261645E+02  0.51100000000E-03 0.  1.
         11    1    3    3    0    0 -0.16453421073E+02  0.42295602978E+00 -0.56805305484E+02  0.59141666262E+02  0.51100000000E-03 0. -1.
<mgrwt>
<rscale>  0 0.93014749E+02</rscale>
<asrwt>0</asrwt>
<pdfrwt beam="2">  1        1 0.92172491E-02 0.93014749E+02</pdfrwt>
<pdfrwt beam="1">  1       -1 0.55541244E-02 0.93014749E+02</pdfrwt>
<totfact> 0.91148538E+04</totfact>
</mgrwt>
</event>
<event>
 5   1  0.1357339E+00  0.9077228E+02  0.7818608E-02  0.1300992E+00
          1   -1    0    0  501    0  0.00000000000E+00  0.00000000000E+00  0.99128273126E+02  0.99128273236E+02  0.46700000000E-02 0. -1.
         -1   -1    0    0    0  501 -0.00000000000E+00 -0.00000000000E+00 -0.20780165106E+02  0.20780165631E+02  0.46700000000E-02 0.  1.
         23    2    1    2    0    0  0.00000000000E+00  0.00000000000E+00  0.78348108020E+02  0.11990843887E+03  0.90772284764E+02 0.  0.
        -11    1    3    3    0    0 -0.30068850482E+02  0.28813621664E+02  0.63008198446E+02  0.75527436302E+02  0.51100000000E-03 0. -1.
         11    1    3    3    0    0  0.30068850482E+02 -0.28813621664E+02  0.15339909574E+02  0.44381002565E+02  0.51100000000E-03 0.  1.
<mgrwt>
<rscale>  0 0.90772285E+02</rscale>
<asrwt>0</asrwt>
<pdfrwt beam="1">  1        1 0.15250504E-01 0.90772285E+02</pdfrwt>
<pdfrwt beam="2">  1       -1 0.31969485E-02 0.90772285E+02</pdfrwt>
<totfact> 0.10557163E+05</totfact>
</mgrwt>
</event>
<event>
 5   1  0.1357339E+00  0.8964589E+02  0.7818608E-02  0.1303712E+00
          1   -1    0    0  501    0  0.00000000000E+00  0.00000000000E+00  0.19183783884E+03  0.19183783890E+03  0.46700000000E-02 0. -1.
         -1   -1    0    0    0  501 -0.00000000000E+00 -0.00000000000E+00 -0.10472887393E+02  0.10472888434E+02  0.46700000000E-02 0.  1.
         23    2    1    2    0    0  0.00000000000E+00  0.00000000000E+00  0.18136495145E+03  0.20231072733E+03  0.89645885459E+02 0.  0.
        -11    1    3    3    0    0  0.41136619485E+02 -0.20964635379E+01  0.50789230538E+02  0.65392373874E+02  0.51100000000E-03 0. -1.
         11    1    3    3    0    0 -0.41136619485E+02  0.20964635379E+01  0.13057572091E+03  0.13691835346E+03  0.51100000000E-03 0.  1.
<mgrwt>
<rscale>  0 0.89645885E+02</rscale>
<asrwt>0</asrwt>
<pdfrwt beam="1">  1        1 0.29513515E-01 0.89645885E+02</pdfrwt>
<pdfrwt beam="2">  1       -1 0.16112135E-02 0.89645885E+02</pdfrwt>
<totfact> 0.12290768E+05</totfact>
</mgrwt>
</event>
<event>
 5   1  0.1357339E+00  0.9041454E+02  0.7818608E-02  0.1301851E+00
          1   -1    0    0  501    0  0.00000000000E+00  0.00000000000E+00  0.10002312969E+03  0.10002312980E+03  0.46700000000E-02 0. -1.
         -1   -1    0    0    0  501 -0.00000000000E+00 -0.00000000000E+00 -0.20432246619E+02  0.20432247153E+02  0.46700000000E-02 0.  1.
         23    2    1    2    0    0  0.00000000000E+00  0.00000000000E+00  0.79590883076E+02  0.12045537696E+03  0.90414540694E+02 0.  0.
        -11    1    3    3    0    0  0.38533556931E+02  0.12112077150E+02  0.66842545009E+02  0.78099060469E+02  0.51100000000E-03 0. -1.
         11    1    3    3    0    0 -0.38533556931E+02 -0.12112077150E+02  0.12748338066E+02  0.42356316487E+02  0.51100000000E-03 0.  1.
<mgrwt>
<rscale>  0 0.90414541E+02</rscale>
<asrwt>0</asrwt>
<pdfrwt beam="1">  1        1 0.15388174E-01 0.90414541E+02</pdfrwt>
<pdfrwt beam="2">  1       -1 0.31434226E-02 0.90414541E+02</pdfrwt>
<totfact> 0.10687123E+05</totfact>
</mgrwt>
</event>
<event>
 5   1  0.1357339E+00  0.9512295E+02  0.7818608E-02  0.1290899E+00
          1   -1    0    0  501    0  0.00000000000E+00  0.00000000000E+00  0.22854491922E+03  0.22854491927E+03  0.46700000000E-02 0. -1.
         -1   -1    0    0    0  501 -0.00000000000E+00 -0.00000000000E+00 -0.98978087222E+01  0.98978098239E+01  0.46700000000E-02 0.  1.
         23    2    1    2    0    0  0.00000000000E+00  0.00000000000E+00  0.21864711050E+03  0.23844272909E+03  0.95122952685E+02 0.  0.
        -11    1    3    3    0    0 -0.35261088123E+01 -0.38617964839E+02  0.17835121039E+03  0.18251831387E+03  0.51100000000E-03 0. -1.
         11    1    3    3    0    0  0.35261088123E+01  0.38617964839E+02  0.40295900110E+02  0.55924415220E+02  0.51100000000E-03 0.  1.
<mgrwt>
<rscale>  0 0.95122953E+02</rscale>
<asrwt>0</asrwt>
<pdfrwt beam="1">  1        1 0.35160752E-01 0.95122953E+02</pdfrwt>
<pdfrwt beam="2">  1       -1 0.15227401E-02 0.95122953E+02</pdfrwt>
<totfact> 0.10846367E+05</totfact>
</mgrwt>
</event>
<event>
 5   1  0.1357339E+00  0.9080457E+02  0.7818608E-02  0.1300915E+00
         -1   -1    0    0    0  501 -0.00000000000E+00  0.00000000000E+00  0.23960901881E+02  0.23960902337E+02  0.46700000000E-02 0.  1.
          1   -1    0    0  501    0  0.00000000000E+00 -0.00000000000E+00 -0.86030460823E+02  0.86030460950E+02  0.46700000000E-02 0. -1.
         23    2    1    2    0    0  0.00000000000E+00  0.00000000000E+00 -0.62069558942E+02  0.10999136329E+03  0.90804569546E+02 0.  0.
        -11    1    3    3    0    0  0.14432141912E+02  0.30958821325E+02 -0.67265179172E+02  0.75440968096E+02  0.51100000000E-03 0. -1.
         11    1    3    3    0    0 -0.14432141912E+02 -0.30958821325E+02  0.51956202300E+01  0.34550395191E+02  0.51100000000E-03 0.  1.
<mgrwt>
<rscale>  0 0.90804570E+02</rscale>
<asrwt>0</asrwt>
<pdfrwt beam="2">  1        1 0.13235455E-01 0.90804570E+02</pdfrwt>
<pdfrwt beam="1">  1       -1 0.36862927E-02 0.90804570E+02</pdfrwt>
<totfact> 0.10306362E+05</totfact>
</mgrwt>
</event>
<event>
 5   1  0.1357339E+00  0.7825268E+02  0.7818608E-02  0.1334084E+00
         -1   -1    0    0    0  501 -0.00000000000E+00  0.00000000000E+00  0.41609372446E+02  0.41609372709E+02  0.46700000000E-02 0.  1.
          1   -1    0    0  501    0  0.00000000000E+00 -0.00000000000E+00 -0.36791481569E+02  0.36791481866E+02  0.46700000000E-02 0. -1.
         23    2    1    2    0    0  0.00000000000E+00  0.00000000000E+00  0.48178908772E+01  0.78400854574E+02  0.78252679989E+02 0.  0.
        -11    1    3    3    0    0 -0.15478628327E+02  0.36397844723E+00  0.38409561879E+02  0.41412737886E+02  0.51100000000E-03 0.  1.
         11    1    3    3    0    0  0.15478628327E+02 -0.36397844723E+00 -0.33591671002E+02  0.36988116688E+02  0.51100000000E-03 0. -1.
<mgrwt>
<rscale>  0 0.78252680E+02</rscale>
<asrwt>0</asrwt>
<pdfrwt beam="2">  1        1 0.56602280E-02 0.78252680E+02</pdfrwt>
<pdfrwt beam="1">  1       -1 0.64014419E-02 0.78252680E+02</pdfrwt>
<totfact> 0.13729681E+05</totfact>
</mgrwt>
</event>
<event>
 5   1  0.1357339E+00  0.9111799E+02  0.7818608E-02  0.1300167E+00
          1   -1    0    0  501    0  0.00000000000E+00  0.00000000000E+00  0.26948619047E+02  0.26948619451E+02  0.46700000000E-02 0. -1.
         -1   -1    0    0    0  501 -0.00000000000E+00 -0.00000000000E+00 -0.77021462096E+02  0.77021462238E+02  0.46700000000E-02 0.  1.
         23    2    1    2    0    0  0.00000000000E+00  0.00000000000E+00 -0.50072843049E+02  0.10397008169E+03  0.91117990953E+02 0.  0.
        -11    1    3    3    0    0 -0.18304519530E+02  0.41476423861E+02 -0.19898799418E+02  0.49510719951E+02  0.51100000000E-03 0.  1.
         11    1    3    3    0    0  0.18304519530E+02 -0.41476423861E+02 -0.30174043631E+02  0.54459361738E+02  0.51100000000E-03 0. -1.
<mgrwt>
<rscale>  0 0.91117991E+02</rscale>
<asrwt>0</asrwt>
<pdfrwt beam="1">  1        1 0.41459415E-02 0.91117991E+02</pdfrwt>
<pdfrwt beam="2">  1       -1 0.11849456E-01 0.91117991E+02</pdfrwt>
<totfact> 0.85332677E+04</totfact>
</mgrwt>
</event>
<event>
 5   1  0.1357339E+00  0.8440151E+02  0.7818608E-02  0.1317005E+00
          1   -1    0    0  501    0  0.00000000000E+00  0.00000000000E+00  0.57865897816E+02  0.57865898005E+02  0.46700000000E-02 0. -1.
         -1   -1    0    0    0  501 -0.00000000000E+00 -0.00000000000E+00 -0.30776396770E+02  0.30776397124E+02  0.46700000000E-02 0.  1.
         23    2    1    2    0    0  0.00000000000E+00  0.00000000000E+00  0.27089501046E+02  0.88642295129E+02  0.84401513131E+02 0.  0.
        -11    1    3    3    0    0  0.20968580625E+02  0.26580394481E+01 -0.24816634541E+02  0.32597728408E+02  0.51100000000E-03 0.  1.
         11    1    3    3    0    0 -0.20968580625E+02 -0.26580394481E+01  0.51906135587E+02  0.56044566721E+02  0.51100000000E-03 0. -1.
<mgrwt>
<rscale>  0 0.84401513E+02</rscale>
<asrwt>0</asrwt>
<pdfrwt beam="1">  1        1 0.89024458E-02 0.84401513E+02</pdfrwt>
<pdfrwt beam="2">  1       -1 0.47348303E-02 0.84401513E+02</pdfrwt>
<totfact> 0.11860795E+05</totfact>
</mgrwt>
</event>
<event>
 5   1  0.1357339E+00  0.8294124E+02  0.7818608E-02  0.1320906E+00
          1   -1    0    0  501    0  0.00000000000E+00  0.00000000000E+00  0.33449155600E+03  0.33449155603E+03  0.46700000000E-02 0. -1.
         -1   -1    0    0    0  501 -0.00000000000E+00 -0.00000000000E+00 -0.51415707004E+01  0.51415728212E+01  0.46700000000E-02 0.  1.
         23    2    1    2    0    0  0.00000000000E+00  0.00000000000E+00  0.32934998530E+03  0.33963312885E+03  0.82941240636E+02 0.  0.
        -11    1    3    3    0    0  0.21511727628E+02 -0.34032295369E+02  0.20538972363E+03  0.20929856695E+03  0.51100000000E-03 0. -1.
         11    1    3    3    0    0 -0.21511727628E+02  0.34032295369E+02  0.12396026167E+03  0.13033456190E+03  0.51100000000E-03 0.  1.
<mgrwt>
<rscale>  0 0.82941241E+02</rscale>
<asrwt>0</asrwt>
<pdfrwt beam="1">  1        1 0.51460245E-01 0.82941241E+02</pdfrwt>
<pdfrwt beam="2">  1       -1 0.79101096E-03 0.82941241E+02</pdfrwt>
<totfact> 0.16799073E+05</totfact>
</mgrwt>
</event>
<event>
 5   1  0.1357339E+00  0.8806168E+02  0.7818608E-02  0.1307615E+00
         -1   -1    0    0    0  501 -0.00000000000E+00  0.00000000000E+00  0.64280103623E+02  0.64280103793E+02  0.46700000000E-02 0.  1.
          1   -1    0    0  501    0  0.00000000000E+00 -0.00000000000E+00 -0.30160419752E+02  0.30160420113E+02  0.46700000000E-02 0. -1.
         23    2    1    2    0    0  0.00000000000E+00  0.00000000000E+00  0.34119683872E+02  0.94440523906E+02  0.88061681384E+02 0.  0.
        -11    1    3    3    0    0  0.23489613562E+02  0.14910609950E+02  0.53658468260E+02  0.60442695594E+02  0.51100000000E-03 0.  1.
         11    1    3    3    0    0 -0.23489613562E+02 -0.14910609950E+02 -0.19538784388E+02  0.33997828313E+02  0.51100000000E-03 0. -1.
<mgrwt>
<rscale>  0 0.88061681E+02</rscale>
<asrwt>0</asrwt>
<pdfrwt beam="2">  1        1 0.46400646E-02 0.88061681E+02</pdfrwt>
<pdfrwt beam="1">  1       -1 0.98892467E-02 0.88061681E+02</pdfrwt>
<totfact> 0.95822150E+04</totfact>
</mgrwt>
</event>
<event>
 5   1  0.1357339E+00  0.9322323E+02  0.7818608E-02  0.1295229E+00
          1   -1    0    0  501    0  0.00000000000E+00  0.00000000000E+00  0.85552228998E+01  0.85552241744E+01  0.46700000000E-02 0. -1.
         -1   -1    0    0    0  501 -0.00000000000E+00 -0.00000000000E+00 -0.25395507834E+03  0.25395507839E+03  0.46700000000E-02 0.  1.
         23    2    1    2    0    0  0.00000000000E+00  0.00000000000E+00 -0.24539985544E+03  0.26251030256E+03  0.93223226176E+02 0.  0.
        -11    1    3    3    0    0 -0.26294254536E+02 -0.29109025623E+02 -0.19359877993E+03  0.19753280939E+03  0.51100000000E-03 0.  1.
         11    1    3    3    0    0  0.26294254536E+02  0.29109025623E+02 -0.51801075516E+02  0.64977493174E+02  0.51100000000E-03 0. -1.
<mgrwt>
<rscale>  0 0.93223226E+02</rscale>
<asrwt>0</asrwt>
<pdfrwt beam="1">  1        1 0.13161884E-02 0.93223226E+02</pdfrwt>
<pdfrwt beam="2">  1       -1 0.39070007E-01 0.93223226E+02</pdfrwt>
<totfact> 0.60786319E+04</totfact>
</mgrwt>
</event>
<event>
 4   1  0.1357339E+00  0.4073284E+02  0.7818608E-02  0.1502887E+00
          1   -1    0    0  501    0  0.00000000000E+00  0.00000000000E+00  0.11242312706E+02  0.11242313676E+02  0.46700000000E-02 0.  1.
         -1   -1    0    0    0  501 -0.00000000000E+00 -0.00000000000E+00 -0.36895519626E+02  0.36895519922E+02  0.46700000000E-02 0. -1.
        -11    1    1    2    0    0  0.68918056673E+01 -0.15310705142E+02 -0.26449381568E+02  0.31328652427E+02  0.51100000000E-03 0. -1.
         11    1    1    2    0    0 -0.68918056673E+01  0.15310705142E+02  0.79617464783E+00  0.16809181171E+02  0.51100000000E-03 0.  1.
<mgrwt>
<rscale>  0 0.40732837E+02</rscale>
<asrwt>0</asrwt>
<pdfrwt beam="1">  1        1 0.17295867E-02 0.40732837E+02</pdfrwt>
<pdfrwt beam="2">  1       -1 0.56762338E-02 0.40732837E+02</pdfrwt>
<totfact> 0.69357260E+05</totfact>
</mgrwt>
</event>
<event>
 5   1  0.1357339E+00  0.9122004E+02  0.7818608E-02  0.1299924E+00
         -1   -1    0    0    0  501 -0.00000000000E+00  0.00000000000E+00  0.34891920385E+02  0.34891920698E+02  0.46700000000E-02 0.  1.
          1   -1    0    0  501    0  0.00000000000E+00 -0.00000000000E+00 -0.59620501256E+02  0.59620501439E+02  0.46700000000E-02 0. -1.
         23    2    1    2    0    0  0.00000000000E+00  0.00000000000E+00 -0.24728580871E+02  0.94512422136E+02  0.91220037416E+02 0.  0.
        -11    1    3    3    0    0  0.14165188698E+02 -0.36103015079E+02  0.12506113489E+02  0.40749026289E+02  0.51100000000E-03 0.  1.
         11    1    3    3    0    0 -0.14165188698E+02  0.36103015079E+02 -0.37234694360E+02  0.53763395847E+02  0.51100000000E-03 0. -1.
<mgrwt>
<rscale>  0 0.91220037E+02</rscale>
<asrwt>0</asrwt>
<pdfrwt beam="2">  1        1 0.91723848E-02 0.91220037E+02</pdfrwt>
<pdfrwt beam="1">  1       -1 0.53679878E-02 0.91220037E+02</pdfrwt>
<totfact> 0.96152212E+04</totfact>
</mgrwt>
</event>
<event>
 5   1  0.1357339E+00  0.9153983E+02  0.7818608E-02  0.1299165E+00
         -1   -1    0    0    0  501 -0.00000000000E+00  0.00000000000E+00  0.24068480757E+02  0.24068481210E+02  0.46700000000E-02 0. -1.
          1   -1    0    0  501    0  0.00000000000E+00 -0.00000000000E+00 -0.87038533558E+02  0.87038533683E+02  0.46700000000E-02 0.  1.
         23    2    1    2    0    0  0.00000000000E+00  0.00000000000E+00 -0.62970052801E+02  0.11110701489E+03  0.91539833999E+02 0.  0.
        -11    1    3    3    0    0  0.32324306158E+02 -0.31998946240E+02 -0.25285124506E+02  0.52039704560E+02  0.51100000000E-03 0.  1.
         11    1    3    3    0    0 -0.32324306158E+02  0.31998946240E+02 -0.37684928295E+02  0.59067310333E+02  0.51100000000E-03 0. -1.
<mgrwt>
<rscale>  0 0.91539834E+02</rscale>
<asrwt>0</asrwt>
<pdfrwt beam="2">  1        1 0.13390543E-01 0.91539834E+02</pdfrwt>
<pdfrwt beam="1">  1       -1 0.37028433E-02 0.91539834E+02</pdfrwt>
<totfact> 0.10100106E+05</totfact>
</mgrwt>
</event>
<event>
 5   1  0.1357339E+00  0.6500481E+02  0.7818608E-02  0.1377953E+00
          1   -1    0    0  501    0  0.00000000000E+00  0.00000000000E+00  0.17502455953E+03  0.17502455959E+03  0.46700000000E-02 0. -1.
         -1   -1    0    0    0  501 -0.00000000000E+00 -0.00000000000E+00 -0.60357596941E+01  0.60357615008E+01  0.46700000000E-02 0.  1.
         23    2    1    2    0    0  0.00000000000E+00  0.00000000000E+00  0.16898879983E+03  0.18106032109E+03  0.65004810625E+02 0.  0.
        -11    1    3    3    0    0 -0.88356708864E-01  0.32493262754E+02  0.86627356381E+02  0.92520910097E+02  0.51100000000E-03 0. -1.
         11    1    3    3    0    0  0.88356708864E-01 -0.32493262754E+02  0.82361443453E+02  0.88539410995E+02  0.51100000000E-03 0.  1.
<mgrwt>
<rscale>  0 0.65004811E+02</rscale>
<asrwt>0</asrwt>
<pdfrwt beam="1">  1        1 0.26926850E-01 0.65004811E+02</pdfrwt>
<pdfrwt beam="2">  1       -1 0.92857875E-03 0.65004811E+02</pdfrwt>
<totfact> 0.28161756E+05</totfact>
</mgrwt>
</event>
<event>
 5   1  0.1357339E+00  0.8997753E+02  0.7818608E-02  0.1302906E+00
          1   -1    0    0  501    0  0.00000000000E+00  0.00000000000E+00  0.71615010519E+02  0.71615010672E+02  0.46700000000E-02 0. -1.
         -1   -1    0    0    0  501 -0.00000000000E+00 -0.00000000000E+00 -0.28262075311E+02  0.28262075697E+02  0.46700000000E-02 0.  1.
         23    2    1    2    0    0  0.00000000000E+00  0.00000000000E+00  0.43352935208E+02  0.99877086369E+02  0.89977527141E+02 0.  0.
        -11    1    3    3    0    0 -0.11135646996E+02 -0.45732177058E+01 -0.26441082759E+02  0.29052500959E+02  0.51100000000E-03 0.  1.
         11    1    3    3    0    0  0.11135646996E+02  0.45732177058E+01  0.69794017967E+02  0.70824585410E+02  0.51100000000E-03 0. -1.
<mgrwt>
<rscale>  0 0.89977527E+02</rscale>
<asrwt>0</asrwt>
<pdfrwt beam="1">  1        1 0.11017694E-01 0.89977527E+02</pdfrwt>
<pdfrwt beam="2">  1       -1 0.43480117E-02 0.89977527E+02</pdfrwt>
<totfact> 0.10268875E+05</totfact>
</mgrwt>
</event>
<event>
 5   1  0.1357339E+00  0.9121781E+02  0.7818608E-02  0.1299929E+00
         -1   -1    0    0    0  501 -0.00000000000E+00  0.00000000000E+00  0.52740059914E+02  0.52740060120E+02  0.46700000000E-02 0.  1.
          1   -1    0    0  501    0  0.00000000000E+00 -0.00000000000E+00 -0.39441972681E+02  0.39441972957E+02  0.46700000000E-02 0. -1.
         23    2    1    2    0    0  0.00000000000E+00  0.00000000000E+00  0.13298087233E+02  0.92182033078E+02  0.91217805818E+02 0.  0.
        -11    1    3    3    0    0  0.10431065638E+02 -0.26728701190E+02  0.42477176882E+02  0.51259546953E+02  0.51100000000E-03 0.  1.
         11    1    3    3    0    0 -0.10431065638E+02  0.26728701190E+02 -0.29179089649E+02  0.40922486125E+02  0.51100000000E-03 0. -1.
<mgrwt>
<rscale>  0 0.91217806E+02</rscale>
<asrwt>0</asrwt>
<pdfrwt beam="2">  1        1 0.60679959E-02 0.91217806E+02</pdfrwt>
<pdfrwt beam="1">  1       -1 0.81138554E-02 0.91217806E+02</pdfrwt>
<totfact> 0.90355231E+04</totfact>
</mgrwt>
</event>
<event>
 5   1  0.1357339E+00  0.9154917E+02  0.7818608E-02  0.1299143E+00
          1   -1    0    0  501    0  0.00000000000E+00  0.00000000000E+00  0.18660657825E+03  0.18660657831E+03  0.46700000000E-02 0. -1.
         -1   -1    0    0    0  501 -0.00000000000E+00 -0.00000000000E+00 -0.11228502059E+02  0.11228503030E+02  0.46700000000E-02 0.  1.
         23    2    1    2    0    0  0.00000000000E+00  0.00000000000E+00  0.17537807619E+03  0.19783508134E+03  0.91549166023E+02 0.  0.
        -11    1    3    3    0    0 -0.11065094149E+02 -0.44369504253E+02  0.83248133342E+02  0.94980739739E+02  0.51100000000E-03 0. -1.
         11    1    3    3    0    0  0.11065094149E+02  0.44369504253E+02  0.92129942851E+02  0.10285434160E+03  0.51100000000E-03 0.  1.
<mgrwt>
<rscale>  0 0.91549166E+02</rscale>
<asrwt>0</asrwt>
<pdfrwt beam="1">  1        1 0.28708704E-01 0.91549166E+02</pdfrwt>
<pdfrwt beam="2">  1       -1 0.17274620E-02 0.91549166E+02</pdfrwt>
<totfact> 0.11555827E+05</totfact>
</mgrwt>
</event>
<event>
 5   1  0.1357339E+00  0.9291635E+02  0.7818608E-02  0.1295939E+00
         -1   -1    0    0    0  501 -0.00000000000E+00  0.00000000000E+00  0.11394471508E+03  0.11394471518E+03  0.46700000000E-02 0.  1.
          1   -1    0    0  501    0  0.00000000000E+00 -0.00000000000E+00 -0.18942186447E+02  0.18942187022E+02  0.46700000000E-02 0. -1.
         23    2    1    2    0    0  0.00000000000E+00  0.00000000000E+00  0.95002528636E+02  0.13288690220E+03  0.92916351249E+02 0.  0.
        -11    1    3    3    0    0 -0.11758396096E+01  0.45945594871E+02  0.57199282458E+02  0.73376687039E+02  0.51100000000E-03 0.  1.
         11    1    3    3    0    0  0.11758396096E+01 -0.45945594871E+02  0.37803246178E+02  0.59510215162E+02  0.51100000000E-03 0. -1.
<mgrwt>
<rscale>  0 0.92916351E+02</rscale>
<asrwt>0</asrwt>
<pdfrwt beam="2">  1        1 0.29141826E-02 0.92916351E+02</pdfrwt>
<pdfrwt beam="1">  1       -1 0.17529956E-01 0.92916351E+02</pdfrwt>
<totfact> 0.75570082E+04</totfact>
</mgrwt>
</event>
<event>
 5   1  0.1357339E+00  0.9104724E+02  0.7818608E-02  0.1300335E+00
          1   -1    0    0  501    0  0.00000000000E+00  0.00000000000E+00  0.35739518293E+03  0.35739518296E+03  0.46700000000E-02 0. -1.
         -1   -1    0    0    0  501 -0.00000000000E+00 -0.00000000000E+00 -0.57986219857E+01  0.57986238662E+01  0.46700000000E-02 0.  1.
         23    2    1    2    0    0  0.00000000000E+00  0.00000000000E+00  0.35159656095E+03  0.36319380683E+03  0.91047238560E+02 0.  0.
        -11    1    3    3    0    0  0.40018754687E+02  0.16266234480E+02  0.11850145852E+03  0.12612964276E+03  0.51100000000E-03 0.  1.
         11    1    3    3    0    0 -0.40018754687E+02 -0.16266234480E+02  0.23309510242E+03  0.23706416407E+03  0.51100000000E-03 0. -1.
<mgrwt>
<rscale>  0 0.91047239E+02</rscale>
<asrwt>0</asrwt>
<pdfrwt beam="1">  1        1 0.54983886E-01 0.91047239E+02</pdfrwt>
<pdfrwt beam="2">  1       -1 0.89209566E-03 0.91047239E+02</pdfrwt>
<totfact> 0.13282425E+05</totfact>
</mgrwt>
</event>
<event>
 5   1  0.1357339E+00  0.9197434E+02  0.7818608E-02  0.1298140E+00
          1   -1    0    0  501    0  0.00000000000E+00  0.00000000000E+00  0.25785987700E+02  0.25785988123E+02  0.46700000000E-02 0. -1.
         -1   -1    0    0    0  501 -0.00000000000E+00 -0.00000000000E+00 -0.82014303065E+02  0.82014303198E+02  0.46700000000E-02 0.  1.
         23    2    1    2    0    0  0.00000000000E+00  0.00000000000E+00 -0.56228315365E+02  0.10780029132E+03  0.91974340770E+02 0.  0.
        -11    1    3    3    0    0 -0.16561531774E+02 -0.41311952766E+02 -0.14553663396E+02  0.46827031665E+02  0.51100000000E-03 0. -1.
         11    1    3    3    0    0  0.16561531774E+02  0.41311952766E+02 -0.41674651969E+02  0.60973259656E+02  0.51100000000E-03 0.  1.
<mgrwt>
<rscale>  0 0.91974341E+02</rscale>
<asrwt>0</asrwt>
<pdfrwt beam="1">  1        1 0.39670751E-02 0.91974341E+02</pdfrwt>
<pdfrwt beam="2">  1       -1 0.12617585E-01 0.91974341E+02</pdfrwt>
<totfact> 0.82432016E+04</totfact>
</mgrwt>
</event>
<event>
 5   1  0.1357339E+00  0.8749223E+02  0.7818608E-02  0.1309041E+00
          1   -1    0    0  501    0  0.00000000000E+00  0.00000000000E+00  0.15457031155E+02  0.15457031861E+02  0.46700000000E-02 0. -1.
         -1   -1    0    0    0  501 -0.00000000000E+00 -0.00000000000E+00 -0.12380918771E+03  0.12380918780E+03  0.46700000000E-02 0.  1.
         23    2    1    2    0    0  0.00000000000E+00  0.00000000000E+00 -0.10835215656E+03  0.13926621966E+03  0.87492228844E+02 0.  0.
        -11    1    3    3    0    0 -0.11676744897E+02 -0.41673664357E+02 -0.44023492270E+02  0.61734176469E+02  0.51100000000E-03 0. -1.
         11    1    3    3    0    0  0.11676744897E+02  0.41673664357E+02 -0.64328664285E+02  0.77532043191E+02  0.51100000000E-03 0.  1.
<mgrwt>
<rscale>  0 0.87492229E+02</rscale>
<asrwt>0</asrwt>
<pdfrwt beam="1">  1        1 0.23780049E-02 0.87492229E+02</pdfrwt>
<pdfrwt beam="2">  1       -1 0.19047567E-01 0.87492229E+02</pdfrwt>
<totfact> 0.86796076E+04</totfact>
</mgrwt>
</event>
<event>
 5   1  0.1357339E+00  0.9242330E+02  0.7818608E-02  0.1297087E+00
          1   -1    0    0  501    0  0.00000000000E+00  0.00000000000E+00  0.41441871163E+02  0.41441871426E+02  0.46700000000E-02 0. -1.
         -1   -1    0    0    0  501 -0.00000000000E+00 -0.00000000000E+00 -0.51530406373E+02  0.51530406585E+02  0.46700000000E-02 0.  1.
         23    2    1    2    0    0  0.00000000000E+00  0.00000000000E+00 -0.10088535210E+02  0.92972278011E+02  0.92423297582E+02 0.  0.
        -11    1    3    3    0    0 -0.65241289056E+01  0.16361248264E+02  0.37932583584E+02  0.41822668499E+02  0.51100000000E-03 0. -1.
         11    1    3    3    0    0  0.65241289056E+01 -0.16361248264E+02 -0.48021118795E+02  0.51149609512E+02  0.51100000000E-03 0.  1.
<mgrwt>
<rscale>  0 0.92423298E+02</rscale>
<asrwt>0</asrwt>
<pdfrwt beam="1">  1        1 0.63756726E-02 0.92423298E+02</pdfrwt>
<pdfrwt beam="2">  1       -1 0.79277548E-02 0.92423298E+02</pdfrwt>
<totfact> 0.87720821E+04</totfact>
</mgrwt>
</event>
<event>
 5   1  0.1357339E+00  0.8880044E+02  0.7818608E-02  0.1305783E+00
          1   -1    0    0  501    0  0.00000000000E+00  0.00000000000E+00  0.30913996200E+03  0.30913996204E+03  0.46700000000E-02 0. -1.
         -1   -1    0    0    0  501 -0.00000000000E+00 -0.00000000000E+00 -0.63769799685E+01  0.63769816784E+01  0.46700000000E-02 0.  1.
         23    2    1    2    0    0  0.00000000000E+00  0.00000000000E+00  0.30276298203E+03  0.31551694371E+03  0.88800441901E+02 0.  0.
        -11    1    3    3    0    0  0.18507908715E+02  0.35929015537E+02  0.86064052639E+02  0.95081323084E+02  0.51100000000E-03 0. -1.
         11    1    3    3    0    0 -0.18507908715E+02 -0.35929015537E+02  0.21669892939E+03  0.22043562063E+03  0.51100000000E-03 0.  1.
<mgrwt>
<rscale>  0 0.88800442E+02</rscale>
<asrwt>0</asrwt>
<pdfrwt beam="1">  1        1 0.47559991E-01 0.88800442E+02</pdfrwt>
<pdfrwt beam="2">  1       -1 0.98107405E-03 0.88800442E+02</pdfrwt>
<totfact> 0.13822541E+05</totfact>
</mgrwt>
</event>
<event>
 5   1  0.1357339E+00  0.9000076E+02  0.7818608E-02  0.1302850E+00
         -1   -1    0    0    0  501 -0.00000000000E+00  0.00000000000E+00  0.87831994002E+01  0.87832006417E+01  0.46700000000E-02 0.  1.
          1   -1    0    0  501    0  0.00000000000E+00 -0.00000000000E+00 -0.23055765449E+03  0.23055765454E+03  0.46700000000E-02 0. -1.
         23    2    1    2    0    0  0.00000000000E+00  0.00000000000E+00 -0.22177445509E+03  0.23934085518E+03  0.90000755705E+02 0.  0.
        -11    1    3    3    0    0  0.36404113626E+02  0.19420701440E+02 -0.15865227162E+03  0.16392976064E+03  0.51100000000E-03 0. -1.
         11    1    3    3    0    0 -0.36404113626E+02 -0.19420701440E+02 -0.63122183476E+02  0.75411094545E+02  0.51100000000E-03 0.  1.
<mgrwt>
<rscale>  0 0.90000756E+02</rscale>
<asrwt>0</asrwt>
<pdfrwt beam="2">  1        1 0.35470404E-01 0.90000756E+02</pdfrwt>
<pdfrwt beam="1">  1       -1 0.13512617E-02 0.90000756E+02</pdfrwt>
<totfact> 0.12602890E+05</totfact>
</mgrwt>
</event>
<event>
 5   1  0.1357339E+00  0.9125939E+02  0.7818608E-02  0.1299830E+00
          1   -1    0    0  501    0  0.00000000000E+00  0.00000000000E+00  0.93555438396E+02  0.93555438512E+02  0.46700000000E-02 0. -1.
         -1   -1    0    0    0  501 -0.00000000000E+00 -0.00000000000E+00 -0.22254920544E+02  0.22254921034E+02  0.46700000000E-02 0.  1.
         23    2    1    2    0    0  0.00000000000E+00  0.00000000000E+00  0.71300517851E+02  0.11581035955E+03  0.91259385996E+02 0.  0.
        -11    1    3    3    0    0  0.17148355645E+02  0.18706806165E+02 -0.12473339773E+02  0.28277109180E+02  0.51100000000E-03 0.  1.
         11    1    3    3    0    0 -0.17148355645E+02 -0.18706806165E+02  0.83773857624E+02  0.87533250366E+02  0.51100000000E-03 0. -1.
<mgrwt>
<rscale>  0 0.91259386E+02</rscale>
<asrwt>0</asrwt>
<pdfrwt beam="1">  1        1 0.14393145E-01 0.91259386E+02</pdfrwt>
<pdfrwt beam="2">  1       -1 0.34238339E-02 0.91259386E+02</pdfrwt>
<totfact> 0.10305506E+05</totfact>
</mgrwt>
</event>
<event>
 5   1  0.1357339E+00  0.9120530E+02  0.7818608E-02  0.1299959E+00
          1   -1    0    0  501    0  0.00000000000E+00  0.00000000000E+00  0.22612864693E+02  0.22612865176E+02  0.46700000000E-02 0. -1.
         -1   -1    0    0    0  501 -0.00000000000E+00 -0.00000000000E+00 -0.91965416433E+02  0.91965416552E+02  0.46700000000E-02 0.  1.
         23    2    1    2    0    0  0.00000000000E+00  0.00000000000E+00 -0.69352551740E+02  0.11457828173E+03  0.91205297055E+02 0.  0.
        -11    1    3    3    0    0 -0.12841878207E+02  0.39452872854E+02 -0.58451241539E+02  0.71679778529E+02  0.51100000000E-03 0.  1.
         11    1    3    3    0    0  0.12841878207E+02 -0.39452872854E+02 -0.10901310201E+02  0.42898503198E+02  0.51100000000E-03 0. -1.
<mgrwt>
<rscale>  0 0.91205297E+02</rscale>
<asrwt>0</asrwt>
<pdfrwt beam="1">  1        1 0.34789024E-02 0.91205297E+02</pdfrwt>
<pdfrwt beam="2">  1       -1 0.14148525E-01 0.91205297E+02</pdfrwt>
<totfact> 0.82557121E+04</totfact>
</mgrwt>
</event>
<event>
 5   1  0.1357339E+00  0.9314808E+02  0.7818608E-02  0.1295402E+00
         -1   -1    0    0    0  501 -0.00000000000E+00  0.00000000000E+00  0.13447090743E+03  0.13447090751E+03  0.46700000000E-02 0.  1.
          1   -1    0    0  501    0  0.00000000000E+00 -0.00000000000E+00 -0.16130931853E+02  0.16130932529E+02  0.46700000000E-02 0. -1.
         23    2    1    2    0    0  0.00000000000E+00  0.00000000000E+00  0.11833997558E+03  0.15060184004E+03  0.93148077832E+02 0.  0.
        -11    1    3    3    0    0  0.95986295160E+01  0.23110191706E+02  0.12267806922E+03  0.12520432627E+03  0.51100000000E-03 0.  1.
         11    1    3    3    0    0 -0.95986295160E+01 -0.23110191706E+02 -0.43380936368E+01  0.25397513774E+02  0.51100000000E-03 0. -1.
<mgrwt>
<rscale>  0 0.93148078E+02</rscale>
<asrwt>0</asrwt>
<pdfrwt beam="2">  1        1 0.24816819E-02 0.93148078E+02</pdfrwt>
<pdfrwt beam="1">  1       -1 0.20687832E-01 0.93148078E+02</pdfrwt>
<totfact> 0.72523062E+04</totfact>
</mgrwt>
</event>
<event>
 5   1  0.1357339E+00  0.9074542E+02  0.7818608E-02  0.1301057E+00
         -1   -1    0    0    0  501 -0.00000000000E+00  0.00000000000E+00  0.41716118142E+03  0.41716118145E+03  0.46700000000E-02 0.  1.
          1   -1    0    0  501    0  0.00000000000E+00 -0.00000000000E+00 -0.49349802153E+01  0.49349824250E+01  0.46700000000E-02 0. -1.
         23    2    1    2    0    0  0.00000000000E+00  0.00000000000E+00  0.41222620120E+03  0.42209616387E+03  0.90745416386E+02 0.  0.
        -11    1    3    3    0    0 -0.43074758926E+02 -0.12560961517E+02  0.17474780646E+03  0.18041620901E+03  0.51100000000E-03 0. -1.
         11    1    3    3    0    0  0.43074758926E+02  0.12560961517E+02  0.23747839474E+03  0.24167995486E+03  0.51100000000E-03 0.  1.
<mgrwt>
<rscale>  0 0.90745416E+02</rscale>
<asrwt>0</asrwt>
<pdfrwt beam="2">  1        1 0.75922764E-03 0.90745416E+02</pdfrwt>
<pdfrwt beam="1">  1       -1 0.64178665E-01 0.90745416E+02</pdfrwt>
<totfact> 0.52802127E+04</totfact>
</mgrwt>
</event>
<event>
 5   1  0.1357339E+00  0.8927408E+02  0.7818608E-02  0.1304619E+00
          1   -1    0    0  501    0  0.00000000000E+00  0.00000000000E+00  0.66688930094E+01  0.66688946445E+01  0.46700000000E-02 0. -1.
         -1   -1    0    0    0  501 -0.00000000000E+00 -0.00000000000E+00 -0.29877000199E+03  0.29877000203E+03  0.46700000000E-02 0.  1.
         23    2    1    2    0    0  0.00000000000E+00  0.00000000000E+00 -0.29210110898E+03  0.30543889668E+03  0.89274082085E+02 0.  0.
        -11    1    3    3    0    0  0.39858510018E+02  0.45559452189E+01 -0.21300861374E+03  0.21675360893E+03  0.51100000000E-03 0.  1.
         11    1    3    3    0    0 -0.39858510018E+02 -0.45559452189E+01 -0.79092495249E+02  0.88685287746E+02  0.51100000000E-03 0. -1.
<mgrwt>
<rscale>  0 0.89274082E+02</rscale>
<asrwt>0</asrwt>
<pdfrwt beam="1">  1        1 0.10259839E-02 0.89274082E+02</pdfrwt>
<pdfrwt beam="2">  1       -1 0.45964605E-01 0.89274082E+02</pdfrwt>
<totfact> 0.64120648E+04</totfact>
</mgrwt>
</event>
<event>
 5   1  0.1357339E+00  0.9180077E+02  0.7818608E-02  0.1298549E+00
          1   -1    0    0  501    0  0.00000000000E+00  0.00000000000E+00  0.64365330108E+02  0.64365330277E+02  0.46700000000E-02 0. -1.
         -1   -1    0    0    0  501 -0.00000000000E+00 -0.00000000000E+00 -0.32732613890E+02  0.32732614223E+02  0.46700000000E-02 0.  1.
         23    2    1    2    0    0  0.00000000000E+00  0.00000000000E+00  0.31632716218E+02  0.97097944500E+02  0.91800773912E+02 0.  0.
        -11    1    3    3    0    0  0.15018261531E+02 -0.11108559585E+02 -0.28530252939E+02  0.34101665773E+02  0.51100000000E-03 0.  1.
         11    1    3    3    0    0 -0.15018261531E+02  0.11108559585E+02  0.60162969157E+02  0.62996278727E+02  0.51100000000E-03 0. -1.
<mgrwt>
<rscale>  0 0.91800774E+02</rscale>
<asrwt>0</asrwt>
<pdfrwt beam="1">  1        1 0.99023586E-02 0.91800774E+02</pdfrwt>
<pdfrwt beam="2">  1       -1 0.50357868E-02 0.91800774E+02</pdfrwt>
<totfact> 0.95581812E+04</totfact>
</mgrwt>
</event>
<event>
 5   1  0.1357339E+00  0.9503126E+02  0.7818608E-02  0.1291106E+00
         -1   -1    0    0    0  501 -0.00000000000E+00  0.00000000000E+00  0.88679232448E+01  0.88679244745E+01  0.46700000000E-02 0.  1.
          1   -1    0    0  501    0  0.00000000000E+00 -0.00000000000E+00 -0.25459565758E+03  0.25459565762E+03  0.46700000000E-02 0. -1.
         23    2    1    2    0    0  0.00000000000E+00  0.00000000000E+00 -0.24572773433E+03  0.26346358209E+03  0.95031256278E+02 0.  0.
        -11    1    3    3    0    0  0.45616034781E+02 -0.82125528938E+01 -0.93857438022E+02  0.10467801740E+03  0.51100000000E-03 0.  1.
         11    1    3    3    0    0 -0.45616034781E+02  0.82125528938E+01 -0.15187029631E+03  0.15878556469E+03  0.51100000000E-03 0. -1.
<mgrwt>
<rscale>  0 0.95031256E+02</rscale>
<asrwt>0</asrwt>
<pdfrwt beam="2">  1        1 0.39168557E-01 0.95031256E+02</pdfrwt>
<pdfrwt beam="1">  1       -1 0.13642962E-02 0.95031256E+02</pdfrwt>
<totfact> 0.11108204E+05</totfact>
</mgrwt>
</event>
<event>
 5   1  0.1357339E+00  0.9239089E+02  0.7818608E-02  0.1297163E+00
         -1   -1    0    0    0  501 -0.00000000000E+00  0.00000000000E+00  0.16898002151E+03  0.16898002157E+03  0.46700000000E-02 0.  1.
          1   -1    0    0  501    0  0.00000000000E+00 -0.00000000000E+00 -0.12628823483E+02  0.12628824346E+02  0.46700000000E-02 0. -1.
         23    2    1    2    0    0  0.00000000000E+00  0.00000000000E+00  0.15635119802E+03  0.18160884592E+03  0.92390885871E+02 0.  0.
        -11    1    3    3    0    0 -0.26479302979E+02  0.27192191933E+02  0.12993812880E+03  0.13536796558E+03  0.51100000000E-03 0.  1.
         11    1    3    3    0    0  0.26479302979E+02 -0.27192191933E+02  0.26413069220E+02  0.46240880336E+02  0.51100000000E-03 0. -1.
<mgrwt>
<rscale>  0 0.92390886E+02</rscale>
<asrwt>0</asrwt>
<pdfrwt beam="2">  1        1 0.19428963E-02 0.92390886E+02</pdfrwt>
<pdfrwt beam="1">  1       -1 0.25996922E-01 0.92390886E+02</pdfrwt>
<totfact> 0.70190499E+04</totfact>
</mgrwt>
</event>
<event>
 5   1  0.1357339E+00  0.7901016E+02  0.7818608E-02  0.1331884E+00
         -1   -1    0    0    0  501 -0.00000000000E+00  0.00000000000E+00  0.92990246212E+02  0.92990246330E+02  0.46700000000E-02 0.  1.
          1   -1    0    0  501    0  0.00000000000E+00 -0.00000000000E+00 -0.16782958876E+02  0.16782959525E+02  0.46700000000E-02 0. -1.
         23    2    1    2    0    0  0.00000000000E+00  0.00000000000E+00  0.76207287337E+02  0.10977320586E+03  0.79010164412E+02 0.  0.
        -11    1    3    3    0    0  0.30547482617E+02  0.54416431201E+01  0.41313776795E+01  0.31302211677E+02  0.51100000000E-03 0. -1.
         11    1    3    3    0    0 -0.30547482617E+02 -0.54416431201E+01  0.72075909657E+02  0.78470994178E+02  0.51100000000E-03 0.  1.
<mgrwt>
<rscale>  0 0.79010164E+02</rscale>
<asrwt>0</asrwt>
<pdfrwt beam="2">  1        1 0.25819937E-02 0.79010164E+02</pdfrwt>
<pdfrwt beam="1">  1       -1 0.14306192E-01 0.79010164E+02</pdfrwt>
<totfact> 0.11902688E+05</totfact>
</mgrwt>
</event>
<event>
 5   1  0.1357339E+00  0.9112630E+02  0.7818608E-02  0.1300147E+00
          1   -1    0    0  501    0  0.00000000000E+00  0.00000000000E+00  0.17283487147E+03  0.17283487153E+03  0.46700000000E-02 0. -1.
         -1   -1    0    0    0  501 -0.00000000000E+00 -0.00000000000E+00 -0.12011468058E+02  0.12011468966E+02  0.46700000000E-02 0.  1.
         23    2    1    2    0    0  0.00000000000E+00  0.00000000000E+00  0.16082340341E+03  0.18484634050E+03  0.91126299777E+02 0.  0.
        -11    1    3    3    0    0 -0.30738002241E+01  0.42718879717E+02  0.11194433550E+03  0.11985777064E+03  0.51100000000E-03 0.  1.
         11    1    3    3    0    0  0.30738002241E+01 -0.42718879717E+02  0.48879067912E+02  0.64988569859E+02  0.51100000000E-03 0. -1.
<mgrwt>
<rscale>  0 0.91126300E+02</rscale>
<asrwt>0</asrwt>
<pdfrwt beam="1">  1        1 0.26589980E-01 0.91126300E+02</pdfrwt>
<pdfrwt beam="2">  1       -1 0.18479183E-02 0.91126300E+02</pdfrwt>
<totfact> 0.11530597E+05</totfact>
</mgrwt>
</event>
<event>
 5   1  0.1357339E+00  0.8956401E+02  0.7818608E-02  0.1303911E+00
          1   -1    0    0  501    0  0.00000000000E+00  0.00000000000E+00  0.13550602550E+02  0.13550603355E+02  0.46700000000E-02 0. -1.
         -1   -1    0    0    0  501 -0.00000000000E+00 -0.00000000000E+00 -0.14799547743E+03  0.14799547751E+03  0.46700000000E-02 0.  1.
         23    2    1    2    0    0  0.00000000000E+00  0.00000000000E+00 -0.13444487488E+03  0.16154608086E+03  0.89564009845E+02 0.  0.
        -11    1    3    3    0    0 -0.13547588574E+02  0.41267390234E+02 -0.86889595567E+02  0.97140807444E+02  0.51100000000E-03 0.  1.
         11    1    3    3    0    0  0.13547588574E+02 -0.41267390234E+02 -0.47555279315E+02  0.64405273416E+02  0.51100000000E-03 0. -1.
<mgrwt>
<rscale>  0 0.89564010E+02</rscale>
<asrwt>0</asrwt>
<pdfrwt beam="1">  1        1 0.20847083E-02 0.89564010E+02</pdfrwt>
<pdfrwt beam="2">  1       -1 0.22768534E-01 0.89564010E+02</pdfrwt>
<totfact> 0.78575355E+04</totfact>
</mgrwt>
</event>
<event>
 5   1  0.1357339E+00  0.8834348E+02  0.7818608E-02  0.1306913E+00
          1   -1    0    0  501    0  0.00000000000E+00  0.00000000000E+00  0.18570814176E+03  0.18570814182E+03  0.46700000000E-02 0.  1.
         -1   -1    0    0    0  501 -0.00000000000E+00 -0.00000000000E+00 -0.10506500192E+02  0.10506501230E+02  0.46700000000E-02 0. -1.
         23    2    1    2    0    0  0.00000000000E+00  0.00000000000E+00  0.17520164157E+03  0.19621464305E+03  0.88343482717E+02 0.  0.
        -11    1    3    3    0    0  0.27374674971E+02 -0.32949881770E+02  0.11152993437E+03  0.11947382056E+03  0.51100000000E-03 0.  1.
         11    1    3    3    0    0 -0.27374674971E+02  0.32949881770E+02  0.63671707202E+02  0.76740822492E+02  0.51100000000E-03 0. -1.
<mgrwt>
<rscale>  0 0.88343483E+02</rscale>
<asrwt>0</asrwt>
<pdfrwt beam="1">  1        1 0.28570481E-01 0.88343483E+02</pdfrwt>
<pdfrwt beam="2">  1       -1 0.16163849E-02 0.88343483E+02</pdfrwt>
<totfact> 0.12702374E+05</totfact>
</mgrwt>
</event>
<event>
 5   1  0.1357339E+00  0.9262331E+02  0.7818608E-02  0.1296620E+00
          1   -1    0    0  501    0  0.00000000000E+00  0.00000000000E+00  0.39327671680E+02  0.39327671958E+02  0.46700000000E-02 0. -1.
         -1   -1    0    0    0  501 -0.00000000000E+00 -0.00000000000E+00 -0.54535885303E+02  0.54535885503E+02  0.46700000000E-02 0.  1.
         23    2    1    2    0    0  0.00000000000E+00  0.00000000000E+00 -0.15208213623E+02  0.93863557460E+02  0.92623310552E+02 0.  0.
        -11    1    3    3    0    0 -0.26104167095E+02 -0.19091796735E+02 -0.41196810773E+02  0.52374626113E+02  0.51100000000E-03 0.  1.
         11    1    3    3    0    0  0.26104167095E+02  0.19091796735E+02  0.25988597150E+02  0.41488931348E+02  0.51100000000E-03 0. -1.
<mgrwt>
<rscale>  0 0.92623311E+02</rscale>
<asrwt>0</asrwt>
<pdfrwt beam="1">  1        1 0.60504111E-02 0.92623311E+02</pdfrwt>
<pdfrwt beam="2">  1       -1 0.83901362E-02 0.92623311E+02</pdfrwt>
<totfact> 0.86485300E+04</totfact>
</mgrwt>
</event>
<event>
 5   1  0.1357339E+00  0.9225451E+02  0.7818608E-02  0.1297482E+00
         -1   -1    0    0    0  501 -0.00000000000E+00  0.00000000000E+00  0.46718535334E+02  0.46718535567E+02  0.46700000000E-02 0.  1.
          1   -1    0    0  501    0  0.00000000000E+00 -0.00000000000E+00 -0.45543458206E+02  0.45543458445E+02  0.46700000000E-02 0. -1.
         23    2    1    2    0    0  0.00000000000E+00  0.00000000000E+00  0.11750771279E+01  0.92261994012E+02  0.92254510637E+02 0.  0.
        -11    1    3    3    0    0  0.25339812260E+02 -0.33828344652E+02  0.19062279747E+02  0.46366296991E+02  0.51100000000E-03 0.  1.
         11    1    3    3    0    0 -0.25339812260E+02  0.33828344652E+02 -0.17887202620E+02  0.45895697021E+02  0.51100000000E-03 0. -1.
<mgrwt>
<rscale>  0 0.92254511E+02</rscale>
<asrwt>0</asrwt>
<pdfrwt beam="2">  1        1 0.70066859E-02 0.92254511E+02</pdfrwt>
<pdfrwt beam="1">  1       -1 0.71874670E-02 0.92254511E+02</pdfrwt>
<totfact> 0.89452957E+04</totfact>
</mgrwt>
</event>
<event>
 5   1  0.1357339E+00  0.8787696E+02  0.7818608E-02  0.1308076E+00
         -1   -1    0    0    0  501 -0.00000000000E+00  0.00000000000E+00  0.23326627774E+02  0.23326628242E+02  0.46700000000E-02 0.  1.
          1   -1    0    0  501    0  0.00000000000E+00 -0.00000000000E+00 -0.82763364004E+02  0.82763364135E+02  0.46700000000E-02 0. -1.
         23    2    1    2    0    0  0.00000000000E+00  0.00000000000E+00 -0.59436736229E+02  0.10608999238E+03  0.87876964382E+02 0.  0.
        -11    1    3    3    0    0  0.16654559502E+02  0.61320047250E+01 -0.78243667926E+02  0.80231212161E+02  0.51100000000E-03 0. -1.
         11    1    3    3    0    0 -0.16654559502E+02 -0.61320047250E+01  0.18806931697E+02  0.25858780216E+02  0.51100000000E-03 0.  1.
<mgrwt>
<rscale>  0 0.87876964E+02</rscale>
<asrwt>0</asrwt>
<pdfrwt beam="2">  1        1 0.12732825E-01 0.87876964E+02</pdfrwt>
<pdfrwt beam="1">  1       -1 0.35887121E-02 0.87876964E+02</pdfrwt>
<totfact> 0.11202221E+05</totfact>
</mgrwt>
</event>
<event>
 5   1  0.1357339E+00  0.9072173E+02  0.7818608E-02  0.1301113E+00
          1   -1    0    0  501    0  0.00000000000E+00  0.00000000000E+00  0.16585454806E+02  0.16585455464E+02  0.46700000000E-02 0. -1.
         -1   -1    0    0    0  501 -0.00000000000E+00 -0.00000000000E+00 -0.12406098174E+03  0.12406098183E+03  0.46700000000E-02 0.  1.
         23    2    1    2    0    0  0.00000000000E+00  0.00000000000E+00 -0.10747552693E+03  0.14064643729E+03  0.90721725255E+02 0.  0.
        -11    1    3    3    0    0  0.14680089890E+02  0.24607720478E+02  0.77843240226E+00  0.28664453659E+02  0.51100000000E-03 0. -1.
         11    1    3    3    0    0 -0.14680089890E+02 -0.24607720478E+02 -0.10825395934E+03  0.11198198363E+03  0.51100000000E-03 0.  1.
<mgrwt>
<rscale>  0 0.90721725E+02</rscale>
<asrwt>0</asrwt>
<pdfrwt beam="1">  1        1 0.25516086E-02 0.90721725E+02</pdfrwt>
<pdfrwt beam="2">  1       -1 0.19086304E-01 0.90721725E+02</pdfrwt>
<totfact> 0.79008227E+04</totfact>
</mgrwt>
</event>
<event>
 5   1  0.1357339E+00  0.9211623E+02  0.7818608E-02  0.1297806E+00
          1   -1    0    0  501    0  0.00000000000E+00  0.00000000000E+00  0.27541890324E+03  0.27541890328E+03  0.46700000000E-02 0. -1.
         -1   -1    0    0    0  501 -0.00000000000E+00 -0.00000000000E+00 -0.77022663984E+01  0.77022678141E+01  0.46700000000E-02 0.  1.
         23    2    1    2    0    0  0.00000000000E+00  0.00000000000E+00  0.26771663685E+03  0.28312117110E+03  0.92116230274E+02 0.  0.
        -11    1    3    3    0    0 -0.37113706052E+02  0.15317068639E+02  0.20322123989E+03  0.20714949218E+03  0.51100000000E-03 0. -1.
         11    1    3    3    0    0  0.37113706052E+02 -0.15317068639E+02  0.64495396957E+02  0.75971678917E+02  0.51100000000E-03 0.  1.
<mgrwt>
<rscale>  0 0.92116230E+02</rscale>
<asrwt>0</asrwt>
<pdfrwt beam="1">  1        1 0.42372137E-01 0.92116230E+02</pdfrwt>
<pdfrwt beam="2">  1       -1 0.11849642E-02 0.92116230E+02</pdfrwt>
<totfact> 0.12262544E+05</totfact>
</mgrwt>
</event>
<event>
 5   1  0.1357339E+00  0.9034846E+02  0.7818608E-02  0.1302010E+00
         -1   -1    0    0    0  501 -0.00000000000E+00  0.00000000000E+00  0.84468870177E+02  0.84468870306E+02  0.46700000000E-02 0.  1.
          1   -1    0    0  501    0  0.00000000000E+00 -0.00000000000E+00 -0.24159329051E+02  0.24159329503E+02  0.46700000000E-02 0. -1.
         23    2    1    2    0    0  0.00000000000E+00  0.00000000000E+00  0.60309541126E+02  0.10862819981E+03  0.90348464530E+02 0.  0.
        -11    1    3    3    0    0 -0.14011710803E+02  0.19779662515E+02 -0.15678068106E+02  0.28868060354E+02  0.51100000000E-03 0. -1.
         11    1    3    3    0    0  0.14011710803E+02 -0.19779662515E+02  0.75987609232E+02  0.79760139455E+02  0.51100000000E-03 0.  1.
<mgrwt>
<rscale>  0 0.90348465E+02</rscale>
<asrwt>0</asrwt>
<pdfrwt beam="2">  1        1 0.37168199E-02 0.90348465E+02</pdfrwt>
<pdfrwt beam="1">  1       -1 0.12995211E-01 0.90348465E+02</pdfrwt>
<totfact> 0.85852189E+04</totfact>
</mgrwt>
</event>
<event>
 5   1  0.1357339E+00  0.9077193E+02  0.7818608E-02  0.1300993E+00
          1   -1    0    0  501    0  0.00000000000E+00  0.00000000000E+00  0.31694121272E+02  0.31694121616E+02  0.46700000000E-02 0. -1.
         -1   -1    0    0    0  501 -0.00000000000E+00 -0.00000000000E+00 -0.64992673539E+02  0.64992673707E+02  0.46700000000E-02 0.  1.
         23    2    1    2    0    0  0.00000000000E+00  0.00000000000E+00 -0.33298552267E+02  0.96686795324E+02  0.90771927416E+02 0.  0.
        -11    1    3    3    0    0 -0.42059070516E+02 -0.16394379749E+02 -0.11636832026E+02  0.46617131613E+02  0.51100000000E-03 0.  1.
         11    1    3    3    0    0  0.42059070516E+02  0.16394379749E+02 -0.21661720241E+02  0.50069663710E+02  0.51100000000E-03 0. -1.
<mgrwt>
<rscale>  0 0.90771927E+02</rscale>
<asrwt>0</asrwt>
<pdfrwt beam="1">  1        1 0.48760187E-02 0.90771927E+02</pdfrwt>
<pdfrwt beam="2">  1       -1 0.99988729E-02 0.90771927E+02</pdfrwt>
<totfact> 0.88570290E+04</totfact>
</mgrwt>
</event>
<event>
 5   1  0.1357339E+00  0.8982138E+02  0.7818608E-02  0.1303285E+00
          1   -1    0    0  501    0  0.00000000000E+00  0.00000000000E+00  0.31118656058E+03  0.31118656062E+03  0.46700000000E-02 0. -1.
         -1   -1    0    0    0  501 -0.00000000000E+00 -0.00000000000E+00 -0.64815451582E+01  0.64815468406E+01  0.46700000000E-02 0.  1.
         23    2    1    2    0    0  0.00000000000E+00  0.00000000000E+00  0.30470501542E+03  0.31766810746E+03  0.89821378698E+02 0.  0.
        -11    1    3    3    0    0  0.34784527653E+02  0.17282731992E+02  0.23208950205E+03  0.23531721814E+03  0.51100000000E-03 0. -1.
         11    1    3    3    0    0 -0.34784527653E+02 -0.17282731992E+02  0.72615513369E+02  0.82350889316E+02  0.51100000000E-03 0.  1.
<mgrwt>
<rscale>  0 0.89821379E+02</rscale>
<asrwt>0</asrwt>
<pdfrwt beam="1">  1        1 0.47874851E-01 0.89821379E+02</pdfrwt>
<pdfrwt beam="2">  1       -1 0.99716101E-03 0.89821379E+02</pdfrwt>
<totfact> 0.13425778E+05</totfact>
</mgrwt>
</event>
<event>
 5   1  0.1357339E+00  0.9558333E+02  0.7818608E-02  0.1289868E+00
         -1   -1    0    0    0  501 -0.00000000000E+00  0.00000000000E+00  0.19012526065E+02  0.19012526639E+02  0.46700000000E-02 0.  1.
          1   -1    0    0  501    0  0.00000000000E+00 -0.00000000000E+00 -0.12013360068E+03  0.12013360077E+03  0.46700000000E-02 0. -1.
         23    2    1    2    0    0  0.00000000000E+00  0.00000000000E+00 -0.10112107462E+03  0.13914612741E+03  0.95583330356E+02 0.  0.
        -11    1    3    3    0    0 -0.34756168182E+02  0.31499191295E+02 -0.37229982656E+02  0.59885406300E+02  0.51100000000E-03 0.  1.
         11    1    3    3    0    0  0.34756168182E+02 -0.31499191295E+02 -0.63891091959E+02  0.79260721110E+02  0.51100000000E-03 0. -1.
<mgrwt>
<rscale>  0 0.95583330E+02</rscale>
<asrwt>0</asrwt>
<pdfrwt beam="2">  1        1 0.18482092E-01 0.95583330E+02</pdfrwt>
<pdfrwt beam="1">  1       -1 0.29250041E-02 0.95583330E+02</pdfrwt>
<totfact> 0.94767303E+04</totfact>
</mgrwt>
</event>
<event>
 5   1  0.1357339E+00  0.8846916E+02  0.7818608E-02  0.1306602E+00
         -1   -1    0    0    0  501 -0.00000000000E+00  0.00000000000E+00  0.12323041141E+02  0.12323042026E+02  0.46700000000E-02 0.  1.
          1   -1    0    0  501    0  0.00000000000E+00 -0.00000000000E+00 -0.15878368538E+03  0.15878368544E+03  0.46700000000E-02 0. -1.
         23    2    1    2    0    0  0.00000000000E+00  0.00000000000E+00 -0.14646064424E+03  0.17110672747E+03  0.88469157767E+02 0.  0.
        -11    1    3    3    0    0 -0.48830344327E+01  0.41929557006E+02 -0.98798742910E+02  0.10743892859E+03  0.51100000000E-03 0. -1.
         11    1    3    3    0    0  0.48830344327E+01 -0.41929557006E+02 -0.47661901325E+02  0.63667798880E+02  0.51100000000E-03 0.  1.
<mgrwt>
<rscale>  0 0.88469158E+02</rscale>
<asrwt>0</asrwt>
<pdfrwt beam="2">  1        1 0.24428258E-01 0.88469158E+02</pdfrwt>
<pdfrwt beam="1">  1       -1 0.18958527E-02 0.88469158E+02</pdfrwt>
<totfact> 0.12288225E+05</totfact>
</mgrwt>
</event>
<event>
 5   1  0.1357339E+00  0.8996139E+02  0.7818608E-02  0.1302945E+00
          1   -1    0    0  501    0  0.00000000000E+00  0.00000000000E+00  0.16573425241E+03  0.16573425248E+03  0.46700000000E-02 0. -1.
         -1   -1    0    0    0  501 -0.00000000000E+00 -0.00000000000E+00 -0.12207874757E+02  0.12207875650E+02  0.46700000000E-02 0.  1.
         23    2    1    2    0    0  0.00000000000E+00  0.00000000000E+00  0.15352637765E+03  0.17794212813E+03  0.89961393534E+02 0.  0.
        -11    1    3    3    0    0 -0.27159273052E+02  0.11863962892E+01  0.58798908661E+01  0.27813787331E+02  0.51100000000E-03 0.  1.
         11    1    3    3    0    0  0.27159273052E+02 -0.11863962892E+01  0.14764648679E+03  0.15012834080E+03  0.51100000000E-03 0. -1.
<mgrwt>
<rscale>  0 0.89961394E+02</rscale>
<asrwt>0</asrwt>
<pdfrwt beam="1">  1        1 0.25497576E-01 0.89961394E+02</pdfrwt>
<pdfrwt beam="2">  1       -1 0.18781348E-02 0.89961394E+02</pdfrwt>
<totfact> 0.11842453E+05</totfact>
</mgrwt>
</event>
<event>
 5   1  0.1357339E+00  0.8934774E+02  0.7818608E-02  0.1304439E+00
         -1   -1    0    0    0  501 -0.00000000000E+00  0.00000000000E+00  0.45706980900E+01  0.45707004757E+01  0.46700000000E-02 0.  1.
          1   -1    0    0  501    0  0.00000000000E+00 -0.00000000000E+00 -0.43664096679E+03  0.43664096681E+03  0.46700000000E-02 0. -1.
         23    2    1    2    0    0  0.00000000000E+00  0.00000000000E+00 -0.43207026870E+03  0.44121166729E+03  0.89347737850E+02 0.  0.
        -11    1    3    3    0    0  0.28860676046E+02 -0.33433973560E+02 -0.18291447291E+03  0.18817139424E+03  0.51100000000E-03 0. -1.
         11    1    3    3    0    0 -0.28860676046E+02  0.33433973560E+02 -0.24915579579E+03  0.25304027305E+03  0.51100000000E-03 0.  1.
<mgrwt>
<rscale>  0 0.89347738E+02</rscale>
<asrwt>0</asrwt>
<pdfrwt beam="2">  1        1 0.67175501E-01 0.89347738E+02</pdfrwt>
<pdfrwt beam="1">  1       -1 0.70318485E-03 0.89347738E+02</pdfrwt>
<totfact> 0.14429831E+05</totfact>
</mgrwt>
</event>
<event>
 5   1  0.1357339E+00  0.8757177E+02  0.7818608E-02  0.1308841E+00
         -1   -1    0    0    0  501 -0.00000000000E+00  0.00000000000E+00  0.28918282349E+02  0.28918282726E+02  0.46700000000E-02 0.  1.
          1   -1    0    0  501    0  0.00000000000E+00 -0.00000000000E+00 -0.66297289443E+02  0.66297289608E+02  0.46700000000E-02 0. -1.
         23    2    1    2    0    0  0.00000000000E+00  0.00000000000E+00 -0.37379007094E+02  0.95215572334E+02  0.87571770815E+02 0.  0.
        -11    1    3    3    0    0  0.39660526476E+00  0.10827547285E+02 -0.64816721639E+02  0.65716059530E+02  0.51100000000E-03 0. -1.
         11    1    3    3    0    0 -0.39660526476E+00 -0.10827547285E+02  0.27437714545E+02  0.29499512804E+02  0.51100000000E-03 0.  1.
<mgrwt>
<rscale>  0 0.87571771E+02</rscale>
<asrwt>0</asrwt>
<pdfrwt beam="2">  1        1 0.10199583E-01 0.87571771E+02</pdfrwt>
<pdfrwt beam="1">  1       -1 0.44489666E-02 0.87571771E+02</pdfrwt>
<totfact> 0.10933934E+05</totfact>
</mgrwt>
</event>
<event>
 5   1  0.1357339E+00  0.9224241E+02  0.7818608E-02  0.1297510E+00
          1   -1    0    0  501    0  0.00000000000E+00  0.00000000000E+00  0.13640698682E+03  0.13640698690E+03  0.46700000000E-02 0. -1.
         -1   -1    0    0    0  501 -0.00000000000E+00 -0.00000000000E+00 -0.15594255051E+02  0.15594255750E+02  0.46700000000E-02 0.  1.
         23    2    1    2    0    0  0.00000000000E+00  0.00000000000E+00  0.12081273177E+03  0.15200124265E+03  0.92242406786E+02 0.  0.
        -11    1    3    3    0    0 -0.40929562461E+02 -0.67868619543E+01  0.93604415442E+02  0.10238689940E+03  0.51100000000E-03 0. -1.
         11    1    3    3    0    0  0.40929562461E+02  0.67868619543E+01  0.27208316328E+02  0.49614343250E+02  0.51100000000E-03 0.  1.
<mgrwt>
<rscale>  0 0.92242407E+02</rscale>
<asrwt>0</asrwt>
<pdfrwt beam="1">  1        1 0.20985691E-01 0.92242407E+02</pdfrwt>
<pdfrwt beam="2">  1       -1 0.23991162E-02 0.92242407E+02</pdfrwt>
<totfact> 0.10679804E+05</totfact>
</mgrwt>
</event>
<event>
 5   1  0.1357339E+00  0.9133276E+02  0.7818608E-02  0.1299656E+00
          1   -1    0    0  501    0  0.00000000000E+00  0.00000000000E+00  0.75230239206E+02  0.75230239351E+02  0.46700000000E-02 0. -1.
         -1   -1    0    0    0  501 -0.00000000000E+00 -0.00000000000E+00 -0.27720480119E+02  0.27720480512E+02  0.46700000000E-02 0.  1.
         23    2    1    2    0    0  0.00000000000E+00  0.00000000000E+00  0.47509759087E+02  0.10295071986E+03  0.91332762533E+02 0.  0.
        -11    1    3    3    0    0 -0.57520983493E+01 -0.19255295177E+02  0.69978043418E+02  0.72806452933E+02  0.51100000000E-03 0. -1.
         11    1    3    3    0    0  0.57520983493E+01  0.19255295177E+02 -0.22468284331E+02  0.30144266931E+02  0.51100000000E-03 0.  1.
<mgrwt>
<rscale>  0 0.91332763E+02</rscale>
<asrwt>0</asrwt>
<pdfrwt beam="1">  1        1 0.11573883E-01 0.91332763E+02</pdfrwt>
<pdfrwt beam="2">  1       -1 0.42646894E-02 0.91332763E+02</pdfrwt>
<totfact> 0.99308631E+04</totfact>
</mgrwt>
</event>
<event>
 5   1  0.1357339E+00  0.9072612E+02  0.7818608E-02  0.1301103E+00
         -1   -1    0    0    0  501 -0.00000000000E+00  0.00000000000E+00  0.64681263519E+02  0.64681263688E+02  0.46700000000E-02 0.  1.
          1   -1    0    0  501    0  0.00000000000E+00 -0.00000000000E+00 -0.31814576767E+02  0.31814577109E+02  0.46700000000E-02 0. -1.
         23    2    1    2    0    0  0.00000000000E+00  0.00000000000E+00  0.32866686753E+02  0.96495840797E+02  0.90726116378E+02 0.  0.
        -11    1    3    3    0    0  0.31914161489E+02 -0.11709593121E+02  0.48379791261E+02  0.59128947879E+02  0.51100000000E-03 0.  1.
         11    1    3    3    0    0 -0.31914161489E+02  0.11709593121E+02 -0.15513104508E+02  0.37366892918E+02  0.51100000000E-03 0. -1.
<mgrwt>
<rscale>  0 0.90726116E+02</rscale>
<asrwt>0</asrwt>
<pdfrwt beam="2">  1        1 0.48945503E-02 0.90726116E+02</pdfrwt>
<pdfrwt beam="1">  1       -1 0.99509636E-02 0.90726116E+02</pdfrwt>
<totfact> 0.88751260E+04</totfact>
</mgrwt>
</event>
<event>
 5   1  0.1357339E+00  0.9592536E+02  0.7818608E-02  0.1289105E+00
         -1   -1    0    0    0  501 -0.00000000000E+00  0.00000000000E+00  0.20220606988E+03  0.20220606994E+03  0.46700000000E-02 0.  1.
          1   -1    0    0  501    0  0.00000000000E+00 -0.00000000000E+00 -0.11376605649E+02  0.11376606608E+02  0.46700000000E-02 0. -1.
         23    2    1    2    0    0  0.00000000000E+00  0.00000000000E+00  0.19082946423E+03  0.21358267654E+03  0.95925363175E+02 0.  0.
        -11    1    3    3    0    0 -0.41672585681E+02  0.23305461880E+02  0.85291912737E+02  0.97746914679E+02  0.51100000000E-03 0.  1.
         11    1    3    3    0    0  0.41672585681E+02 -0.23305461880E+02  0.10553755150E+03  0.11583576186E+03  0.51100000000E-03 0. -1.
<mgrwt>
<rscale>  0 0.95925363E+02</rscale>
<asrwt>0</asrwt>
<pdfrwt beam="2">  1        1 0.17502471E-02 0.95925363E+02</pdfrwt>
<pdfrwt beam="1">  1       -1 0.31108626E-01 0.95925363E+02</pdfrwt>
<totfact> 0.60613139E+04</totfact>
</mgrwt>
</event>
<event>
 5   1  0.1357339E+00  0.9155380E+02  0.7818608E-02  0.1299132E+00
          1   -1    0    0  501    0  0.00000000000E+00  0.00000000000E+00  0.74447236179E+02  0.74447236325E+02  0.46700000000E-02 0. -1.
         -1   -1    0    0    0  501 -0.00000000000E+00 -0.00000000000E+00 -0.28147781341E+02  0.28147781729E+02  0.46700000000E-02 0.  1.
         23    2    1    2    0    0  0.00000000000E+00  0.00000000000E+00  0.46299454837E+02  0.10259501805E+03  0.91553799546E+02 0.  0.
        -11    1    3    3    0    0 -0.11299439995E+02 -0.11977045676E+02  0.71013799523E+02  0.72897782478E+02  0.51100000000E-03 0. -1.
         11    1    3    3    0    0  0.11299439995E+02  0.11977045676E+02 -0.24714344686E+02  0.29697235576E+02  0.51100000000E-03 0.  1.
<mgrwt>
<rscale>  0 0.91553800E+02</rscale>
<asrwt>0</asrwt>
<pdfrwt beam="1">  1        1 0.11453421E-01 0.91553800E+02</pdfrwt>
<pdfrwt beam="2">  1       -1 0.43304279E-02 0.91553800E+02</pdfrwt>
<totfact> 0.98488180E+04</totfact>
</mgrwt>
</event>
<event>
 5   1  0.1357339E+00  0.9166838E+02  0.7818608E-02  0.1298861E+00
          1   -1    0    0  501    0  0.00000000000E+00  0.00000000000E+00  0.78427700782E+02  0.78427700921E+02  0.46700000000E-02 0. -1.
         -1   -1    0    0    0  501 -0.00000000000E+00 -0.00000000000E+00 -0.26786109989E+02  0.26786110396E+02  0.46700000000E-02 0.  1.
         23    2    1    2    0    0  0.00000000000E+00  0.00000000000E+00  0.51641590792E+02  0.10521381132E+03  0.91668381639E+02 0.  0.
        -11    1    3    3    0    0 -0.24218606845E+02  0.37790823442E+02  0.15171547586E+02  0.47379986390E+02  0.51100000000E-03 0.  1.
         11    1    3    3    0    0  0.24218606845E+02 -0.37790823442E+02  0.36470043207E+02  0.57833824927E+02  0.51100000000E-03 0. -1.
<mgrwt>
<rscale>  0 0.91668382E+02</rscale>
<asrwt>0</asrwt>
<pdfrwt beam="1">  1        1 0.12065800E-01 0.91668382E+02</pdfrwt>
<pdfrwt beam="2">  1       -1 0.41209400E-02 0.91668382E+02</pdfrwt>
<totfact> 0.98955494E+04</totfact>
</mgrwt>
</event>
<event>
 5   1  0.1357339E+00  0.8823291E+02  0.7818608E-02  0.1307188E+00
          1   -1    0    0  501    0  0.00000000000E+00  0.00000000000E+00  0.15004916574E+02  0.15004917300E+02  0.46700000000E-02 0. -1.
         -1   -1    0    0    0  501 -0.00000000000E+00 -0.00000000000E+00 -0.12970826744E+03  0.12970826753E+03  0.46700000000E-02 0.  1.
         23    2    1    2    0    0  0.00000000000E+00  0.00000000000E+00 -0.11470335087E+03  0.14471318483E+03  0.88232914280E+02 0.  0.
        -11    1    3    3    0    0 -0.30362628638E+01  0.41560475673E+02 -0.81106340877E+02  0.91185144410E+02  0.51100000000E-03 0. -1.
         11    1    3    3    0    0  0.30362628638E+01 -0.41560475673E+02 -0.33597009993E+02  0.53528040419E+02  0.51100000000E-03 0.  1.
<mgrwt>
<rscale>  0 0.88232914E+02</rscale>
<asrwt>0</asrwt>
<pdfrwt beam="1">  1        1 0.23084488E-02 0.88232914E+02</pdfrwt>
<pdfrwt beam="2">  1       -1 0.19955117E-01 0.88232914E+02</pdfrwt>
<totfact> 0.84103233E+04</totfact>
</mgrwt>
</event>
<event>
 5   1  0.1357339E+00  0.8753545E+02  0.7818608E-02  0.1308932E+00
          1   -1    0    0  501    0  0.00000000000E+00  0.00000000000E+00  0.69144659639E+02  0.69144659797E+02  0.46700000000E-02 0. -1.
         -1   -1    0    0    0  501 -0.00000000000E+00 -0.00000000000E+00 -0.27704436158E+02  0.27704436552E+02  0.46700000000E-02 0.  1.
         23    2    1    2    0    0  0.00000000000E+00  0.00000000000E+00  0.41440223481E+02  0.96849096349E+02  0.87535451912E+02 0.  0.
        -11    1    3    3    0    0  0.33707434247E+02  0.11214185692E+02 -0.75670339817E+01  0.36320918047E+02  0.51100000000E-03 0.  1.
         11    1    3    3    0    0 -0.33707434247E+02 -0.11214185692E+02  0.49007257462E+02  0.60528178301E+02  0.51100000000E-03 0. -1.
<mgrwt>
<rscale>  0 0.87535452E+02</rscale>
<asrwt>0</asrwt>
<pdfrwt beam="1">  1        1 0.10637640E-01 0.87535452E+02</pdfrwt>
<pdfrwt beam="2">  1       -1 0.42622210E-02 0.87535452E+02</pdfrwt>
<totfact> 0.11015467E+05</totfact>
</mgrwt>
</event>
<event>
 5   1  0.1357339E+00  0.9239790E+02  0.7818608E-02  0.1297147E+00
         -1   -1    0    0    0  501 -0.00000000000E+00  0.00000000000E+00  0.16575445533E+03  0.16575445540E+03  0.46700000000E-02 0.  1.
          1   -1    0    0  501    0  0.00000000000E+00 -0.00000000000E+00 -0.12876533870E+02  0.12876534717E+02  0.46700000000E-02 0. -1.
         23    2    1    2    0    0  0.00000000000E+00  0.00000000000E+00  0.15287792146E+03  0.17863099012E+03  0.92397899105E+02 0.  0.
        -11    1    3    3    0    0 -0.59965400356E+01 -0.25382523236E+02  0.15016037062E+03  0.15240855581E+03  0.51100000000E-03 0.  1.
         11    1    3    3    0    0  0.59965400356E+01  0.25382523236E+02  0.27175508420E+01  0.26222434308E+02  0.51100000000E-03 0. -1.
<mgrwt>
<rscale>  0 0.92397899E+02</rscale>
<asrwt>0</asrwt>
<pdfrwt beam="2">  1        1 0.19810052E-02 0.92397899E+02</pdfrwt>
<pdfrwt beam="1">  1       -1 0.25500686E-01 0.92397899E+02</pdfrwt>
<totfact> 0.70518678E+04</totfact>
</mgrwt>
</event>
<event>
 5   1  0.1357339E+00  0.9012371E+02  0.7818608E-02  0.1302552E+00
          1   -1    0    0  501    0  0.00000000000E+00  0.00000000000E+00  0.69752482267E+02  0.69752482423E+02  0.46700000000E-02 0. -1.
         -1   -1    0    0    0  501 -0.00000000000E+00 -0.00000000000E+00 -0.29111088346E+02  0.29111088720E+02  0.46700000000E-02 0.  1.
         23    2    1    2    0    0  0.00000000000E+00  0.00000000000E+00  0.40641393921E+02  0.98863571144E+02  0.90123708309E+02 0.  0.
        -11    1    3    3    0    0  0.29610563066E+02  0.73347356429E+01 -0.16061674086E+02  0.34475515468E+02  0.51100000000E-03 0.  1.
         11    1    3    3    0    0 -0.29610563066E+02 -0.73347356429E+01  0.56703068007E+02  0.64388055676E+02  0.51100000000E-03 0. -1.
<mgrwt>
<rscale>  0 0.90123708E+02</rscale>
<asrwt>0</asrwt>
<pdfrwt beam="1">  1        1 0.10731151E-01 0.90123708E+02</pdfrwt>
<pdfrwt beam="2">  1       -1 0.44786291E-02 0.90123708E+02</pdfrwt>
<totfact> 0.10181910E+05</totfact>
</mgrwt>
</event>
<event>
 5   1  0.1357339E+00  0.9390202E+02  0.7818608E-02  0.1293668E+00
         -1   -1    0    0    0  501 -0.00000000000E+00  0.00000000000E+00  0.11149999620E+03  0.11149999630E+03  0.46700000000E-02 0.  1.
          1   -1    0    0  501    0  0.00000000000E+00 -0.00000000000E+00 -0.19770380314E+02  0.19770380865E+02  0.46700000000E-02 0. -1.
         23    2    1    2    0    0  0.00000000000E+00  0.00000000000E+00  0.91729615885E+02  0.13127037716E+03  0.93902020690E+02 0.  0.
        -11    1    3    3    0    0 -0.35090971894E+02 -0.29054859551E+02  0.61732389851E+02  0.76723198115E+02  0.51100000000E-03 0.  1.
         11    1    3    3    0    0  0.35090971894E+02  0.29054859551E+02  0.29997226034E+02  0.54547179047E+02  0.51100000000E-03 0. -1.
<mgrwt>
<rscale>  0 0.93902021E+02</rscale>
<asrwt>0</asrwt>
<pdfrwt beam="2">  1        1 0.30415971E-02 0.93902021E+02</pdfrwt>
<pdfrwt beam="1">  1       -1 0.17153845E-01 0.93902021E+02</pdfrwt>
<totfact> 0.73853198E+04</totfact>
</mgrwt>
</event>
<event>
 5   1  0.1357339E+00  0.8944777E+02  0.7818608E-02  0.1304195E+00
          1   -1    0    0  501    0  0.00000000000E+00  0.00000000000E+00  0.11448398980E+03  0.11448398989E+03  0.46700000000E-02 0. -1.
         -1   -1    0    0    0  501 -0.00000000000E+00 -0.00000000000E+00 -0.17471665223E+02  0.17471665847E+02  0.46700000000E-02 0.  1.
         23    2    1    2    0    0  0.00000000000E+00  0.00000000000E+00  0.97012324576E+02  0.13195565574E+03  0.89447772261E+02 0.  0.
        -11    1    3    3    0    0  0.39474672332E+01  0.44467622716E+02  0.52484904576E+02  0.68902954770E+02  0.51100000000E-03 0.  1.
         11    1    3    3    0    0 -0.39474672332E+01 -0.44467622716E+02  0.44527420000E+02  0.63052700970E+02  0.51100000000E-03 0. -1.
<mgrwt>
<rscale>  0 0.89447772E+02</rscale>
<asrwt>0</asrwt>
<pdfrwt beam="1">  1        1 0.17612921E-01 0.89447772E+02</pdfrwt>
<pdfrwt beam="2">  1       -1 0.26879486E-02 0.89447772E+02</pdfrwt>
<totfact> 0.11255819E+05</totfact>
</mgrwt>
</event>
<event>
 5   1  0.1357339E+00  0.9061792E+02  0.7818608E-02  0.1301362E+00
          1   -1    0    0  501    0  0.00000000000E+00  0.00000000000E+00  0.16830413077E+02  0.16830413725E+02  0.46700000000E-02 0. -1.
         -1   -1    0    0    0  501 -0.00000000000E+00 -0.00000000000E+00 -0.12197572599E+03  0.12197572608E+03  0.46700000000E-02 0.  1.
         23    2    1    2    0    0  0.00000000000E+00  0.00000000000E+00 -0.10514531291E+03  0.13880613980E+03  0.90617921073E+02 0.  0.
        -11    1    3    3    0    0 -0.81072341168E+01  0.43783997114E+02 -0.65400860895E+02  0.79120403528E+02  0.51100000000E-03 0.  1.
         11    1    3    3    0    0  0.81072341168E+01 -0.43783997114E+02 -0.39744452016E+02  0.59685736274E+02  0.51100000000E-03 0. -1.
<mgrwt>
<rscale>  0 0.90617921E+02</rscale>
<asrwt>0</asrwt>
<pdfrwt beam="1">  1        1 0.25892944E-02 0.90617921E+02</pdfrwt>
<pdfrwt beam="2">  1       -1 0.18765496E-01 0.90617921E+02</pdfrwt>
<totfact> 0.79521356E+04</totfact>
</mgrwt>
</event>
<event>
 5   1  0.1357339E+00  0.9051239E+02  0.7818608E-02  0.1301616E+00
         -1   -1    0    0    0  501 -0.00000000000E+00  0.00000000000E+00  0.31081510921E+02  0.31081511272E+02  0.46700000000E-02 0.  1.
          1   -1    0    0  501    0  0.00000000000E+00 -0.00000000000E+00 -0.65895224414E+02  0.65895224579E+02  0.46700000000E-02 0. -1.
         23    2    1    2    0    0  0.00000000000E+00  0.00000000000E+00 -0.34813713493E+02  0.96976735851E+02  0.90512389479E+02 0.  0.
        -11    1    3    3    0    0 -0.19978345918E+02  0.14562640681E+02 -0.58020839285E+02  0.63068396213E+02  0.51100000000E-03 0. -1.
         11    1    3    3    0    0  0.19978345918E+02 -0.14562640681E+02  0.23207125792E+02  0.33908339638E+02  0.51100000000E-03 0.  1.
<mgrwt>
<rscale>  0 0.90512389E+02</rscale>
<asrwt>0</asrwt>
<pdfrwt beam="2">  1        1 0.10137727E-01 0.90512389E+02</pdfrwt>
<pdfrwt beam="1">  1       -1 0.47817710E-02 0.90512389E+02</pdfrwt>
<totfact> 0.99749162E+04</totfact>
</mgrwt>
</event>
<event>
 5   1  0.1357339E+00  0.8989657E+02  0.7818608E-02  0.1303102E+00
          1   -1    0    0  501    0  0.00000000000E+00  0.00000000000E+00  0.27842367172E+03  0.27842367176E+03  0.46700000000E-02 0. -1.
         -1   -1    0    0    0  501 -0.00000000000E+00 -0.00000000000E+00 -0.72563813089E+01  0.72563828116E+01  0.46700000000E-02 0.  1.
         23    2    1    2    0    0  0.00000000000E+00  0.00000000000E+00  0.27116729041E+03  0.28568005457E+03  0.89896574966E+02 0.  0.
        -11    1    3    3    0    0  0.16072758515E+02 -0.40224039026E+02  0.17372365865E+03  0.17904249903E+03  0.51100000000E-03 0. -1.
         11    1    3    3    0    0 -0.16072758515E+02  0.40224039026E+02  0.97443631757E+02  0.10663755554E+03  0.51100000000E-03 0.  1.
<mgrwt>
<rscale>  0 0.89896575E+02</rscale>
<asrwt>0</asrwt>
<pdfrwt beam="1">  1        1 0.42834406E-01 0.89896575E+02</pdfrwt>
<pdfrwt beam="2">  1       -1 0.11163666E-02 0.89896575E+02</pdfrwt>
<totfact> 0.13114313E+05</totfact>
</mgrwt>
</event>
<event>
 5   1  0.1357339E+00  0.9097438E+02  0.7818608E-02  0.1300509E+00
         -1   -1    0    0    0  501 -0.00000000000E+00  0.00000000000E+00  0.61359597932E+02  0.61359598110E+02  0.46700000000E-02 0.  1.
          1   -1    0    0  501    0  0.00000000000E+00 -0.00000000000E+00 -0.33720634443E+02  0.33720634766E+02  0.46700000000E-02 0. -1.
         23    2    1    2    0    0  0.00000000000E+00  0.00000000000E+00  0.27638963489E+02  0.95080232876E+02  0.90974383103E+02 0.  0.
        -11    1    3    3    0    0  0.77680030043E+01  0.34759010302E+02  0.43390509138E+02  0.56136146567E+02  0.51100000000E-03 0.  1.
         11    1    3    3    0    0 -0.77680030043E+01 -0.34759010302E+02 -0.15751545649E+02  0.38944086309E+02  0.51100000000E-03 0. -1.
<mgrwt>
<rscale>  0 0.90974383E+02</rscale>
<asrwt>0</asrwt>
<pdfrwt beam="2">  1        1 0.51877900E-02 0.90974383E+02</pdfrwt>
<pdfrwt beam="1">  1       -1 0.94399380E-02 0.90974383E+02</pdfrwt>
<totfact> 0.88871020E+04</totfact>
</mgrwt>
</event>
<event>
 5   1  0.1357339E+00  0.8604438E+02  0.7818608E-02  0.1312724E+00
         -1   -1    0    0    0  501 -0.00000000000E+00  0.00000000000E+00  0.91081680565E+02  0.91081680685E+02  0.46700000000E-02 0.  1.
          1   -1    0    0  501    0  0.00000000000E+00 -0.00000000000E+00 -0.20321417080E+02  0.20321417617E+02  0.46700000000E-02 0. -1.
         23    2    1    2    0    0  0.00000000000E+00  0.00000000000E+00  0.70760263485E+02  0.11140309830E+03  0.86044380542E+02 0.  0.
        -11    1    3    3    0    0 -0.97386506155E+01  0.40347518230E+02  0.50036491576E+02  0.65010876265E+02  0.51100000000E-03 0.  1.
         11    1    3    3    0    0  0.97386506155E+01 -0.40347518230E+02  0.20723771909E+02  0.46392222037E+02  0.51100000000E-03 0. -1.
<mgrwt>
<rscale>  0 0.86044381E+02</rscale>
<asrwt>0</asrwt>
<pdfrwt beam="2">  1        1 0.31263719E-02 0.86044381E+02</pdfrwt>
<pdfrwt beam="1">  1       -1 0.14012566E-01 0.86044381E+02</pdfrwt>
<totfact> 0.96025571E+04</totfact>
</mgrwt>
</event>
<event>
 5   1  0.1357339E+00  0.9186955E+02  0.7818608E-02  0.1298386E+00
         -1   -1    0    0    0  501 -0.00000000000E+00  0.00000000000E+00  0.89131057793E+02  0.89131057916E+02  0.46700000000E-02 0.  1.
          1   -1    0    0  501    0  0.00000000000E+00 -0.00000000000E+00 -0.23673046603E+02  0.23673047064E+02  0.46700000000E-02 0. -1.
         23    2    1    2    0    0  0.00000000000E+00  0.00000000000E+00  0.65458011190E+02  0.11280410498E+03  0.91869553560E+02 0.  0.
        -11    1    3    3    0    0 -0.24845615932E+02 -0.37229830935E+02  0.45408760886E+02  0.63759865965E+02  0.51100000000E-03 0.  1.
         11    1    3    3    0    0  0.24845615932E+02  0.37229830935E+02  0.20049250304E+02  0.49044239014E+02  0.51100000000E-03 0. -1.
<mgrwt>
<rscale>  0 0.91869554E+02</rscale>
<asrwt>0</asrwt>
<pdfrwt beam="2">  1        1 0.36420072E-02 0.91869554E+02</pdfrwt>
<pdfrwt beam="1">  1       -1 0.13712470E-01 0.91869554E+02</pdfrwt>
<totfact> 0.81483768E+04</totfact>
</mgrwt>
</event>
<event>
 5   1  0.1357339E+00  0.8417521E+02  0.7818608E-02  0.1317604E+00
         -1   -1    0    0    0  501 -0.00000000000E+00  0.00000000000E+00  0.18415166843E+02  0.18415167435E+02  0.46700000000E-02 0.  1.
          1   -1    0    0  501    0  0.00000000000E+00 -0.00000000000E+00 -0.96190635767E+02  0.96190635880E+02  0.46700000000E-02 0. -1.
         23    2    1    2    0    0  0.00000000000E+00  0.00000000000E+00 -0.77775468924E+02  0.11460580332E+03  0.84175213615E+02 0.  0.
        -11    1    3    3    0    0  0.28264197195E+02  0.21561275543E+02 -0.82124332366E+01  0.36485579426E+02  0.51100000000E-03 0.  1.
         11    1    3    3    0    0 -0.28264197195E+02 -0.21561275543E+02 -0.69563035688E+02  0.78120223889E+02  0.51100000000E-03 0. -1.
<mgrwt>
<rscale>  0 0.84175214E+02</rscale>
<asrwt>0</asrwt>
<pdfrwt beam="2">  1        1 0.14798559E-01 0.84175214E+02</pdfrwt>
<pdfrwt beam="1">  1       -1 0.28331027E-02 0.84175214E+02</pdfrwt>
<totfact> 0.12890394E+05</totfact>
</mgrwt>
</event>
<event>
 5   1  0.1357339E+00  0.8976892E+02  0.7818608E-02  0.1303412E+00
         -1   -1    0    0    0  501 -0.00000000000E+00  0.00000000000E+00  0.26360853785E+02  0.26360854199E+02  0.46700000000E-02 0.  1.
          1   -1    0    0  501    0  0.00000000000E+00 -0.00000000000E+00 -0.76424486360E+02  0.76424486503E+02  0.46700000000E-02 0. -1.
         23    2    1    2    0    0  0.00000000000E+00  0.00000000000E+00 -0.50063632575E+02  0.10278534070E+03  0.89768919769E+02 0.  0.
        -11    1    3    3    0    0 -0.24522217895E+02 -0.37585066759E+02 -0.24117016345E+02  0.50947098950E+02  0.51100000000E-03 0.  1.
         11    1    3    3    0    0  0.24522217895E+02  0.37585066759E+02 -0.25946616230E+02  0.51838241751E+02  0.51100000000E-03 0. -1.
<mgrwt>
<rscale>  0 0.89768920E+02</rscale>
<asrwt>0</asrwt>
<pdfrwt beam="2">  1        1 0.11757613E-01 0.89768920E+02</pdfrwt>
<pdfrwt beam="1">  1       -1 0.40555161E-02 0.89768920E+02</pdfrwt>
<totfact> 0.10438643E+05</totfact>
</mgrwt>
</event>
<event>
 5   1  0.1357339E+00  0.9053298E+02  0.7818608E-02  0.1301566E+00
         -1   -1    0    0    0  501 -0.00000000000E+00  0.00000000000E+00  0.56257975510E+02  0.56257975704E+02  0.46700000000E-02 0. -1.
          1   -1    0    0  501    0  0.00000000000E+00 -0.00000000000E+00 -0.36422484939E+02  0.36422485238E+02  0.46700000000E-02 0.  1.
         23    2    1    2    0    0  0.00000000000E+00  0.00000000000E+00  0.19835490572E+02  0.92680460942E+02  0.90532983792E+02 0.  0.
        -11    1    3    3    0    0  0.32864773432E+02  0.24709371834E+02  0.29298502593E+02  0.50488103981E+02  0.51100000000E-03 0. -1.
         11    1    3    3    0    0 -0.32864773432E+02 -0.24709371834E+02 -0.94630120212E+01  0.42192356961E+02  0.51100000000E-03 0.  1.
<mgrwt>
<rscale>  0 0.90532984E+02</rscale>
<asrwt>0</asrwt>
<pdfrwt beam="2">  1        1 0.56034592E-02 0.90532984E+02</pdfrwt>
<pdfrwt beam="1">  1       -1 0.86550732E-02 0.90532984E+02</pdfrwt>
<totfact> 0.91187260E+04</totfact>
</mgrwt>
</event>
<event>
 5   1  0.1357339E+00  0.8948397E+02  0.7818608E-02  0.1304106E+00
         -1   -1    0    0    0  501 -0.00000000000E+00  0.00000000000E+00  0.23890450108E+02  0.23890450564E+02  0.46700000000E-02 0.  1.
          1   -1    0    0  501    0  0.00000000000E+00 -0.00000000000E+00 -0.83792696441E+02  0.83792696571E+02  0.46700000000E-02 0. -1.
         23    2    1    2    0    0  0.00000000000E+00  0.00000000000E+00 -0.59902246333E+02  0.10768314713E+03  0.89483970973E+02 0.  0.
        -11    1    3    3    0    0  0.41124037368E+01  0.29320592569E+02 -0.70317925606E+02  0.76296917860E+02  0.51100000000E-03 0. -1.
         11    1    3    3    0    0 -0.41124037368E+01 -0.29320592569E+02  0.10415679273E+02  0.31386229275E+02  0.51100000000E-03 0.  1.
<mgrwt>
<rscale>  0 0.89483971E+02</rscale>
<asrwt>0</asrwt>
<pdfrwt beam="2">  1        1 0.12891184E-01 0.89483971E+02</pdfrwt>
<pdfrwt beam="1">  1       -1 0.36754540E-02 0.89483971E+02</pdfrwt>
<totfact> 0.10682459E+05</totfact>
</mgrwt>
</event>
<event>
 5   1  0.1357339E+00  0.8949154E+02  0.7818608E-02  0.1304088E+00
         -1   -1    0    0    0  501 -0.00000000000E+00  0.00000000000E+00  0.56990398587E+02  0.56990398778E+02  0.46700000000E-02 0.  1.
          1   -1    0    0  501    0  0.00000000000E+00 -0.00000000000E+00 -0.35131954830E+02  0.35131955140E+02  0.46700000000E-02 0. -1.
         23    2    1    2    0    0  0.00000000000E+00  0.00000000000E+00  0.21858443757E+02  0.92122353919E+02  0.89491544450E+02 0.  0.
        -11    1    3    3    0    0  0.29763490112E+02 -0.31384288030E+02 -0.86828431368E+00  0.43261909305E+02  0.51100000000E-03 0. -1.
         11    1    3    3    0    0 -0.29763490112E+02  0.31384288030E+02  0.22726728071E+02  0.48860444614E+02  0.51100000000E-03 0.  1.
<mgrwt>
<rscale>  0 0.89491544E+02</rscale>
<asrwt>0</asrwt>
<pdfrwt beam="2">  1        1 0.54049162E-02 0.89491544E+02</pdfrwt>
<pdfrwt beam="1">  1       -1 0.87677535E-02 0.89491544E+02</pdfrwt>
<totfact> 0.93707388E+04</totfact>
</mgrwt>
</event>
<event>
 5   1  0.1357339E+00  0.1007976E+03  0.7818608E-02  0.1278628E+00
          1   -1    0    0  501    0  0.00000000000E+00  0.00000000000E+00  0.21721245974E+03  0.21721245979E+03  0.46700000000E-02 0. -1.
         -1   -1    0    0    0  501 -0.00000000000E+00 -0.00000000000E+00 -0.11693788633E+02  0.11693789565E+02  0.46700000000E-02 0.  1.
         23    2    1    2    0    0  0.00000000000E+00  0.00000000000E+00  0.20551867111E+03  0.22890624936E+03  0.10079755364E+03 0.  0.
        -11    1    3    3    0    0 -0.47290215761E+02  0.44783108002E+01  0.64514417583E+02  0.80115727861E+02  0.51100000000E-03 0.  1.
         11    1    3    3    0    0  0.47290215761E+02 -0.44783108002E+01  0.14100425353E+03  0.14879052150E+03  0.51100000000E-03 0. -1.
<mgrwt>
<rscale>  0 0.10079755E+03</rscale>
<asrwt>0</asrwt>
<pdfrwt beam="1">  1        1 0.33417301E-01 0.10079755E+03</pdfrwt>
<pdfrwt beam="2">  1       -1 0.17990445E-02 0.10079755E+03</pdfrwt>
<totfact> 0.91830196E+04</totfact>
</mgrwt>
</event>
<event>
 5   1  0.1357339E+00  0.5573064E+02  0.7818608E-02  0.1416675E+00
          1   -1    0    0  501    0  0.00000000000E+00  0.00000000000E+00  0.10821424265E+03  0.10821424275E+03  0.46700000000E-02 0. -1.
         -1   -1    0    0    0  501 -0.00000000000E+00 -0.00000000000E+00 -0.71753582287E+01  0.71753597484E+01  0.46700000000E-02 0.  1.
         23    2    1    2    0    0  0.00000000000E+00  0.00000000000E+00  0.10103888442E+03  0.11538960250E+03  0.55730639685E+02 0.  0.
        -11    1    3    3    0    0  0.58350106088E+01  0.21358737446E+02  0.85548828408E+02  0.88367669746E+02  0.51100000000E-03 0. -1.
         11    1    3    3    0    0 -0.58350106088E+01 -0.21358737446E+02  0.15490056011E+02  0.27021932751E+02  0.51100000000E-03 0.  1.
<mgrwt>
<rscale>  0 0.55730640E+02</rscale>
<asrwt>0</asrwt>
<pdfrwt beam="1">  1        1 0.16648345E-01 0.55730640E+02</pdfrwt>
<pdfrwt beam="2">  1       -1 0.11039014E-02 0.55730640E+02</pdfrwt>
<totfact> 0.38746322E+05</totfact>
</mgrwt>
</event>
<event>
 5   1  0.1357339E+00  0.7497346E+02  0.7818608E-02  0.1343953E+00
         -1   -1    0    0    0  501 -0.00000000000E+00  0.00000000000E+00  0.29470766619E+02  0.29470766989E+02  0.46700000000E-02 0.  1.
          1   -1    0    0  501    0  0.00000000000E+00 -0.00000000000E+00 -0.47683007169E+02  0.47683007397E+02  0.46700000000E-02 0. -1.
         23    2    1    2    0    0  0.00000000000E+00  0.00000000000E+00 -0.18212240550E+02  0.77153774386E+02  0.74973456611E+02 0.  0.
        -11    1    3    3    0    0 -0.22994804736E+02  0.19312799551E+02 -0.32197691720E+02  0.44027680199E+02  0.51100000000E-03 0. -1.
         11    1    3    3    0    0  0.22994804736E+02 -0.19312799551E+02  0.13985451170E+02  0.33126094187E+02  0.51100000000E-03 0.  1.
<mgrwt>
<rscale>  0 0.74973457E+02</rscale>
<asrwt>0</asrwt>
<pdfrwt beam="2">  1        1 0.73358473E-02 0.74973457E+02</pdfrwt>
<pdfrwt beam="1">  1       -1 0.45339641E-02 0.74973457E+02</pdfrwt>
<totfact> 0.15967135E+05</totfact>
</mgrwt>
</event>
<event>
 5   1  0.1357339E+00  0.9092396E+02  0.7818608E-02  0.1300629E+00
         -1   -1    0    0    0  501 -0.00000000000E+00  0.00000000000E+00  0.12288766594E+02  0.12288767481E+02  0.46700000000E-02 0.  1.
          1   -1    0    0  501    0  0.00000000000E+00 -0.00000000000E+00 -0.16818544452E+03  0.16818544458E+03  0.46700000000E-02 0. -1.
         23    2    1    2    0    0  0.00000000000E+00  0.00000000000E+00 -0.15589667792E+03  0.18047421206E+03  0.90923962915E+02 0.  0.
        -11    1    3    3    0    0  0.40903287077E+02  0.16794304159E+02 -0.98922944447E+02  0.10835532513E+03  0.51100000000E-03 0.  1.
         11    1    3    3    0    0 -0.40903287077E+02 -0.16794304159E+02 -0.56973733475E+02  0.72118886931E+02  0.51100000000E-03 0. -1.
<mgrwt>
<rscale>  0 0.90923963E+02</rscale>
<asrwt>0</asrwt>
<pdfrwt beam="2">  1        1 0.25874682E-01 0.90923963E+02</pdfrwt>
<pdfrwt beam="1">  1       -1 0.18905797E-02 0.90923963E+02</pdfrwt>
<totfact> 0.11540326E+05</totfact>
</mgrwt>
</event>
<event>
 5   1  0.1357339E+00  0.9397915E+02  0.7818608E-02  0.1293492E+00
         -1   -1    0    0    0  501 -0.00000000000E+00  0.00000000000E+00  0.20835833744E+02  0.20835834267E+02  0.46700000000E-02 0.  1.
          1   -1    0    0  501    0  0.00000000000E+00 -0.00000000000E+00 -0.10597224893E+03  0.10597224903E+03  0.46700000000E-02 0. -1.
         23    2    1    2    0    0  0.00000000000E+00  0.00000000000E+00 -0.85136415185E+02  0.12680808330E+03  0.93979150875E+02 0.  0.
        -11    1    3    3    0    0  0.99103080425E+01 -0.20611431823E+02 -0.97955755138E+02  0.10059013516E+03  0.51100000000E-03 0. -1.
         11    1    3    3    0    0 -0.99103080425E+01  0.20611431823E+02  0.12819339953E+02  0.26217948135E+02  0.51100000000E-03 0.  1.
<mgrwt>
<rscale>  0 0.93979151E+02</rscale>
<asrwt>0</asrwt>
<pdfrwt beam="2">  1        1 0.16303423E-01 0.93979151E+02</pdfrwt>
<pdfrwt beam="1">  1       -1 0.32055130E-02 0.93979151E+02</pdfrwt>
<totfact> 0.97107510E+04</totfact>
</mgrwt>
</event>
<event>
 5   1  0.1357339E+00  0.9308180E+02  0.7818608E-02  0.1295556E+00
          1   -1    0    0  501    0  0.00000000000E+00  0.00000000000E+00  0.48594101233E+02  0.48594101458E+02  0.46700000000E-02 0. -1.
         -1   -1    0    0    0  501 -0.00000000000E+00 -0.00000000000E+00 -0.44574451395E+02  0.44574451640E+02  0.46700000000E-02 0.  1.
         23    2    1    2    0    0  0.00000000000E+00  0.00000000000E+00  0.40196498382E+01  0.93168553098E+02  0.93081801129E+02 0.  0.
        -11    1    3    3    0    0 -0.92801599119E+01  0.34208434697E+02  0.32199451451E+02  0.47886773189E+02  0.51100000000E-03 0. -1.
         11    1    3    3    0    0  0.92801599119E+01 -0.34208434697E+02 -0.28179801613E+02  0.45281779908E+02  0.51100000000E-03 0.  1.
<mgrwt>
<rscale>  0 0.93081801E+02</rscale>
<asrwt>0</asrwt>
<pdfrwt beam="1">  1        1 0.74760156E-02 0.93081801E+02</pdfrwt>
<pdfrwt beam="2">  1       -1 0.68576079E-02 0.93081801E+02</pdfrwt>
<totfact> 0.88100270E+04</totfact>
</mgrwt>
</event>
<event>
 5   1  0.1357339E+00  0.9020294E+02  0.7818608E-02  0.1302361E+00
         -1   -1    0    0    0  501 -0.00000000000E+00  0.00000000000E+00  0.22272942746E+02  0.22272943236E+02  0.46700000000E-02 0.  1.
          1   -1    0    0  501    0  0.00000000000E+00 -0.00000000000E+00 -0.91327976015E+02  0.91327976134E+02  0.46700000000E-02 0. -1.
         23    2    1    2    0    0  0.00000000000E+00  0.00000000000E+00 -0.69055033269E+02  0.11360091937E+03  0.90202944863E+02 0.  0.
        -11    1    3    3    0    0  0.26436779843E+02 -0.14215843217E+02 -0.76921545883E+02  0.82570683345E+02  0.51100000000E-03 0. -1.
         11    1    3    3    0    0 -0.26436779843E+02  0.14215843217E+02  0.78665126142E+01  0.31030236025E+02  0.51100000000E-03 0.  1.
<mgrwt>
<rscale>  0 0.90202945E+02</rscale>
<asrwt>0</asrwt>
<pdfrwt beam="2">  1        1 0.14050458E-01 0.90202945E+02</pdfrwt>
<pdfrwt beam="1">  1       -1 0.34266067E-02 0.90202945E+02</pdfrwt>
<totfact> 0.10596593E+05</totfact>
</mgrwt>
</event>
<event>
 5   1  0.1357339E+00  0.9100070E+02  0.7818608E-02  0.1300446E+00
          1   -1    0    0  501    0  0.00000000000E+00  0.00000000000E+00  0.28694152916E+03  0.28694152920E+03  0.46700000000E-02 0. -1.
         -1   -1    0    0    0  501 -0.00000000000E+00 -0.00000000000E+00 -0.72149949263E+01  0.72149964376E+01  0.46700000000E-02 0.  1.
         23    2    1    2    0    0  0.00000000000E+00  0.00000000000E+00  0.27972653423E+03  0.29415652563E+03  0.91000701204E+02 0.  0.
        -11    1    3    3    0    0  0.38735729593E+02  0.19952727802E+02  0.18222135644E+03  0.18735845547E+03  0.51100000000E-03 0. -1.
         11    1    3    3    0    0 -0.38735729593E+02 -0.19952727802E+02  0.97505177796E+02  0.10679807017E+03  0.51100000000E-03 0.  1.
<mgrwt>
<rscale>  0 0.91000701E+02</rscale>
<asrwt>0</asrwt>
<pdfrwt beam="1">  1        1 0.44144847E-01 0.91000701E+02</pdfrwt>
<pdfrwt beam="2">  1       -1 0.11099994E-02 0.91000701E+02</pdfrwt>
<totfact> 0.12768993E+05</totfact>
</mgrwt>
</event>
<event>
 5   1  0.1357339E+00  0.8906486E+02  0.7818608E-02  0.1305132E+00
          1   -1    0    0  501    0  0.00000000000E+00  0.00000000000E+00  0.40615739320E+02  0.40615739589E+02  0.46700000000E-02 0. -1.
         -1   -1    0    0    0  501 -0.00000000000E+00 -0.00000000000E+00 -0.48826818699E+02  0.48826818922E+02  0.46700000000E-02 0.  1.
         23    2    1    2    0    0  0.00000000000E+00  0.00000000000E+00 -0.82110793786E+01  0.89442558511E+02  0.89064860908E+02 0.  0.
        -11    1    3    3    0    0 -0.33612137978E+02 -0.18331733957E+02 -0.26946421539E+02  0.46818136692E+02  0.51100000000E-03 0.  1.
         11    1    3    3    0    0  0.33612137978E+02  0.18331733957E+02  0.18735342160E+02  0.42624421819E+02  0.51100000000E-03 0. -1.
<mgrwt>
<rscale>  0 0.89064861E+02</rscale>
<asrwt>0</asrwt>
<pdfrwt beam="1">  1        1 0.62485753E-02 0.89064861E+02</pdfrwt>
<pdfrwt beam="2">  1       -1 0.75118183E-02 0.89064861E+02</pdfrwt>
<totfact> 0.97070694E+04</totfact>
</mgrwt>
</event>
<event>
 5   1  0.1357339E+00  0.8904587E+02  0.7818608E-02  0.1305179E+00
         -1   -1    0    0    0  501 -0.00000000000E+00  0.00000000000E+00  0.23700418903E+02  0.23700419363E+02  0.46700000000E-02 0.  1.
          1   -1    0    0  501    0  0.00000000000E+00 -0.00000000000E+00 -0.83639521751E+02  0.83639521881E+02  0.46700000000E-02 0. -1.
         23    2    1    2    0    0  0.00000000000E+00  0.00000000000E+00 -0.59939102847E+02  0.10733994124E+03  0.89045869844E+02 0.  0.
        -11    1    3    3    0    0  0.36078070911E+02 -0.19882979991E+02 -0.50331650145E+02  0.65040257538E+02  0.51100000000E-03 0. -1.
         11    1    3    3    0    0 -0.36078070911E+02  0.19882979991E+02 -0.96074527022E+01  0.42299683707E+02  0.51100000000E-03 0.  1.
<mgrwt>
<rscale>  0 0.89045870E+02</rscale>
<asrwt>0</asrwt>
<pdfrwt beam="2">  1        1 0.12867619E-01 0.89045870E+02</pdfrwt>
<pdfrwt beam="1">  1       -1 0.36462184E-02 0.89045870E+02</pdfrwt>
<totfact> 0.10823455E+05</totfact>
</mgrwt>
</event>
<event>
 5   1  0.1357339E+00  0.8859447E+02  0.7818608E-02  0.1306292E+00
          1   -1    0    0  501    0  0.00000000000E+00  0.00000000000E+00  0.60611691472E+02  0.60611691652E+02  0.46700000000E-02 0. -1.
         -1   -1    0    0    0  501 -0.00000000000E+00 -0.00000000000E+00 -0.32374034138E+02  0.32374034475E+02  0.46700000000E-02 0.  1.
         23    2    1    2    0    0  0.00000000000E+00  0.00000000000E+00  0.28237657334E+02  0.92985726127E+02  0.88594469193E+02 0.  0.
        -11    1    3    3    0    0  0.14183609786E+01 -0.34124387887E+02 -0.15488591305E+02  0.37501760724E+02  0.51100000000E-03 0.  1.
         11    1    3    3    0    0 -0.14183609786E+01  0.34124387887E+02  0.43726248639E+02  0.55483965403E+02  0.51100000000E-03 0. -1.
<mgrwt>
<rscale>  0 0.88594469E+02</rscale>
<asrwt>0</asrwt>
<pdfrwt beam="1">  1        1 0.93248756E-02 0.88594469E+02</pdfrwt>
<pdfrwt beam="2">  1       -1 0.49806207E-02 0.88594469E+02</pdfrwt>
<totfact> 0.10449822E+05</totfact>
</mgrwt>
</event>
<event>
 5   1  0.1357339E+00  0.9127556E+02  0.7818608E-02  0.1299792E+00
          1   -1    0    0  501    0  0.00000000000E+00  0.00000000000E+00  0.34656138834E+03  0.34656138838E+03  0.46700000000E-02 0. -1.
         -1   -1    0    0    0  501 -0.00000000000E+00 -0.00000000000E+00 -0.60099207975E+01  0.60099226119E+01  0.46700000000E-02 0.  1.
         23    2    1    2    0    0  0.00000000000E+00  0.00000000000E+00  0.34055146755E+03  0.35257131099E+03  0.91275556877E+02 0.  0.
        -11    1    3    3    0    0  0.39731402238E+02  0.19769431475E+02  0.21140811310E+03  0.21601575181E+03  0.51100000000E-03 0. -1.
         11    1    3    3    0    0 -0.39731402238E+02 -0.19769431475E+02  0.12914335444E+03  0.13655555918E+03  0.51100000000E-03 0.  1.
<mgrwt>
<rscale>  0 0.91275557E+02</rscale>
<asrwt>0</asrwt>
<pdfrwt beam="1">  1        1 0.53317137E-01 0.91275557E+02</pdfrwt>
<pdfrwt beam="2">  1       -1 0.92460334E-03 0.91275557E+02</pdfrwt>
<totfact> 0.13122122E+05</totfact>
</mgrwt>
</event>
<event>
 5   1  0.1357339E+00  0.9191978E+02  0.7818608E-02  0.1298268E+00
         -1   -1    0    0    0  501 -0.00000000000E+00  0.00000000000E+00  0.21407583675E+03  0.21407583680E+03  0.46700000000E-02 0.  1.
          1   -1    0    0  501    0  0.00000000000E+00 -0.00000000000E+00 -0.98671175044E+01  0.98671186096E+01  0.46700000000E-02 0. -1.
         23    2    1    2    0    0  0.00000000000E+00  0.00000000000E+00  0.20420871924E+03  0.22394295541E+03  0.91919781669E+02 0.  0.
        -11    1    3    3    0    0 -0.19388967980E+02 -0.37233851623E+02  0.14768440094E+03  0.15353492784E+03  0.51100000000E-03 0.  1.
         11    1    3    3    0    0  0.19388967980E+02  0.37233851623E+02  0.56524318304E+02  0.70408027567E+02  0.51100000000E-03 0. -1.
<mgrwt>
<rscale>  0 0.91919782E+02</rscale>
<asrwt>0</asrwt>
<pdfrwt beam="2">  1        1 0.15180182E-02 0.91919782E+02</pdfrwt>
<pdfrwt beam="1">  1       -1 0.32934743E-01 0.91919782E+02</pdfrwt>
<totfact> 0.66626914E+04</totfact>
</mgrwt>
</event>
<event>
 5   1  0.1357339E+00  0.9346184E+02  0.7818608E-02  0.1294678E+00
         -1   -1    0    0    0  501 -0.00000000000E+00  0.00000000000E+00  0.20678578087E+02  0.20678578615E+02  0.46700000000E-02 0.  1.
          1   -1    0    0  501    0  0.00000000000E+00 -0.00000000000E+00 -0.10560586209E+03  0.10560586219E+03  0.46700000000E-02 0. -1.
         23    2    1    2    0    0  0.00000000000E+00  0.00000000000E+00 -0.84927284000E+02  0.12628444081E+03  0.93461844738E+02 0.  0.
        -11    1    3    3    0    0 -0.37946813290E+02  0.11835294938E+02 -0.75663941698E+02  0.85469684209E+02  0.51100000000E-03 0. -1.
         11    1    3    3    0    0  0.37946813290E+02 -0.11835294938E+02 -0.92633423016E+01  0.40814756596E+02  0.51100000000E-03 0.  1.
<mgrwt>
<rscale>  0 0.93461845E+02</rscale>
<asrwt>0</asrwt>
<pdfrwt beam="2">  1        1 0.16247055E-01 0.93461845E+02</pdfrwt>
<pdfrwt beam="1">  1       -1 0.31813198E-02 0.93461845E+02</pdfrwt>
<totfact> 0.98525504E+04</totfact>
</mgrwt>
</event>
<event>
 5   1  0.1357339E+00  0.9220752E+02  0.7818608E-02  0.1297592E+00
         -1   -1    0    0    0  501 -0.00000000000E+00  0.00000000000E+00  0.11899083167E+03  0.11899083176E+03  0.46700000000E-02 0.  1.
          1   -1    0    0  501    0  0.00000000000E+00 -0.00000000000E+00 -0.17863197985E+02  0.17863198596E+02  0.46700000000E-02 0. -1.
         23    2    1    2    0    0  0.00000000000E+00  0.00000000000E+00  0.10112763369E+03  0.13685403036E+03  0.92207523178E+02 0.  0.
        -11    1    3    3    0    0 -0.12781911827E+02 -0.40815255735E+02  0.76111587123E+02  0.87305418304E+02  0.51100000000E-03 0.  1.
         11    1    3    3    0    0  0.12781911827E+02  0.40815255735E+02  0.25016046565E+02  0.49548612056E+02  0.51100000000E-03 0. -1.
<mgrwt>
<rscale>  0 0.92207523E+02</rscale>
<asrwt>0</asrwt>
<pdfrwt beam="2">  1        1 0.27481845E-02 0.92207523E+02</pdfrwt>
<pdfrwt beam="1">  1       -1 0.18306281E-01 0.92207523E+02</pdfrwt>
<totfact> 0.76410747E+04</totfact>
</mgrwt>
</event>
<event>
 5   1  0.1357339E+00  0.8648291E+02  0.7818608E-02  0.1311599E+00
          1   -1    0    0  501    0  0.00000000000E+00  0.00000000000E+00  0.89545881025E+01  0.89545893202E+01  0.46700000000E-02 0. -1.
         -1   -1    0    0    0  501 -0.00000000000E+00 -0.00000000000E+00 -0.20881175694E+03  0.20881175699E+03  0.46700000000E-02 0.  1.
         23    2    1    2    0    0  0.00000000000E+00  0.00000000000E+00 -0.19985716884E+03  0.21776634631E+03  0.86482909587E+02 0.  0.
        -11    1    3    3    0    0 -0.26327637667E+02 -0.16677797977E+02 -0.17540769152E+03  0.17815485314E+03  0.51100000000E-03 0.  1.
         11    1    3    3    0    0  0.26327637667E+02  0.16677797977E+02 -0.24449477318E+02  0.39611493179E+02  0.51100000000E-03 0. -1.
<mgrwt>
<rscale>  0 0.86482910E+02</rscale>
<asrwt>0</asrwt>
<pdfrwt beam="1">  1        1 0.13776292E-02 0.86482910E+02</pdfrwt>
<pdfrwt beam="2">  1       -1 0.32124882E-01 0.86482910E+02</pdfrwt>
<totfact> 0.78663105E+04</totfact>
</mgrwt>
</event>
<event>
 4   1  0.1357339E+00  0.3006937E+02  0.7818608E-02  0.1597323E+00
         -1   -1    0    0    0  501 -0.00000000000E+00  0.00000000000E+00  0.42292607894E+01  0.42292633677E+01  0.46700000000E-02 0. -1.
          1   -1    0    0  501    0  0.00000000000E+00 -0.00000000000E+00 -0.53447091027E+02  0.53447091231E+02  0.46700000000E-02 0.  1.
        -11    1    1    2    0    0 -0.82833249305E+01 -0.12455334510E+02 -0.21704427741E+02  0.26359647446E+02  0.51100000000E-03 0. -1.
         11    1    1    2    0    0  0.82833249305E+01  0.12455334510E+02 -0.27513402497E+02  0.31316707153E+02  0.51100000000E-03 0.  1.
<mgrwt>
<rscale>  0 0.30069371E+02</rscale>
<asrwt>0</asrwt>
<pdfrwt beam="2">  1        1 0.82226291E-02 0.30069371E+02</pdfrwt>
<pdfrwt beam="1">  1       -1 0.65065576E-03 0.30069371E+02</pdfrwt>
<totfact> 0.16414281E+06</totfact>
</mgrwt>
</event>
<event>
 5   1  0.1357339E+00  0.8878571E+02  0.7818608E-02  0.1305819E+00
         -1   -1    0    0    0  501 -0.00000000000E+00  0.00000000000E+00  0.22233028090E+03  0.22233028095E+03  0.46700000000E-02 0. -1.
          1   -1    0    0  501    0  0.00000000000E+00 -0.00000000000E+00 -0.88639539225E+01  0.88639551527E+01  0.46700000000E-02 0.  1.
         23    2    1    2    0    0  0.00000000000E+00  0.00000000000E+00  0.21346632698E+03  0.23119423611E+03  0.88785708611E+02 0.  0.
        -11    1    3    3    0    0 -0.38918380386E+02 -0.10408278164E+02  0.58174208241E+02  0.70761649861E+02  0.51100000000E-03 0.  1.
         11    1    3    3    0    0  0.38918380386E+02  0.10408278164E+02  0.15529211874E+03  0.16043258624E+03  0.51100000000E-03 0. -1.
<mgrwt>
<rscale>  0 0.88785709E+02</rscale>
<asrwt>0</asrwt>
<pdfrwt beam="2">  1        1 0.13636853E-02 0.88785709E+02</pdfrwt>
<pdfrwt beam="1">  1       -1 0.34204659E-01 0.88785709E+02</pdfrwt>
<totfact> 0.72093598E+04</totfact>
</mgrwt>
</event>
<event>
 5   1  0.1357339E+00  0.9053890E+02  0.7818608E-02  0.1301552E+00
         -1   -1    0    0    0  501 -0.00000000000E+00  0.00000000000E+00  0.28991045486E+02  0.28991045863E+02  0.46700000000E-02 0.  1.
          1   -1    0    0  501    0  0.00000000000E+00 -0.00000000000E+00 -0.70688146558E+02  0.70688146712E+02  0.46700000000E-02 0. -1.
         23    2    1    2    0    0  0.00000000000E+00  0.00000000000E+00 -0.41697101071E+02  0.99679192575E+02  0.90538904315E+02 0.  0.
        -11    1    3    3    0    0  0.53689030642E+01  0.21842368299E+02 -0.64100910513E+02  0.67932620307E+02  0.51100000000E-03 0. -1.
         11    1    3    3    0    0 -0.53689030642E+01 -0.21842368299E+02  0.22403809441E+02  0.31746572267E+02  0.51100000000E-03 0.  1.
<mgrwt>
<rscale>  0 0.90538904E+02</rscale>
<asrwt>0</asrwt>
<pdfrwt beam="2">  1        1 0.10875099E-01 0.90538904E+02</pdfrwt>
<pdfrwt beam="1">  1       -1 0.44601609E-02 0.90538904E+02</pdfrwt>
<totfact> 0.10074553E+05</totfact>
</mgrwt>
</event>
<event>
 5   1  0.1357339E+00  0.9122805E+02  0.7818608E-02  0.1299905E+00
          1   -1    0    0  501    0  0.00000000000E+00  0.00000000000E+00  0.88216818713E+02  0.88216818837E+02  0.46700000000E-02 0. -1.
         -1   -1    0    0    0  501 -0.00000000000E+00 -0.00000000000E+00 -0.23585516865E+02  0.23585517327E+02  0.46700000000E-02 0.  1.
         23    2    1    2    0    0  0.00000000000E+00  0.00000000000E+00  0.64631301848E+02  0.11180233616E+03  0.91228050473E+02 0.  0.
        -11    1    3    3    0    0 -0.26193214094E+02  0.35987515182E+02  0.44537381467E+02  0.62966372468E+02  0.51100000000E-03 0. -1.
         11    1    3    3    0    0  0.26193214094E+02 -0.35987515182E+02  0.20093920382E+02  0.48835963696E+02  0.51100000000E-03 0.  1.
<mgrwt>
<rscale>  0 0.91228050E+02</rscale>
<asrwt>0</asrwt>
<pdfrwt beam="1">  1        1 0.13571818E-01 0.91228050E+02</pdfrwt>
<pdfrwt beam="2">  1       -1 0.36285411E-02 0.91228050E+02</pdfrwt>
<totfact> 0.10217126E+05</totfact>
</mgrwt>
</event>
<event>
 5   1  0.1357339E+00  0.9019857E+02  0.7818608E-02  0.1302372E+00
          1   -1    0    0  501    0  0.00000000000E+00  0.00000000000E+00  0.30484118199E+02  0.30484118557E+02  0.46700000000E-02 0. -1.
         -1   -1    0    0    0  501 -0.00000000000E+00 -0.00000000000E+00 -0.66721475551E+02  0.66721475714E+02  0.46700000000E-02 0.  1.
         23    2    1    2    0    0  0.00000000000E+00  0.00000000000E+00 -0.36237357352E+02  0.97205594271E+02  0.90198567004E+02 0.  0.
        -11    1    3    3    0    0  0.12550448348E+02  0.39851444667E+02  0.17956496664E+00  0.41781379101E+02  0.51100000000E-03 0.  1.
         11    1    3    3    0    0 -0.12550448348E+02 -0.39851444667E+02 -0.36416922318E+02  0.55424215169E+02  0.51100000000E-03 0. -1.
<mgrwt>
<rscale>  0 0.90198567E+02</rscale>
<asrwt>0</asrwt>
<pdfrwt beam="1">  1        1 0.46898644E-02 0.90198567E+02</pdfrwt>
<pdfrwt beam="2">  1       -1 0.10264842E-01 0.90198567E+02</pdfrwt>
<totfact> 0.89634343E+04</totfact>
</mgrwt>
</event>
<event>
 5   1  0.1357339E+00  0.9162530E+02  0.7818608E-02  0.1298963E+00
          1   -1    0    0  501    0  0.00000000000E+00  0.00000000000E+00  0.18827577070E+03  0.18827577076E+03  0.46700000000E-02 0. -1.
         -1   -1    0    0    0  501 -0.00000000000E+00 -0.00000000000E+00 -0.11147470928E+02  0.11147471907E+02  0.46700000000E-02 0.  1.
         23    2    1    2    0    0  0.00000000000E+00  0.00000000000E+00  0.17712829978E+03  0.19942324267E+03  0.91625297463E+02 0.  0.
        -11    1    3    3    0    0 -0.19984150799E+02  0.29269160163E+02  0.15174848768E+03  0.15583213254E+03  0.51100000000E-03 0. -1.
         11    1    3    3    0    0  0.19984150799E+02 -0.29269160163E+02  0.25379812100E+02  0.43591110129E+02  0.51100000000E-03 0.  1.
<mgrwt>
<rscale>  0 0.91625297E+02</rscale>
<asrwt>0</asrwt>
<pdfrwt beam="1">  1        1 0.28965505E-01 0.91625297E+02</pdfrwt>
<pdfrwt beam="2">  1       -1 0.17149955E-02 0.91625297E+02</pdfrwt>
<totfact> 0.11549831E+05</totfact>
</mgrwt>
</event>
<event>
 5   1  0.1357339E+00  0.9154900E+02  0.7818608E-02  0.1299143E+00
          1   -1    0    0  501    0  0.00000000000E+00  0.00000000000E+00  0.30146625447E+03  0.30146625451E+03  0.46700000000E-02 0. -1.
         -1   -1    0    0    0  501 -0.00000000000E+00 -0.00000000000E+00 -0.69503789814E+01  0.69503805503E+01  0.46700000000E-02 0.  1.
         23    2    1    2    0    0  0.00000000000E+00  0.00000000000E+00  0.29451587549E+03  0.30841663506E+03  0.91549002533E+02 0.  0.
        -11    1    3    3    0    0 -0.23832439921E+02 -0.38458870787E+02  0.12386065306E+03  0.13186558047E+03  0.51100000000E-03 0. -1.
         11    1    3    3    0    0  0.23832439921E+02  0.38458870787E+02  0.17065522243E+03  0.17655105459E+03  0.51100000000E-03 0.  1.
<mgrwt>
<rscale>  0 0.91549003E+02</rscale>
<asrwt>0</asrwt>
<pdfrwt beam="1">  1        1 0.46379420E-01 0.91549003E+02</pdfrwt>
<pdfrwt beam="2">  1       -1 0.10692893E-02 0.91549003E+02</pdfrwt>
<totfact> 0.12685548E+05</totfact>
</mgrwt>
</event>
<event>
 5   1  0.1357339E+00  0.8916311E+02  0.7818608E-02  0.1304891E+00
         -1   -1    0    0    0  501 -0.00000000000E+00  0.00000000000E+00  0.38930035458E+02  0.38930035738E+02  0.46700000000E-02 0.  1.
          1   -1    0    0  501    0  0.00000000000E+00 -0.00000000000E+00 -0.51053514883E+02  0.51053515096E+02  0.46700000000E-02 0. -1.
         23    2    1    2    0    0  0.00000000000E+00  0.00000000000E+00 -0.12123479425E+02  0.89983550834E+02  0.89163112706E+02 0.  0.
        -11    1    3    3    0    0  0.36293384261E+02 -0.10869282722E+02  0.17652652375E+02  0.41796736525E+02  0.51100000000E-03 0.  1.
         11    1    3    3    0    0 -0.36293384261E+02  0.10869282722E+02 -0.29776131800E+02  0.48186814309E+02  0.51100000000E-03 0. -1.
<mgrwt>
<rscale>  0 0.89163113E+02</rscale>
<asrwt>0</asrwt>
<pdfrwt beam="2">  1        1 0.78543870E-02 0.89163113E+02</pdfrwt>
<pdfrwt beam="1">  1       -1 0.59892362E-02 0.89163113E+02</pdfrwt>
<totfact> 0.10009433E+05</totfact>
</mgrwt>
</event>
<event>
 5   1  0.1357339E+00  0.8489687E+02  0.7818608E-02  0.1315702E+00
          1   -1    0    0  501    0  0.00000000000E+00  0.00000000000E+00  0.19517545725E+03  0.19517545731E+03  0.46700000000E-02 0. -1.
         -1   -1    0    0    0  501 -0.00000000000E+00 -0.00000000000E+00 -0.92320496490E+01  0.92320508301E+01  0.46700000000E-02 0.  1.
         23    2    1    2    0    0  0.00000000000E+00  0.00000000000E+00  0.18594340760E+03  0.20440750814E+03  0.84896870096E+02 0.  0.
        -11    1    3    3    0    0 -0.42444298707E+02 -0.19113445737E+00  0.91621207993E+02  0.10097524835E+03  0.51100000000E-03 0.  1.
         11    1    3    3    0    0  0.42444298707E+02  0.19113445737E+00  0.94322199608E+02  0.10343225979E+03  0.51100000000E-03 0. -1.
<mgrwt>
<rscale>  0 0.84896870E+02</rscale>
<asrwt>0</asrwt>
<pdfrwt beam="1">  1        1 0.30026994E-01 0.84896870E+02</pdfrwt>
<pdfrwt beam="2">  1       -1 0.14203154E-02 0.84896870E+02</pdfrwt>
<totfact> 0.14259333E+05</totfact>
</mgrwt>
</event>
<event>
 5   1  0.1357339E+00  0.7447482E+02  0.7818608E-02  0.1345505E+00
         -1   -1    0    0    0  501 -0.00000000000E+00  0.00000000000E+00  0.12710535508E+02  0.12710536366E+02  0.46700000000E-02 0.  1.
          1   -1    0    0  501    0  0.00000000000E+00 -0.00000000000E+00 -0.10909253042E+03  0.10909253052E+03  0.46700000000E-02 0. -1.
         23    2    1    2    0    0  0.00000000000E+00  0.00000000000E+00 -0.96381994914E+02  0.12180306689E+03  0.74474815607E+02 0.  0.
        -11    1    3    3    0    0  0.30720911676E+02  0.20981815595E+02 -0.50835009005E+02  0.62993723026E+02  0.51100000000E-03 0. -1.
         11    1    3    3    0    0 -0.30720911676E+02 -0.20981815595E+02 -0.45546985909E+02  0.58809343862E+02  0.51100000000E-03 0.  1.
<mgrwt>
<rscale>  0 0.74474816E+02</rscale>
<asrwt>0</asrwt>
<pdfrwt beam="2">  1        1 0.16783466E-01 0.74474816E+02</pdfrwt>
<pdfrwt beam="1">  1       -1 0.19554671E-02 0.74474816E+02</pdfrwt>
<totfact> 0.18243448E+05</totfact>
</mgrwt>
</event>
<event>
 5   1  0.1357339E+00  0.9282204E+02  0.7818608E-02  0.1296158E+00
          1   -1    0    0  501    0  0.00000000000E+00  0.00000000000E+00  0.11354638041E+02  0.11354639001E+02  0.46700000000E-02 0. -1.
         -1   -1    0    0    0  501 -0.00000000000E+00 -0.00000000000E+00 -0.18970070276E+03  0.18970070282E+03  0.46700000000E-02 0.  1.
         23    2    1    2    0    0  0.00000000000E+00  0.00000000000E+00 -0.17834606472E+03  0.20105534182E+03  0.92822043033E+02 0.  0.
        -11    1    3    3    0    0  0.23096770033E+02  0.35191851155E+02 -0.46835273976E+02  0.62971978390E+02  0.51100000000E-03 0.  1.
         11    1    3    3    0    0 -0.23096770033E+02 -0.35191851155E+02 -0.13151079074E+03  0.13808336343E+03  0.51100000000E-03 0. -1.
<mgrwt>
<rscale>  0 0.92822043E+02</rscale>
<asrwt>0</asrwt>
<pdfrwt beam="1">  1        1 0.17468676E-02 0.92822043E+02</pdfrwt>
<pdfrwt beam="2">  1       -1 0.29184721E-01 0.92822043E+02</pdfrwt>
<totfact> 0.67252485E+04</totfact>
</mgrwt>
</event>
<event>
 5   1  0.1357339E+00  0.8977409E+02  0.7818608E-02  0.1303400E+00
          1   -1    0    0  501    0  0.00000000000E+00  0.00000000000E+00  0.66828134488E+01  0.66828150805E+01  0.46700000000E-02 0. -1.
         -1   -1    0    0    0  501 -0.00000000000E+00 -0.00000000000E+00 -0.30149672251E+03  0.30149672254E+03  0.46700000000E-02 0.  1.
         23    2    1    2    0    0  0.00000000000E+00  0.00000000000E+00 -0.29481390906E+03  0.30817953762E+03  0.89774085546E+02 0.  0.
        -11    1    3    3    0    0 -0.40997149522E+02 -0.18250280685E+02 -0.15085279944E+03  0.15738616875E+03  0.51100000000E-03 0.  1.
         11    1    3    3    0    0  0.40997149522E+02  0.18250280685E+02 -0.14396110961E+03  0.15079336887E+03  0.51100000000E-03 0. -1.
<mgrwt>
<rscale>  0 0.89774086E+02</rscale>
<asrwt>0</asrwt>
<pdfrwt beam="1">  1        1 0.10281255E-02 0.89774086E+02</pdfrwt>
<pdfrwt beam="2">  1       -1 0.46384101E-01 0.89774086E+02</pdfrwt>
<totfact> 0.62967124E+04</totfact>
</mgrwt>
</event>
<event>
 5   1  0.1357339E+00  0.9070736E+02  0.7818608E-02  0.1301148E+00
         -1   -1    0    0    0  501 -0.00000000000E+00  0.00000000000E+00  0.64418773149E+01  0.64418790076E+01  0.46700000000E-02 0.  1.
          1   -1    0    0  501    0  0.00000000000E+00 -0.00000000000E+00 -0.31931003022E+03  0.31931003026E+03  0.46700000000E-02 0. -1.
         23    2    1    2    0    0  0.00000000000E+00  0.00000000000E+00 -0.31286815291E+03  0.32575190927E+03  0.90707360702E+02 0.  0.
        -11    1    3    3    0    0  0.57457308441E+00 -0.43288452966E+02 -0.10788773255E+03  0.11624965862E+03  0.51100000000E-03 0.  1.
         11    1    3    3    0    0 -0.57457308441E+00  0.43288452966E+02 -0.20498042036E+03  0.20950225064E+03  0.51100000000E-03 0. -1.
<mgrwt>
<rscale>  0 0.90707361E+02</rscale>
<asrwt>0</asrwt>
<pdfrwt beam="2">  1        1 0.49124608E-01 0.90707361E+02</pdfrwt>
<pdfrwt beam="1">  1       -1 0.99105843E-03 0.90707361E+02</pdfrwt>
<totfact> 0.13143233E+05</totfact>
</mgrwt>
</event>
<event>
 5   1  0.1357339E+00  0.1005491E+03  0.7818608E-02  0.1279145E+00
          1   -1    0    0  501    0  0.00000000000E+00  0.00000000000E+00  0.21915931947E+03  0.21915931952E+03  0.46700000000E-02 0. -1.
         -1   -1    0    0    0  501 -0.00000000000E+00 -0.00000000000E+00 -0.11532849934E+02  0.11532850879E+02  0.46700000000E-02 0.  1.
         23    2    1    2    0    0  0.00000000000E+00  0.00000000000E+00  0.20762646954E+03  0.23069217040E+03  0.10054912546E+03 0.  0.
        -11    1    3    3    0    0  0.17814631368E+02 -0.44724385743E+02  0.70573261991E+02  0.85429603061E+02  0.51100000000E-03 0.  1.
         11    1    3    3    0    0 -0.17814631368E+02  0.44724385743E+02  0.13705320755E+03  0.14526256734E+03  0.51100000000E-03 0. -1.
<mgrwt>
<rscale>  0 0.10054913E+03</rscale>
<asrwt>0</asrwt>
<pdfrwt beam="1">  1        1 0.33716815E-01 0.10054913E+03</pdfrwt>
<pdfrwt beam="2">  1       -1 0.17742849E-02 0.10054913E+03</pdfrwt>
<totfact> 0.92610916E+04</totfact>
</mgrwt>
</event>
<event>
 5   1  0.1357339E+00  0.6675170E+02  0.7818608E-02  0.1371501E+00
         -1   -1    0    0    0  501 -0.00000000000E+00  0.00000000000E+00  0.32000168153E+02  0.32000168494E+02  0.46700000000E-02 0.  1.
          1   -1    0    0  501    0  0.00000000000E+00 -0.00000000000E+00 -0.34810667273E+02  0.34810667586E+02  0.46700000000E-02 0. -1.
         23    2    1    2    0    0  0.00000000000E+00  0.00000000000E+00 -0.28104991197E+01  0.66810836080E+02  0.66751695951E+02 0.  0.
        -11    1    3    3    0    0 -0.17614672478E+02 -0.12826617931E+02  0.23898533765E+02  0.32340976028E+02  0.51100000000E-03 0.  1.
         11    1    3    3    0    0  0.17614672478E+02  0.12826617931E+02 -0.26709032885E+02  0.34469860052E+02  0.51100000000E-03 0. -1.
<mgrwt>
<rscale>  0 0.66751696E+02</rscale>
<asrwt>0</asrwt>
<pdfrwt beam="2">  1        1 0.53554873E-02 0.66751696E+02</pdfrwt>
<pdfrwt beam="1">  1       -1 0.49231028E-02 0.66751696E+02</pdfrwt>
<totfact> 0.21040399E+05</totfact>
</mgrwt>
</event>
<event>
 5   1  0.1357339E+00  0.9093928E+02  0.7818608E-02  0.1300593E+00
         -1   -1    0    0    0  501 -0.00000000000E+00  0.00000000000E+00  0.44168166632E+02  0.44168166879E+02  0.46700000000E-02 0.  1.
          1   -1    0    0  501    0  0.00000000000E+00 -0.00000000000E+00 -0.46809460758E+02  0.46809460991E+02  0.46700000000E-02 0. -1.
         23    2    1    2    0    0  0.00000000000E+00  0.00000000000E+00 -0.26412941258E+01  0.90977627870E+02  0.90939278302E+02 0.  0.
        -11    1    3    3    0    0  0.95410342349E+01  0.27866443386E+02 -0.35975088623E+02  0.46494913732E+02  0.51100000000E-03 0. -1.
         11    1    3    3    0    0 -0.95410342349E+01 -0.27866443386E+02  0.33333794497E+02  0.44482714138E+02  0.51100000000E-03 0.  1.
<mgrwt>
<rscale>  0 0.90939278E+02</rscale>
<asrwt>0</asrwt>
<pdfrwt beam="2">  1        1 0.72014556E-02 0.90939278E+02</pdfrwt>
<pdfrwt beam="1">  1       -1 0.67951026E-02 0.90939278E+02</pdfrwt>
<totfact> 0.93521881E+04</totfact>
</mgrwt>
</event>
<event>
 5   1  0.1357339E+00  0.9306949E+02  0.7818608E-02  0.1295584E+00
          1   -1    0    0  501    0  0.00000000000E+00  0.00000000000E+00  0.30666060595E+03  0.30666060598E+03  0.46700000000E-02 0. -1.
         -1   -1    0    0    0  501 -0.00000000000E+00 -0.00000000000E+00 -0.70614954065E+01  0.70614969507E+01  0.46700000000E-02 0.  1.
         23    2    1    2    0    0  0.00000000000E+00  0.00000000000E+00  0.29959911054E+03  0.31372210293E+03  0.93069494638E+02 0.  0.
        -11    1    3    3    0    0 -0.39175969636E+02  0.18985696571E+01  0.65385722012E+02  0.76247319998E+02  0.51100000000E-03 0.  1.
         11    1    3    3    0    0  0.39175969636E+02 -0.18985696571E+01  0.23421338853E+03  0.23747478293E+03  0.51100000000E-03 0. -1.
<mgrwt>
<rscale>  0 0.93069495E+02</rscale>
<asrwt>0</asrwt>
<pdfrwt beam="1">  1        1 0.47178551E-01 0.93069495E+02</pdfrwt>
<pdfrwt beam="2">  1       -1 0.10863841E-02 0.93069495E+02</pdfrwt>
<totfact> 0.12179453E+05</totfact>
</mgrwt>
</event>
<event>
 5   1  0.1357339E+00  0.8908754E+02  0.7818608E-02  0.1305077E+00
         -1   -1    0    0    0  501 -0.00000000000E+00  0.00000000000E+00  0.21091986774E+02  0.21091987291E+02  0.46700000000E-02 0.  1.
          1   -1    0    0  501    0  0.00000000000E+00 -0.00000000000E+00 -0.94071139772E+02  0.94071139887E+02  0.46700000000E-02 0. -1.
         23    2    1    2    0    0  0.00000000000E+00  0.00000000000E+00 -0.72979152998E+02  0.11516312718E+03  0.89087536105E+02 0.  0.
        -11    1    3    3    0    0  0.98291858015E+01 -0.37819873145E+02 -0.64130058387E+02  0.75097403998E+02  0.51100000000E-03 0.  1.
         11    1    3    3    0    0 -0.98291858015E+01  0.37819873145E+02 -0.88490946102E+01  0.40065723180E+02  0.51100000000E-03 0. -1.
<mgrwt>
<rscale>  0 0.89087536E+02</rscale>
<asrwt>0</asrwt>
<pdfrwt beam="2">  1        1 0.14472483E-01 0.89087536E+02</pdfrwt>
<pdfrwt beam="1">  1       -1 0.32449212E-02 0.89087536E+02</pdfrwt>
<totfact> 0.11014500E+05</totfact>
</mgrwt>
</event>
<event>
 5   1  0.1357339E+00  0.9159163E+02  0.7818608E-02  0.1299042E+00
         -1   -1    0    0    0  501 -0.00000000000E+00  0.00000000000E+00  0.11865642625E+02  0.11865643544E+02  0.46700000000E-02 0.  1.
          1   -1    0    0  501    0  0.00000000000E+00 -0.00000000000E+00 -0.17675037639E+03  0.17675037645E+03  0.46700000000E-02 0. -1.
         23    2    1    2    0    0  0.00000000000E+00  0.00000000000E+00 -0.16488473377E+03  0.18861602000E+03  0.91591634829E+02 0.  0.
        -11    1    3    3    0    0  0.37485529260E+02  0.20434218375E+02 -0.48321394870E+02  0.64480069688E+02  0.51100000000E-03 0.  1.
         11    1    3    3    0    0 -0.37485529260E+02 -0.20434218375E+02 -0.11656333889E+03  0.12413595031E+03  0.51100000000E-03 0. -1.
<mgrwt>
<rscale>  0 0.91591635E+02</rscale>
<asrwt>0</asrwt>
<pdfrwt beam="2">  1        1 0.27192364E-01 0.91591635E+02</pdfrwt>
<pdfrwt beam="1">  1       -1 0.18254837E-02 0.91591635E+02</pdfrwt>
<totfact> 0.11421943E+05</totfact>
</mgrwt>
</event>
<event>
 5   1  0.1357339E+00  0.9102461E+02  0.7818608E-02  0.1300389E+00
          1   -1    0    0  501    0  0.00000000000E+00  0.00000000000E+00  0.18550704120E+03  0.18550704126E+03  0.46700000000E-02 0. -1.
         -1   -1    0    0    0  501 -0.00000000000E+00 -0.00000000000E+00 -0.11165991269E+02  0.11165992245E+02  0.46700000000E-02 0.  1.
         23    2    1    2    0    0  0.00000000000E+00  0.00000000000E+00  0.17434104994E+03  0.19667303351E+03  0.91024614344E+02 0.  0.
        -11    1    3    3    0    0 -0.34811793824E+02 -0.23700730734E+02  0.49885280365E+02  0.65284966294E+02  0.51100000000E-03 0.  1.
         11    1    3    3    0    0  0.34811793824E+02  0.23700730734E+02  0.12445576957E+03  0.13138806721E+03  0.51100000000E-03 0. -1.
<mgrwt>
<rscale>  0 0.91024614E+02</rscale>
<asrwt>0</asrwt>
<pdfrwt beam="1">  1        1 0.28539543E-01 0.91024614E+02</pdfrwt>
<pdfrwt beam="2">  1       -1 0.17178450E-02 0.91024614E+02</pdfrwt>
<totfact> 0.11722369E+05</totfact>
</mgrwt>
</event>
<event>
 5   1  0.1357339E+00  0.9030982E+02  0.7818608E-02  0.1302103E+00
          1   -1    0    0  501    0  0.00000000000E+00  0.00000000000E+00  0.34444085236E+03  0.34444085240E+03  0.46700000000E-02 0. -1.
         -1   -1    0    0    0  501 -0.00000000000E+00 -0.00000000000E+00 -0.59196386108E+01  0.59196404529E+01  0.46700000000E-02 0.  1.
         23    2    1    2    0    0  0.00000000000E+00  0.00000000000E+00  0.33852121375E+03  0.35036049285E+03  0.90309815569E+02 0.  0.
        -11    1    3    3    0    0 -0.43265562113E+02 -0.11665826566E+02  0.14767233016E+03  0.15432147443E+03  0.51100000000E-03 0.  1.
         11    1    3    3    0    0  0.43265562113E+02  0.11665826566E+02  0.19084888359E+03  0.19603901842E+03  0.51100000000E-03 0. -1.
<mgrwt>
<rscale>  0 0.90309816E+02</rscale>
<asrwt>0</asrwt>
<pdfrwt beam="1">  1        1 0.52990913E-01 0.90309816E+02</pdfrwt>
<pdfrwt beam="2">  1       -1 0.91071357E-03 0.90309816E+02</pdfrwt>
<totfact> 0.13483485E+05</totfact>
</mgrwt>
</event>
<event>
 5   1  0.1357339E+00  0.8432158E+02  0.7818608E-02  0.1317216E+00
         -1   -1    0    0    0  501 -0.00000000000E+00  0.00000000000E+00  0.78199708699E+01  0.78199722643E+01  0.46700000000E-02 0.  1.
          1   -1    0    0  501    0  0.00000000000E+00 -0.00000000000E+00 -0.22730673920E+03  0.22730673925E+03  0.46700000000E-02 0. -1.
         23    2    1    2    0    0  0.00000000000E+00  0.00000000000E+00 -0.21948676833E+03  0.23512671152E+03  0.84321580836E+02 0.  0.
        -11    1    3    3    0    0 -0.64862536138E+00  0.31799983348E+02 -0.18691213923E+03  0.18959907027E+03  0.51100000000E-03 0. -1.
         11    1    3    3    0    0  0.64862536138E+00 -0.31799983348E+02 -0.32574629103E+02  0.45527641245E+02  0.51100000000E-03 0.  1.
<mgrwt>
<rscale>  0 0.84321581E+02</rscale>
<asrwt>0</asrwt>
<pdfrwt beam="2">  1        1 0.34970263E-01 0.84321581E+02</pdfrwt>
<pdfrwt beam="1">  1       -1 0.12030727E-02 0.84321581E+02</pdfrwt>
<totfact> 0.14948533E+05</totfact>
</mgrwt>
</event>
<event>
 5   1  0.1357339E+00  0.9877381E+02  0.7818608E-02  0.1282896E+00
          1   -1    0    0  501    0  0.00000000000E+00  0.00000000000E+00  0.13782559342E+02  0.13782560133E+02  0.46700000000E-02 0. -1.
         -1   -1    0    0    0  501 -0.00000000000E+00 -0.00000000000E+00 -0.17696757384E+03  0.17696757390E+03  0.46700000000E-02 0.  1.
         23    2    1    2    0    0  0.00000000000E+00  0.00000000000E+00 -0.16318501450E+03  0.19075013403E+03  0.98773805623E+02 0.  0.
        -11    1    3    3    0    0  0.41603435160E+02  0.10697221226E+02 -0.34533860396E+02  0.55116820238E+02  0.51100000000E-03 0. -1.
         11    1    3    3    0    0 -0.41603435160E+02 -0.10697221226E+02 -0.12865115410E+03  0.13563331380E+03  0.51100000000E-03 0.  1.
<mgrwt>
<rscale>  0 0.98773806E+02</rscale>
<asrwt>0</asrwt>
<pdfrwt beam="1">  1        1 0.21203939E-02 0.98773806E+02</pdfrwt>
<pdfrwt beam="2">  1       -1 0.27225779E-01 0.98773806E+02</pdfrwt>
<totfact> 0.58263549E+04</totfact>
</mgrwt>
</event>
<event>
 5   1  0.1357339E+00  0.9220837E+02  0.7818608E-02  0.1297590E+00
          1   -1    0    0  501    0  0.00000000000E+00  0.00000000000E+00  0.33705308737E+02  0.33705309061E+02  0.46700000000E-02 0. -1.
         -1   -1    0    0    0  501 -0.00000000000E+00 -0.00000000000E+00 -0.63064128704E+02  0.63064128877E+02  0.46700000000E-02 0.  1.
         23    2    1    2    0    0  0.00000000000E+00  0.00000000000E+00 -0.29358819966E+02  0.96769437938E+02  0.92208371686E+02 0.  0.
        -11    1    3    3    0    0  0.77334154021E+00 -0.25368557533E+02  0.25713863180E+02  0.36129828789E+02  0.51100000000E-03 0. -1.
         11    1    3    3    0    0 -0.77334154021E+00  0.25368557533E+02 -0.55072683146E+02  0.60639609148E+02  0.51100000000E-03 0.  1.
<mgrwt>
<rscale>  0 0.92208372E+02</rscale>
<asrwt>0</asrwt>
<pdfrwt beam="1">  1        1 0.51854321E-02 0.92208372E+02</pdfrwt>
<pdfrwt beam="2">  1       -1 0.97021737E-02 0.92208372E+02</pdfrwt>
<totfact> 0.85510085E+04</totfact>
</mgrwt>
</event>
<event>
 5   1  0.1357339E+00  0.9247178E+02  0.7818608E-02  0.1296974E+00
         -1   -1    0    0    0  501 -0.00000000000E+00  0.00000000000E+00  0.72534987541E+01  0.72535002574E+01  0.46700000000E-02 0.  1.
          1   -1    0    0  501    0  0.00000000000E+00 -0.00000000000E+00 -0.29472087584E+03  0.29472087588E+03  0.46700000000E-02 0. -1.
         23    2    1    2    0    0  0.00000000000E+00  0.00000000000E+00 -0.28746737709E+03  0.30197437613E+03  0.92471784632E+02 0.  0.
        -11    1    3    3    0    0  0.15414626262E+02  0.43408671379E+02 -0.15672820348E+03  0.16335744005E+03  0.51100000000E-03 0.  1.
         11    1    3    3    0    0 -0.15414626262E+02 -0.43408671379E+02 -0.13073917361E+03  0.13861693609E+03  0.51100000000E-03 0. -1.
<mgrwt>
<rscale>  0 0.92471785E+02</rscale>
<asrwt>0</asrwt>
<pdfrwt beam="2">  1        1 0.45341664E-01 0.92471785E+02</pdfrwt>
<pdfrwt beam="1">  1       -1 0.11159232E-02 0.92471785E+02</pdfrwt>
<totfact> 0.12297146E+05</totfact>
</mgrwt>
</event>
<event>
 5   1  0.1357339E+00  0.9219427E+02  0.7818608E-02  0.1297623E+00
          1   -1    0    0  501    0  0.00000000000E+00  0.00000000000E+00  0.17547198113E+02  0.17547198734E+02  0.46700000000E-02 0. -1.
         -1   -1    0    0    0  501 -0.00000000000E+00 -0.00000000000E+00 -0.12109887597E+03  0.12109887606E+03  0.46700000000E-02 0.  1.
         23    2    1    2    0    0  0.00000000000E+00  0.00000000000E+00 -0.10355167786E+03  0.13864607479E+03  0.92194273514E+02 0.  0.
        -11    1    3    3    0    0  0.40196294095E+01  0.39730098480E+02 -0.86407049173E+02  0.95188320149E+02  0.51100000000E-03 0.  1.
         11    1    3    3    0    0 -0.40196294095E+01 -0.39730098480E+02 -0.17144628684E+02  0.43457754645E+02  0.51100000000E-03 0. -1.
<mgrwt>
<rscale>  0 0.92194274E+02</rscale>
<asrwt>0</asrwt>
<pdfrwt beam="1">  1        1 0.26995691E-02 0.92194274E+02</pdfrwt>
<pdfrwt beam="2">  1       -1 0.18630596E-01 0.92194274E+02</pdfrwt>
<totfact> 0.76164342E+04</totfact>
</mgrwt>
</event>
<event>
 5   1  0.1357339E+00  0.9097078E+02  0.7818608E-02  0.1300518E+00
         -1   -1    0    0    0  501 -0.00000000000E+00  0.00000000000E+00  0.87978668566E+02  0.87978668690E+02  0.46700000000E-02 0.  1.
          1   -1    0    0  501    0  0.00000000000E+00 -0.00000000000E+00 -0.23516164596E+02  0.23516165060E+02  0.46700000000E-02 0. -1.
         23    2    1    2    0    0  0.00000000000E+00  0.00000000000E+00  0.64462503970E+02  0.11149483375E+03  0.90970783964E+02 0.  0.
        -11    1    3    3    0    0  0.11570138362E+02 -0.17928252876E+02 -0.17001584531E+02  0.27282672702E+02  0.51100000000E-03 0. -1.
         11    1    3    3    0    0 -0.11570138362E+02  0.17928252876E+02  0.81464088501E+02  0.84212161049E+02  0.51100000000E-03 0.  1.
<mgrwt>
<rscale>  0 0.90970784E+02</rscale>
<asrwt>0</asrwt>
<pdfrwt beam="2">  1        1 0.36178715E-02 0.90970784E+02</pdfrwt>
<pdfrwt beam="1">  1       -1 0.13535180E-01 0.90970784E+02</pdfrwt>
<totfact> 0.83760563E+04</totfact>
</mgrwt>
</event>
<event>
 5   1  0.1357339E+00  0.9122687E+02  0.7818608E-02  0.1299908E+00
         -1   -1    0    0    0  501 -0.00000000000E+00  0.00000000000E+00  0.78015150494E+02  0.78015150633E+02  0.46700000000E-02 0.  1.
          1   -1    0    0  501    0  0.00000000000E+00 -0.00000000000E+00 -0.26668989446E+02  0.26668989855E+02  0.46700000000E-02 0. -1.
         23    2    1    2    0    0  0.00000000000E+00  0.00000000000E+00  0.51346161048E+02  0.10468414049E+03  0.91226865645E+02 0.  0.
        -11    1    3    3    0    0  0.32120544223E+02 -0.20888886942E+02  0.54072851261E+02  0.66271775309E+02  0.51100000000E-03 0.  1.
         11    1    3    3    0    0 -0.32120544223E+02  0.20888886942E+02 -0.27266902131E+01  0.38412365179E+02  0.51100000000E-03 0. -1.
<mgrwt>
<rscale>  0 0.91226866E+02</rscale>
<asrwt>0</asrwt>
<pdfrwt beam="2">  1        1 0.41029215E-02 0.91226866E+02</pdfrwt>
<pdfrwt beam="1">  1       -1 0.12002331E-01 0.91226866E+02</pdfrwt>
<totfact> 0.84890042E+04</totfact>
</mgrwt>
</event>
<event>
 5   1  0.1357339E+00  0.9088877E+02  0.7818608E-02  0.1300714E+00
          1   -1    0    0  501    0  0.00000000000E+00  0.00000000000E+00  0.11859464703E+03  0.11859464713E+03  0.46700000000E-02 0. -1.
         -1   -1    0    0    0  501 -0.00000000000E+00 -0.00000000000E+00 -0.17413874367E+02  0.17413874994E+02  0.46700000000E-02 0.  1.
         23    2    1    2    0    0  0.00000000000E+00  0.00000000000E+00  0.10118077267E+03  0.13600852212E+03  0.90888774509E+02 0.  0.
        -11    1    3    3    0    0  0.76634372360E+01  0.44573117000E+02  0.43948317799E+02  0.63063029320E+02  0.51100000000E-03 0.  1.
         11    1    3    3    0    0 -0.76634372360E+01 -0.44573117000E+02  0.57232454868E+02  0.72945492800E+02  0.51100000000E-03 0. -1.
<mgrwt>
<rscale>  0 0.90888775E+02</rscale>
<asrwt>0</asrwt>
<pdfrwt beam="1">  1        1 0.18245331E-01 0.90888775E+02</pdfrwt>
<pdfrwt beam="2">  1       -1 0.26790576E-02 0.90888775E+02</pdfrwt>
<totfact> 0.10844563E+05</totfact>
</mgrwt>
</event>
<event>
 5   1  0.1357339E+00  0.9101577E+02  0.7818608E-02  0.1300410E+00
         -1   -1    0    0    0  501 -0.00000000000E+00  0.00000000000E+00  0.69082215343E+01  0.69082231128E+01  0.46700000000E-02 0.  1.
          1   -1    0    0  501    0  0.00000000000E+00 -0.00000000000E+00 -0.29978300429E+03  0.29978300433E+03  0.46700000000E-02 0. -1.
         23    2    1    2    0    0  0.00000000000E+00  0.00000000000E+00 -0.29287478276E+03  0.30669122744E+03  0.91015771238E+02 0.  0.
        -11    1    3    3    0    0  0.41140238297E+02  0.16726518320E+02 -0.11296538589E+03  0.12138152262E+03  0.51100000000E-03 0. -1.
         11    1    3    3    0    0 -0.41140238297E+02 -0.16726518320E+02 -0.17990939686E+03  0.18530970482E+03  0.51100000000E-03 0.  1.
<mgrwt>
<rscale>  0 0.91015771E+02</rscale>
<asrwt>0</asrwt>
<pdfrwt beam="2">  1        1 0.46120452E-01 0.91015771E+02</pdfrwt>
<pdfrwt beam="1">  1       -1 0.10628037E-02 0.91015771E+02</pdfrwt>
<totfact> 0.12870944E+05</totfact>
</mgrwt>
</event>
<event>
 5   1  0.1357339E+00  0.8926330E+02  0.7818608E-02  0.1304646E+00
         -1   -1    0    0    0  501 -0.00000000000E+00  0.00000000000E+00  0.54757119895E+02  0.54757120094E+02  0.46700000000E-02 0.  1.
          1   -1    0    0  501    0  0.00000000000E+00 -0.00000000000E+00 -0.36378543218E+02  0.36378543518E+02  0.46700000000E-02 0. -1.
         23    2    1    2    0    0  0.00000000000E+00  0.00000000000E+00  0.18378576677E+02  0.91135663612E+02  0.89263302097E+02 0.  0.
        -11    1    3    3    0    0  0.43736955604E+01  0.28494442107E+02 -0.25597705545E+02  0.38552626023E+02  0.51100000000E-03 0. -1.
         11    1    3    3    0    0 -0.43736955604E+01 -0.28494442107E+02  0.43976282221E+02  0.52583037589E+02  0.51100000000E-03 0.  1.
<mgrwt>
<rscale>  0 0.89263302E+02</rscale>
<asrwt>0</asrwt>
<pdfrwt beam="2">  1        1 0.55966991E-02 0.89263302E+02</pdfrwt>
<pdfrwt beam="1">  1       -1 0.84241722E-02 0.89263302E+02</pdfrwt>
<totfact> 0.94886918E+04</totfact>
</mgrwt>
</event>
<event>
 5   1  0.1357339E+00  0.9025485E+02  0.7818608E-02  0.1302236E+00
          1   -1    0    0  501    0  0.00000000000E+00  0.00000000000E+00  0.40814486403E+02  0.40814486670E+02  0.46700000000E-02 0. -1.
         -1   -1    0    0    0  501 -0.00000000000E+00 -0.00000000000E+00 -0.49896121074E+02  0.49896121292E+02  0.46700000000E-02 0.  1.
         23    2    1    2    0    0  0.00000000000E+00  0.00000000000E+00 -0.90816346710E+01  0.90710607963E+02  0.90254851995E+02 0.  0.
        -11    1    3    3    0    0 -0.33379075326E+02 -0.12019833580E+01 -0.35040011597E+02  0.48408778611E+02  0.51100000000E-03 0.  1.
         11    1    3    3    0    0  0.33379075326E+02  0.12019833580E+01  0.25958376926E+02  0.42301829352E+02  0.51100000000E-03 0. -1.
<mgrwt>
<rscale>  0 0.90254852E+02</rscale>
<asrwt>0</asrwt>
<pdfrwt beam="1">  1        1 0.62791518E-02 0.90254852E+02</pdfrwt>
<pdfrwt beam="2">  1       -1 0.76763263E-02 0.90254852E+02</pdfrwt>
<totfact> 0.93583373E+04</totfact>
</mgrwt>
</event>
<event>
 5   1  0.1357339E+00  0.8950233E+02  0.7818608E-02  0.1304061E+00
         -1   -1    0    0    0  501 -0.00000000000E+00  0.00000000000E+00  0.27002073175E+02  0.27002073579E+02  0.46700000000E-02 0.  1.
          1   -1    0    0  501    0  0.00000000000E+00 -0.00000000000E+00 -0.74167147750E+02  0.74167147897E+02  0.46700000000E-02 0. -1.
         23    2    1    2    0    0  0.00000000000E+00  0.00000000000E+00 -0.47165074575E+02  0.10116922148E+03  0.89502330218E+02 0.  0.
        -11    1    3    3    0    0  0.14329834448E+01  0.34190977131E+02  0.90138000956E+01  0.35388203559E+02  0.51100000000E-03 0.  1.
         11    1    3    3    0    0 -0.14329834448E+01 -0.34190977131E+02 -0.56178874671E+02  0.65781017917E+02  0.51100000000E-03 0. -1.
<mgrwt>
<rscale>  0 0.89502330E+02</rscale>
<asrwt>0</asrwt>
<pdfrwt beam="2">  1        1 0.11410330E-01 0.89502330E+02</pdfrwt>
<pdfrwt beam="1">  1       -1 0.41541652E-02 0.89502330E+02</pdfrwt>
<totfact> 0.10475480E+05</totfact>
</mgrwt>
</event>
<event>
 5   1  0.1357339E+00  0.8945569E+02  0.7818608E-02  0.1304175E+00
         -1   -1    0    0    0  501 -0.00000000000E+00  0.00000000000E+00  0.93042496375E+02  0.93042496492E+02  0.46700000000E-02 0.  1.
          1   -1    0    0  501    0  0.00000000000E+00 -0.00000000000E+00 -0.21501789920E+02  0.21501790427E+02  0.46700000000E-02 0. -1.
         23    2    1    2    0    0  0.00000000000E+00  0.00000000000E+00  0.71540706455E+02  0.11454428692E+03  0.89455692865E+02 0.  0.
        -11    1    3    3    0    0 -0.39496354239E+02 -0.18454890957E+02  0.48577192975E+02  0.65270886895E+02  0.51100000000E-03 0.  1.
         11    1    3    3    0    0  0.39496354239E+02  0.18454890957E+02  0.22963513480E+02  0.49273400025E+02  0.51100000000E-03 0. -1.
<mgrwt>
<rscale>  0 0.89455693E+02</rscale>
<asrwt>0</asrwt>
<pdfrwt beam="2">  1        1 0.33079676E-02 0.89455693E+02</pdfrwt>
<pdfrwt beam="1">  1       -1 0.14314231E-01 0.89455693E+02</pdfrwt>
<totfact> 0.86585789E+04</totfact>
</mgrwt>
</event>
<event>
 5   1  0.1357339E+00  0.9173289E+02  0.7818608E-02  0.1298709E+00
         -1   -1    0    0    0  501 -0.00000000000E+00  0.00000000000E+00  0.15597091076E+02  0.15597091776E+02  0.46700000000E-02 0.  1.
          1   -1    0    0  501    0  0.00000000000E+00 -0.00000000000E+00 -0.13487969420E+03  0.13487969428E+03  0.46700000000E-02 0. -1.
         23    2    1    2    0    0  0.00000000000E+00  0.00000000000E+00 -0.11928260312E+03  0.15047678606E+03  0.91732893413E+02 0.  0.
        -11    1    3    3    0    0  0.16348165206E+02  0.13768792368E+02  0.69283909066E+01  0.22468750515E+02  0.51100000000E-03 0.  1.
         11    1    3    3    0    0 -0.16348165206E+02 -0.13768792368E+02 -0.12621099403E+03  0.12800803554E+03  0.51100000000E-03 0. -1.
<mgrwt>
<rscale>  0 0.91732893E+02</rscale>
<asrwt>0</asrwt>
<pdfrwt beam="2">  1        1 0.20750721E-01 0.91732893E+02</pdfrwt>
<pdfrwt beam="1">  1       -1 0.23995526E-02 0.91732893E+02</pdfrwt>
<totfact> 0.10819290E+05</totfact>
</mgrwt>
</event>
<event>
 5   1  0.1357339E+00  0.8820260E+02  0.7818608E-02  0.1307264E+00
          1   -1    0    0  501    0  0.00000000000E+00  0.00000000000E+00  0.31725621752E+03  0.31725621756E+03  0.46700000000E-02 0. -1.
         -1   -1    0    0    0  501 -0.00000000000E+00 -0.00000000000E+00 -0.61304528061E+01  0.61304545848E+01  0.46700000000E-02 0.  1.
         23    2    1    2    0    0  0.00000000000E+00  0.00000000000E+00  0.31112576471E+03  0.32338667214E+03  0.88202597742E+02 0.  0.
        -11    1    3    3    0    0  0.35220824882E+02  0.26360618268E+02  0.14424094630E+03  0.15080066078E+03  0.51100000000E-03 0.  1.
         11    1    3    3    0    0 -0.35220824882E+02 -0.26360618268E+02  0.16688481842E+03  0.17258601136E+03  0.51100000000E-03 0. -1.
<mgrwt>
<rscale>  0 0.88202598E+02</rscale>
<asrwt>0</asrwt>
<pdfrwt beam="1">  1        1 0.48808644E-01 0.88202598E+02</pdfrwt>
<pdfrwt beam="2">  1       -1 0.94314682E-03 0.88202598E+02</pdfrwt>
<totfact> 0.14140895E+05</totfact>
</mgrwt>
</event>
<event>
 5   1  0.1357339E+00  0.9034690E+02  0.7818608E-02  0.1302014E+00
          1   -1    0    0  501    0  0.00000000000E+00  0.00000000000E+00  0.48839101502E+02  0.48839101726E+02  0.46700000000E-02 0. -1.
         -1   -1    0    0    0  501 -0.00000000000E+00 -0.00000000000E+00 -0.41782923025E+02  0.41782923286E+02  0.46700000000E-02 0.  1.
         23    2    1    2    0    0  0.00000000000E+00  0.00000000000E+00  0.70561784779E+01  0.90622025011E+02  0.90346896806E+02 0.  0.
        -11    1    3    3    0    0 -0.24403921598E+02  0.21189502187E+02  0.35185157662E+02  0.47775953284E+02  0.51100000000E-03 0. -1.
         11    1    3    3    0    0  0.24403921598E+02 -0.21189502187E+02 -0.28128979184E+02  0.42846071727E+02  0.51100000000E-03 0.  1.
<mgrwt>
<rscale>  0 0.90346897E+02</rscale>
<asrwt>0</asrwt>
<pdfrwt beam="1">  1        1 0.75137080E-02 0.90346897E+02</pdfrwt>
<pdfrwt beam="2">  1       -1 0.64281420E-02 0.90346897E+02</pdfrwt>
<totfact> 0.95851972E+04</totfact>
</mgrwt>
</event>
<event>
 5   1  0.1357339E+00  0.9313908E+02  0.7818608E-02  0.1295423E+00
          1   -1    0    0  501    0  0.00000000000E+00  0.00000000000E+00  0.16500215758E+03  0.16500215765E+03  0.46700000000E-02 0. -1.
         -1   -1    0    0    0  501 -0.00000000000E+00 -0.00000000000E+00 -0.13143598091E+02  0.13143598920E+02  0.46700000000E-02 0.  1.
         23    2    1    2    0    0  0.00000000000E+00  0.00000000000E+00  0.15185855949E+03  0.17814575657E+03  0.93139081445E+02 0.  0.
        -11    1    3    3    0    0 -0.17877653840E+02  0.38253125491E+02  0.38360224412E+02  0.57047514703E+02  0.51100000000E-03 0.  1.
         11    1    3    3    0    0  0.17877653840E+02 -0.38253125491E+02  0.11349833508E+03  0.12109824186E+03  0.51100000000E-03 0. -1.
<mgrwt>
<rscale>  0 0.93139081E+02</rscale>
<asrwt>0</asrwt>
<pdfrwt beam="1">  1        1 0.25384949E-01 0.93139081E+02</pdfrwt>
<pdfrwt beam="2">  1       -1 0.20220920E-02 0.93139081E+02</pdfrwt>
<totfact> 0.10776360E+05</totfact>
</mgrwt>
</event>
<event>
 5   1  0.1357339E+00  0.9123839E+02  0.7818608E-02  0.1299880E+00
         -1   -1    0    0    0  501 -0.00000000000E+00  0.00000000000E+00  0.20532502962E+03  0.20532502967E+03  0.46700000000E-02 0.  1.
          1   -1    0    0  501    0  0.00000000000E+00 -0.00000000000E+00 -0.10135690619E+02  0.10135691695E+02  0.46700000000E-02 0. -1.
         23    2    1    2    0    0  0.00000000000E+00  0.00000000000E+00  0.19518933900E+03  0.21546072137E+03  0.91238393196E+02 0.  0.
        -11    1    3    3    0    0  0.38279273151E+02 -0.24806264085E+02  0.95997184212E+02  0.10628317302E+03  0.51100000000E-03 0.  1.
         11    1    3    3    0    0 -0.38279273151E+02  0.24806264085E+02  0.99192154787E+02  0.10917754834E+03  0.51100000000E-03 0. -1.
<mgrwt>
<rscale>  0 0.91238393E+02</rscale>
<asrwt>0</asrwt>
<pdfrwt beam="2">  1        1 0.15593370E-02 0.91238393E+02</pdfrwt>
<pdfrwt beam="1">  1       -1 0.31588468E-01 0.91238393E+02</pdfrwt>
<totfact> 0.68778497E+04</totfact>
</mgrwt>
</event>
<event>
 5   1  0.1357339E+00  0.8931985E+02  0.7818608E-02  0.1304507E+00
          1   -1    0    0  501    0  0.00000000000E+00  0.00000000000E+00  0.17674854409E+02  0.17674855026E+02  0.46700000000E-02 0. -1.
         -1   -1    0    0    0  501 -0.00000000000E+00 -0.00000000000E+00 -0.11284442174E+03  0.11284442184E+03  0.46700000000E-02 0.  1.
         23    2    1    2    0    0  0.00000000000E+00  0.00000000000E+00 -0.95169567330E+02  0.13051927686E+03  0.89319847103E+02 0.  0.
        -11    1    3    3    0    0  0.23917074380E+02  0.12992247612E+01 -0.10266457636E+03  0.10542167553E+03  0.51100000000E-03 0.  1.
         11    1    3    3    0    0 -0.23917074380E+02 -0.12992247612E+01  0.74950090320E+01  0.25097601330E+02  0.51100000000E-03 0. -1.
<mgrwt>
<rscale>  0 0.89319847E+02</rscale>
<asrwt>0</asrwt>
<pdfrwt beam="1">  1        1 0.27192085E-02 0.89319847E+02</pdfrwt>
<pdfrwt beam="2">  1       -1 0.17360680E-01 0.89319847E+02</pdfrwt>
<totfact> 0.83840426E+04</totfact>
</mgrwt>
</event>
<event>
 5   1  0.1357339E+00  0.9102642E+02  0.7818608E-02  0.1300385E+00
          1   -1    0    0  501    0  0.00000000000E+00  0.00000000000E+00  0.45000734336E+02  0.45000734579E+02  0.46700000000E-02 0. -1.
         -1   -1    0    0    0  501 -0.00000000000E+00 -0.00000000000E+00 -0.46031523972E+02  0.46031524209E+02  0.46700000000E-02 0.  1.
         23    2    1    2    0    0  0.00000000000E+00  0.00000000000E+00 -0.10307896358E+01  0.91032258787E+02  0.91026422607E+02 0.  0.
        -11    1    3    3    0    0  0.27920029088E+02 -0.35492883064E+02  0.51576781552E+01  0.45451891233E+02  0.51100000000E-03 0. -1.
         11    1    3    3    0    0 -0.27920029088E+02  0.35492883064E+02 -0.61884677910E+01  0.45580367554E+02  0.51100000000E-03 0.  1.
<mgrwt>
<rscale>  0 0.91026423E+02</rscale>
<asrwt>0</asrwt>
<pdfrwt beam="1">  1        1 0.69231899E-02 0.91026423E+02</pdfrwt>
<pdfrwt beam="2">  1       -1 0.70817729E-02 0.91026423E+02</pdfrwt>
<totfact> 0.92721345E+04</totfact>
</mgrwt>
</event>
<event>
 5   1  0.1357339E+00  0.7611453E+02  0.7818608E-02  0.1340454E+00
         -1   -1    0    0    0  501 -0.00000000000E+00  0.00000000000E+00  0.76454592471E+01  0.76454606734E+01  0.46700000000E-02 0. -1.
          1   -1    0    0  501    0  0.00000000000E+00 -0.00000000000E+00 -0.18943990742E+03  0.18943990748E+03  0.46700000000E-02 0.  1.
         23    2    1    2    0    0  0.00000000000E+00  0.00000000000E+00 -0.18179444817E+03  0.19708536815E+03  0.76114525241E+02 0.  0.
        -11    1    3    3    0    0  0.12835701705E+02 -0.34175271554E+02 -0.11874311945E+03  0.12422814834E+03  0.51100000000E-03 0.  1.
         11    1    3    3    0    0 -0.12835701705E+02  0.34175271554E+02 -0.63051328724E+02  0.72857219808E+02  0.51100000000E-03 0. -1.
<mgrwt>
<rscale>  0 0.76114525E+02</rscale>
<asrwt>0</asrwt>
<pdfrwt beam="2">  1        1 0.29144598E-01 0.76114525E+02</pdfrwt>
<pdfrwt beam="1">  1       -1 0.11762248E-02 0.76114525E+02</pdfrwt>
<totfact> 0.18930801E+05</totfact>
</mgrwt>
</event>
<event>
 5   1  0.1357339E+00  0.9123478E+02  0.7818608E-02  0.1299889E+00
         -1   -1    0    0    0  501 -0.00000000000E+00  0.00000000000E+00  0.35936722722E+02  0.35936723026E+02  0.46700000000E-02 0.  1.
          1   -1    0    0  501    0  0.00000000000E+00 -0.00000000000E+00 -0.57905845102E+02  0.57905845291E+02  0.46700000000E-02 0. -1.
         23    2    1    2    0    0  0.00000000000E+00  0.00000000000E+00 -0.21969122380E+02  0.93842568316E+02  0.91234781142E+02 0.  0.
        -11    1    3    3    0    0 -0.20205089785E+02  0.15922329587E+02  0.27764234160E+02  0.37849952859E+02  0.51100000000E-03 0.  1.
         11    1    3    3    0    0  0.20205089785E+02 -0.15922329587E+02 -0.49733356540E+02  0.55992615457E+02  0.51100000000E-03 0. -1.
<mgrwt>
<rscale>  0 0.91234781E+02</rscale>
<asrwt>0</asrwt>
<pdfrwt beam="2">  1        1 0.89085916E-02 0.91234781E+02</pdfrwt>
<pdfrwt beam="1">  1       -1 0.55287266E-02 0.91234781E+02</pdfrwt>
<totfact> 0.95686140E+04</totfact>
</mgrwt>
</event>
<event>
 5   1  0.1357339E+00  0.9480955E+02  0.7818608E-02  0.1291606E+00
          1   -1    0    0  501    0  0.00000000000E+00  0.00000000000E+00  0.61667057904E+02  0.61667058081E+02  0.46700000000E-02 0. -1.
         -1   -1    0    0    0  501 -0.00000000000E+00 -0.00000000000E+00 -0.36441052703E+02  0.36441053002E+02  0.46700000000E-02 0.  1.
         23    2    1    2    0    0  0.00000000000E+00  0.00000000000E+00  0.25226005202E+02  0.98108111083E+02  0.94809546576E+02 0.  0.
        -11    1    3    3    0    0 -0.37437453196E+01 -0.44479461688E+02 -0.39039806758E+01  0.44807133432E+02  0.51100000000E-03 0.  1.
         11    1    3    3    0    0  0.37437453196E+01  0.44479461688E+02  0.29129985877E+02  0.53300977651E+02  0.51100000000E-03 0. -1.
<mgrwt>
<rscale>  0 0.94809547E+02</rscale>
<asrwt>0</asrwt>
<pdfrwt beam="1">  1        1 0.94872396E-02 0.94809547E+02</pdfrwt>
<pdfrwt beam="2">  1       -1 0.56063159E-02 0.94809547E+02</pdfrwt>
<totfact> 0.86807667E+04</totfact>
</mgrwt>
</event>
<event>
 5   1  0.1357339E+00  0.8853704E+02  0.7818608E-02  0.1306434E+00
          1   -1    0    0  501    0  0.00000000000E+00  0.00000000000E+00  0.44096622489E+02  0.44096622736E+02  0.46700000000E-02 0. -1.
         -1   -1    0    0    0  501 -0.00000000000E+00 -0.00000000000E+00 -0.44441090307E+02  0.44441090552E+02  0.46700000000E-02 0.  1.
         23    2    1    2    0    0  0.00000000000E+00  0.00000000000E+00 -0.34446781753E+00  0.88537713288E+02  0.88537043187E+02 0.  0.
        -11    1    3    3    0    0  0.43135726650E+02  0.50573310491E+01 -0.87416915607E+01  0.44302197266E+02  0.51100000000E-03 0. -1.
         11    1    3    3    0    0 -0.43135726650E+02 -0.50573310491E+01  0.83972237432E+01  0.44235516023E+02  0.51100000000E-03 0.  1.
<mgrwt>
<rscale>  0 0.88537043E+02</rscale>
<asrwt>0</asrwt>
<pdfrwt beam="1">  1        1 0.67840958E-02 0.88537043E+02</pdfrwt>
<pdfrwt beam="2">  1       -1 0.68370909E-02 0.88537043E+02</pdfrwt>
<totfact> 0.99905765E+04</totfact>
</mgrwt>
</event>
<event>
 5   1  0.1357339E+00  0.8979258E+02  0.7818608E-02  0.1303355E+00
          1   -1    0    0  501    0  0.00000000000E+00  0.00000000000E+00  0.21835574679E+02  0.21835575178E+02  0.46700000000E-02 0. -1.
         -1   -1    0    0    0  501 -0.00000000000E+00 -0.00000000000E+00 -0.92311606523E+02  0.92311606641E+02  0.46700000000E-02 0.  1.
         23    2    1    2    0    0  0.00000000000E+00  0.00000000000E+00 -0.70476031844E+02  0.11414718182E+03  0.89792583506E+02 0.  0.
        -11    1    3    3    0    0  0.14818767628E+02 -0.14232712025E+02 -0.85984068576E+02  0.88404898137E+02  0.51100000000E-03 0.  1.
         11    1    3    3    0    0 -0.14818767628E+02  0.14232712025E+02  0.15508036732E+02  0.25742283681E+02  0.51100000000E-03 0. -1.
<mgrwt>
<rscale>  0 0.89792584E+02</rscale>
<asrwt>0</asrwt>
<pdfrwt beam="1">  1        1 0.33593193E-02 0.89792584E+02</pdfrwt>
<pdfrwt beam="2">  1       -1 0.14201785E-01 0.89792584E+02</pdfrwt>
<totfact> 0.85875305E+04</totfact>
</mgrwt>
</event>
<event>
 5   1  0.1357339E+00  0.9205171E+02  0.7818608E-02  0.1297958E+00
          1   -1    0    0  501    0  0.00000000000E+00  0.00000000000E+00  0.53470746420E+03  0.53470746422E+03  0.46700000000E-02 0. -1.
         -1   -1    0    0    0  501 -0.00000000000E+00 -0.00000000000E+00 -0.39617521822E+01  0.39617549346E+01  0.46700000000E-02 0.  1.
         23    2    1    2    0    0  0.00000000000E+00  0.00000000000E+00  0.53074571202E+03  0.53866921915E+03  0.92051707424E+02 0.  0.
        -11    1    3    3    0    0 -0.13534675359E+01 -0.46004926427E+02  0.26716774839E+03  0.27110310015E+03  0.51100000000E-03 0.  1.
         11    1    3    3    0    0  0.13534675359E+01  0.46004926427E+02  0.26357796362E+03  0.26756611900E+03  0.51100000000E-03 0. -1.
<mgrwt>
<rscale>  0 0.92051707E+02</rscale>
<asrwt>0</asrwt>
<pdfrwt beam="1">  1        1 0.82262634E-01 0.92051707E+02</pdfrwt>
<pdfrwt beam="2">  1       -1 0.60950094E-03 0.92051707E+02</pdfrwt>
<totfact> 0.13677878E+05</totfact>
</mgrwt>
</event>
<event>
 5   1  0.1357339E+00  0.8946252E+02  0.7818608E-02  0.1304159E+00
         -1   -1    0    0    0  501 -0.00000000000E+00  0.00000000000E+00  0.10398353857E+02  0.10398354905E+02  0.46700000000E-02 0.  1.
          1   -1    0    0  501    0  0.00000000000E+00 -0.00000000000E+00 -0.19242329729E+03  0.19242329735E+03  0.46700000000E-02 0. -1.
         23    2    1    2    0    0  0.00000000000E+00  0.00000000000E+00 -0.18202494344E+03  0.20282165225E+03  0.89462520591E+02 0.  0.
        -11    1    3    3    0    0 -0.24609908063E+02  0.24778097823E+02 -0.15438158569E+03  0.15828226593E+03  0.51100000000E-03 0. -1.
         11    1    3    3    0    0  0.24609908063E+02 -0.24778097823E+02 -0.27643357744E+02  0.44539386325E+02  0.51100000000E-03 0.  1.
<mgrwt>
<rscale>  0 0.89462521E+02</rscale>
<asrwt>0</asrwt>
<pdfrwt beam="2">  1        1 0.29603582E-01 0.89462521E+02</pdfrwt>
<pdfrwt beam="1">  1       -1 0.15997470E-02 0.89462521E+02</pdfrwt>
<totfact> 0.12365549E+05</totfact>
</mgrwt>
</event>
<event>
 5   1  0.1357339E+00  0.9152496E+02  0.7818608E-02  0.1299200E+00
         -1   -1    0    0    0  501 -0.00000000000E+00  0.00000000000E+00  0.22024841852E+02  0.22024842347E+02  0.46700000000E-02 0.  1.
          1   -1    0    0  501    0  0.00000000000E+00 -0.00000000000E+00 -0.95083746402E+02  0.95083746517E+02  0.46700000000E-02 0. -1.
         23    2    1    2    0    0  0.00000000000E+00  0.00000000000E+00 -0.73058904550E+02  0.11710858886E+03  0.91524958627E+02 0.  0.
        -11    1    3    3    0    0  0.25806530395E+02 -0.35731528270E+02 -0.52277784935E+02  0.68378987427E+02  0.51100000000E-03 0.  1.
         11    1    3    3    0    0 -0.25806530395E+02  0.35731528270E+02 -0.20781119615E+02  0.48729601437E+02  0.51100000000E-03 0. -1.
<mgrwt>
<rscale>  0 0.91524959E+02</rscale>
<asrwt>0</asrwt>
<pdfrwt beam="2">  1        1 0.14628269E-01 0.91524959E+02</pdfrwt>
<pdfrwt beam="1">  1       -1 0.33884373E-02 0.91524959E+02</pdfrwt>
<totfact> 0.10251180E+05</totfact>
</mgrwt>
</event>
<event>
 5   1  0.1357339E+00  0.8738835E+02  0.7818608E-02  0.1309302E+00
          1   -1    0    0  501    0  0.00000000000E+00  0.00000000000E+00  0.36088541727E+02  0.36088542029E+02  0.46700000000E-02 0. -1.
         -1   -1    0    0    0  501 -0.00000000000E+00 -0.00000000000E+00 -0.52902693132E+02  0.52902693338E+02  0.46700000000E-02 0.  1.
         23    2    1    2    0    0  0.00000000000E+00  0.00000000000E+00 -0.16814151406E+02  0.88991235367E+02  0.87388353255E+02 0.  0.
        -11    1    3    3    0    0 -0.16188855454E+02  0.36536637625E+02  0.95855080932E+01  0.41096069100E+02  0.51100000000E-03 0. -1.
         11    1    3    3    0    0  0.16188855454E+02 -0.36536637625E+02 -0.26399659499E+02  0.47895166267E+02  0.51100000000E-03 0.  1.
<mgrwt>
<rscale>  0 0.87388353E+02</rscale>
<asrwt>0</asrwt>
<pdfrwt beam="1">  1        1 0.55520834E-02 0.87388353E+02</pdfrwt>
<pdfrwt beam="2">  1       -1 0.81388759E-02 0.87388353E+02</pdfrwt>
<totfact> 0.10062252E+05</totfact>
</mgrwt>
</event>
<event>
 5   1  0.1357339E+00  0.8983491E+02  0.7818608E-02  0.1303252E+00
         -1   -1    0    0    0  501 -0.00000000000E+00  0.00000000000E+00  0.25245658811E+02  0.25245659243E+02  0.46700000000E-02 0.  1.
          1   -1    0    0  501    0  0.00000000000E+00 -0.00000000000E+00 -0.79917805411E+02  0.79917805547E+02  0.46700000000E-02 0. -1.
         23    2    1    2    0    0  0.00000000000E+00  0.00000000000E+00 -0.54672146600E+02  0.10516346479E+03  0.89834908097E+02 0.  0.
        -11    1    3    3    0    0 -0.20506441380E+02 -0.21929567531E+02 -0.66445596406E+02  0.72913903696E+02  0.51100000000E-03 0. -1.
         11    1    3    3    0    0  0.20506441380E+02  0.21929567531E+02  0.11773449806E+02  0.32249561094E+02  0.51100000000E-03 0.  1.
<mgrwt>
<rscale>  0 0.89834908E+02</rscale>
<asrwt>0</asrwt>
<pdfrwt beam="2">  1        1 0.12295047E-01 0.89834908E+02</pdfrwt>
<pdfrwt beam="1">  1       -1 0.38839476E-02 0.89834908E+02</pdfrwt>
<totfact> 0.10490428E+05</totfact>
</mgrwt>
</event>
<event>
 5   1  0.1357339E+00  0.9302138E+02  0.7818608E-02  0.1295696E+00
          1   -1    0    0  501    0  0.00000000000E+00  0.00000000000E+00  0.23853673498E+02  0.23853673955E+02  0.46700000000E-02 0. -1.
         -1   -1    0    0    0  501 -0.00000000000E+00 -0.00000000000E+00 -0.90688099124E+02  0.90688099244E+02  0.46700000000E-02 0.  1.
         23    2    1    2    0    0  0.00000000000E+00  0.00000000000E+00 -0.66834425626E+02  0.11454177320E+03  0.93021381192E+02 0.  0.
        -11    1    3    3    0    0 -0.24223432747E+02 -0.11238244397E+01 -0.82288062355E+02  0.85786729054E+02  0.51100000000E-03 0.  1.
         11    1    3    3    0    0  0.24223432747E+02  0.11238244397E+01  0.15453636729E+02  0.28755044145E+02  0.51100000000E-03 0. -1.
<mgrwt>
<rscale>  0 0.93021381E+02</rscale>
<asrwt>0</asrwt>
<pdfrwt beam="1">  1        1 0.36697960E-02 0.93021381E+02</pdfrwt>
<pdfrwt beam="2">  1       -1 0.13952015E-01 0.93021381E+02</pdfrwt>
<totfact> 0.78671046E+04</totfact>
</mgrwt>
</event>
<event>
 5   1  0.1357339E+00  0.9442315E+02  0.7818608E-02  0.1292481E+00
          1   -1    0    0  501    0  0.00000000000E+00  0.00000000000E+00  0.12753001905E+03  0.12753001914E+03  0.46700000000E-02 0. -1.
         -1   -1    0    0    0  501 -0.00000000000E+00 -0.00000000000E+00 -0.17477710114E+02  0.17477710737E+02  0.46700000000E-02 0.  1.
         23    2    1    2    0    0  0.00000000000E+00  0.00000000000E+00  0.11005230894E+03  0.14500772988E+03  0.94423148755E+02 0.  0.
        -11    1    3    3    0    0  0.23906529337E+02 -0.36742414645E+02  0.28100358834E+02  0.52068775151E+02  0.51100000000E-03 0.  1.
         11    1    3    3    0    0 -0.23906529337E+02  0.36742414645E+02  0.81951950106E+02  0.92938954725E+02  0.51100000000E-03 0. -1.
<mgrwt>
<rscale>  0 0.94423149E+02</rscale>
<asrwt>0</asrwt>
<pdfrwt beam="1">  1        1 0.19620003E-01 0.94423149E+02</pdfrwt>
<pdfrwt beam="2">  1       -1 0.26888785E-02 0.94423149E+02</pdfrwt>
<totfact> 0.99025014E+04</totfact>
</mgrwt>
</event>
<event>
 5   1  0.1357339E+00  0.9380399E+02  0.7818608E-02  0.1293893E+00
          1   -1    0    0  501    0  0.00000000000E+00  0.00000000000E+00  0.12321390035E+02  0.12321390920E+02  0.46700000000E-02 0. -1.
         -1   -1    0    0    0  501 -0.00000000000E+00 -0.00000000000E+00 -0.17853480744E+03  0.17853480750E+03  0.46700000000E-02 0.  1.
         23    2    1    2    0    0  0.00000000000E+00  0.00000000000E+00 -0.16621341741E+03  0.19085619842E+03  0.93803988990E+02 0.  0.
        -11    1    3    3    0    0  0.25727524914E+02 -0.37336009404E+02 -0.58698471788E+02  0.74171380781E+02  0.51100000000E-03 0. -1.
         11    1    3    3    0    0 -0.25727524914E+02  0.37336009404E+02 -0.10751494562E+03  0.11668481764E+03  0.51100000000E-03 0.  1.
<mgrwt>
<rscale>  0 0.93803989E+02</rscale>
<asrwt>0</asrwt>
<pdfrwt beam="1">  1        1 0.18955987E-02 0.93803989E+02</pdfrwt>
<pdfrwt beam="2">  1       -1 0.27466892E-01 0.93803989E+02</pdfrwt>
<totfact> 0.66513702E+04</totfact>
</mgrwt>
</event>
<event>
 5   1  0.1357339E+00  0.9127042E+02  0.7818608E-02  0.1299804E+00
         -1   -1    0    0    0  501 -0.00000000000E+00  0.00000000000E+00  0.17345449486E+02  0.17345450114E+02  0.46700000000E-02 0.  1.
          1   -1    0    0  501    0  0.00000000000E+00 -0.00000000000E+00 -0.12006447783E+03  0.12006447792E+03  0.46700000000E-02 0. -1.
         23    2    1    2    0    0  0.00000000000E+00  0.00000000000E+00 -0.10271902834E+03  0.13740992803E+03  0.91270419844E+02 0.  0.
        -11    1    3    3    0    0 -0.37861658786E+02 -0.21754848220E+02 -0.31398169755E+02  0.53783117159E+02  0.51100000000E-03 0. -1.
         11    1    3    3    0    0  0.37861658786E+02  0.21754848220E+02 -0.71320858587E+02  0.83626810874E+02  0.51100000000E-03 0.  1.
<mgrwt>
<rscale>  0 0.91270420E+02</rscale>
<asrwt>0</asrwt>
<pdfrwt beam="2">  1        1 0.18471458E-01 0.91270420E+02</pdfrwt>
<pdfrwt beam="1">  1       -1 0.26685308E-02 0.91270420E+02</pdfrwt>
<totfact> 0.10744916E+05</totfact>
</mgrwt>
</event>
<event>
 5   1  0.1357339E+00  0.9004124E+02  0.7818608E-02  0.1302752E+00
         -1   -1    0    0    0  501 -0.00000000000E+00  0.00000000000E+00  0.10508845956E+02  0.10508846993E+02  0.46700000000E-02 0.  1.
          1   -1    0    0  501    0  0.00000000000E+00 -0.00000000000E+00 -0.19287141452E+03  0.19287141458E+03  0.46700000000E-02 0. -1.
         23    2    1    2    0    0  0.00000000000E+00  0.00000000000E+00 -0.18236256857E+03  0.20338026157E+03  0.90041237126E+02 0.  0.
        -11    1    3    3    0    0 -0.42786148621E+02 -0.11720630401E+02 -0.73856777317E+02  0.86155970465E+02  0.51100000000E-03 0.  1.
         11    1    3    3    0    0  0.42786148621E+02  0.11720630401E+02 -0.10850579125E+03  0.11722429111E+03  0.51100000000E-03 0. -1.
<mgrwt>
<rscale>  0 0.90041237E+02</rscale>
<asrwt>0</asrwt>
<pdfrwt beam="2">  1        1 0.29672523E-01 0.90041237E+02</pdfrwt>
<pdfrwt beam="1">  1       -1 0.16167458E-02 0.90041237E+02</pdfrwt>
<totfact> 0.12159376E+05</totfact>
</mgrwt>
</event>
<event>
 5   1  0.1357339E+00  0.9141274E+02  0.7818608E-02  0.1299466E+00
          1   -1    0    0  501    0  0.00000000000E+00  0.00000000000E+00  0.25144828722E+03  0.25144828726E+03  0.46700000000E-02 0. -1.
         -1   -1    0    0    0  501 -0.00000000000E+00 -0.00000000000E+00 -0.83081578512E+01  0.83081591637E+01  0.46700000000E-02 0.  1.
         23    2    1    2    0    0  0.00000000000E+00  0.00000000000E+00  0.24314012937E+03  0.25975644643E+03  0.91412739544E+02 0.  0.
        -11    1    3    3    0    0  0.27421997767E+00  0.42214678227E+02  0.17135188554E+03  0.17647555903E+03  0.51100000000E-03 0. -1.
         11    1    3    3    0    0 -0.27421997767E+00 -0.42214678227E+02  0.71788243827E+02  0.83280887401E+02  0.51100000000E-03 0.  1.
<mgrwt>
<rscale>  0 0.91412740E+02</rscale>
<asrwt>0</asrwt>
<pdfrwt beam="1">  1        1 0.38684358E-01 0.91412740E+02</pdfrwt>
<pdfrwt beam="2">  1       -1 0.12781780E-02 0.91412740E+02</pdfrwt>
<totfact> 0.12295680E+05</totfact>
</mgrwt>
</event>
<event>
 5   1  0.1357339E+00  0.8812850E+02  0.7818608E-02  0.1307448E+00
         -1   -1    0    0    0  501 -0.00000000000E+00  0.00000000000E+00  0.96271958701E+02  0.96271958815E+02  0.46700000000E-02 0.  1.
          1   -1    0    0  501    0  0.00000000000E+00 -0.00000000000E+00 -0.20168472005E+02  0.20168472545E+02  0.46700000000E-02 0. -1.
         23    2    1    2    0    0  0.00000000000E+00  0.00000000000E+00  0.76103486697E+02  0.11644043136E+03  0.88128504854E+02 0.  0.
        -11    1    3    3    0    0 -0.14339798643E+02  0.33966541837E+02  0.69934932104E+02  0.79058525904E+02  0.51100000000E-03 0.  1.
         11    1    3    3    0    0  0.14339798643E+02 -0.33966541837E+02  0.61685545933E+01  0.37381905456E+02  0.51100000000E-03 0. -1.
<mgrwt>
<rscale>  0 0.88128505E+02</rscale>
<asrwt>0</asrwt>
<pdfrwt beam="2">  1        1 0.31028419E-02 0.88128505E+02</pdfrwt>
<pdfrwt beam="1">  1       -1 0.14811071E-01 0.88128505E+02</pdfrwt>
<totfact> 0.89423179E+04</totfact>
</mgrwt>
</event>
<event>
 5   1  0.1357339E+00  0.9026745E+02  0.7818608E-02  0.1302205E+00
         -1   -1    0    0    0  501 -0.00000000000E+00  0.00000000000E+00  0.74625447812E+01  0.74625462424E+01  0.46700000000E-02 0.  1.
          1   -1    0    0  501    0  0.00000000000E+00 -0.00000000000E+00 -0.27297025109E+03  0.27297025113E+03  0.46700000000E-02 0. -1.
         23    2    1    2    0    0  0.00000000000E+00  0.00000000000E+00 -0.26550770630E+03  0.28043279737E+03  0.90267445586E+02 0.  0.
        -11    1    3    3    0    0  0.23092343457E+02  0.35186950771E+02 -0.82116257177E+02  0.92273818193E+02  0.51100000000E-03 0.  1.
         11    1    3    3    0    0 -0.23092343457E+02 -0.35186950771E+02 -0.18339144913E+03  0.18815897918E+03  0.51100000000E-03 0. -1.
<mgrwt>
<rscale>  0 0.90267446E+02</rscale>
<asrwt>0</asrwt>
<pdfrwt beam="2">  1        1 0.41995416E-01 0.90267446E+02</pdfrwt>
<pdfrwt beam="1">  1       -1 0.11480841E-02 0.90267446E+02</pdfrwt>
<totfact> 0.12921686E+05</totfact>
</mgrwt>
</event>
<event>
 5   1  0.1357339E+00  0.8996350E+02  0.7818608E-02  0.1302940E+00
         -1   -1    0    0    0  501 -0.00000000000E+00  0.00000000000E+00  0.44185137488E+02  0.44185137735E+02  0.46700000000E-02 0.  1.
          1   -1    0    0  501    0  0.00000000000E+00 -0.00000000000E+00 -0.45792721065E+02  0.45792721303E+02  0.46700000000E-02 0. -1.
         23    2    1    2    0    0  0.00000000000E+00  0.00000000000E+00 -0.16075835772E+01  0.89977859038E+02  0.89963496998E+02 0.  0.
        -11    1    3    3    0    0 -0.82532767495E+01 -0.44216211816E+02 -0.12134097716E+01  0.44996247932E+02  0.51100000000E-03 0. -1.
         11    1    3    3    0    0  0.82532767495E+01  0.44216211816E+02 -0.39417380563E+00  0.44981611106E+02  0.51100000000E-03 0.  1.
<mgrwt>
<rscale>  0 0.89963497E+02</rscale>
<asrwt>0</asrwt>
<pdfrwt beam="2">  1        1 0.70450340E-02 0.89963497E+02</pdfrwt>
<pdfrwt beam="1">  1       -1 0.67977135E-02 0.89963497E+02</pdfrwt>
<totfact> 0.96072907E+04</totfact>
</mgrwt>
</event>
<event>
 5   1  0.1357339E+00  0.9071842E+02  0.7818608E-02  0.1301121E+00
         -1   -1    0    0    0  501 -0.00000000000E+00  0.00000000000E+00  0.63214697334E+01  0.63214714584E+01  0.46700000000E-02 0.  1.
          1   -1    0    0  501    0  0.00000000000E+00 -0.00000000000E+00 -0.32547140101E+03  0.32547140104E+03  0.46700000000E-02 0. -1.
         23    2    1    2    0    0  0.00000000000E+00  0.00000000000E+00 -0.31914993128E+03  0.33179287250E+03  0.90718419349E+02 0.  0.
        -11    1    3    3    0    0 -0.42333519321E+02 -0.12664453917E+01 -0.21896984531E+03  0.22302807872E+03  0.51100000000E-03 0. -1.
         11    1    3    3    0    0  0.42333519321E+02  0.12664453917E+01 -0.10018008597E+03  0.10876479379E+03  0.51100000000E-03 0.  1.
<mgrwt>
<rscale>  0 0.90718419E+02</rscale>
<asrwt>0</asrwt>
<pdfrwt beam="2">  1        1 0.50072510E-01 0.90718419E+02</pdfrwt>
<pdfrwt beam="1">  1       -1 0.97253419E-03 0.90718419E+02</pdfrwt>
<totfact> 0.13185702E+05</totfact>
</mgrwt>
</event>
<event>
 5   1  0.1357339E+00  0.9065763E+02  0.7818608E-02  0.1301267E+00
          1   -1    0    0  501    0  0.00000000000E+00  0.00000000000E+00  0.22479180299E+02  0.22479180784E+02  0.46700000000E-02 0. -1.
         -1   -1    0    0    0  501 -0.00000000000E+00 -0.00000000000E+00 -0.91404642376E+02  0.91404642495E+02  0.46700000000E-02 0.  1.
         23    2    1    2    0    0  0.00000000000E+00  0.00000000000E+00 -0.68925462077E+02  0.11388382328E+03  0.90657630027E+02 0.  0.
        -11    1    3    3    0    0 -0.72427795166E+01 -0.22463224362E+02 -0.83076851385E+02  0.86364446043E+02  0.51100000000E-03 0.  1.
         11    1    3    3    0    0  0.72427795166E+01  0.22463224362E+02  0.14151389309E+02  0.27519377236E+02  0.51100000000E-03 0. -1.
<mgrwt>
<rscale>  0 0.90657630E+02</rscale>
<asrwt>0</asrwt>
<pdfrwt beam="1">  1        1 0.34583355E-02 0.90657630E+02</pdfrwt>
<pdfrwt beam="2">  1       -1 0.14062252E-01 0.90657630E+02</pdfrwt>
<totfact> 0.83935752E+04</totfact>
</mgrwt>
</event>
<event>
 5   1  0.1357339E+00  0.9141684E+02  0.7818608E-02  0.1299456E+00
          1   -1    0    0  501    0  0.00000000000E+00  0.00000000000E+00  0.58662976639E+02  0.58662976825E+02  0.46700000000E-02 0. -1.
         -1   -1    0    0    0  501 -0.00000000000E+00 -0.00000000000E+00 -0.35614619252E+02  0.35614619558E+02  0.46700000000E-02 0.  1.
         23    2    1    2    0    0  0.00000000000E+00  0.00000000000E+00  0.23048357387E+02  0.94277596383E+02  0.91416838720E+02 0.  0.
        -11    1    3    3    0    0 -0.26111818687E+02 -0.36458481208E+02  0.20644666994E+02  0.49368514285E+02  0.51100000000E-03 0.  1.
         11    1    3    3    0    0  0.26111818687E+02  0.36458481208E+02  0.24036903928E+01  0.44909082098E+02  0.51100000000E-03 0. -1.
<mgrwt>
<rscale>  0 0.91416839E+02</rscale>
<asrwt>0</asrwt>
<pdfrwt beam="1">  1        1 0.90250732E-02 0.91416839E+02</pdfrwt>
<pdfrwt beam="2">  1       -1 0.54791723E-02 0.91416839E+02</pdfrwt>
<totfact> 0.95344242E+04</totfact>
</mgrwt>
</event>
<event>
 5   1  0.1357339E+00  0.9218852E+02  0.7818608E-02  0.1297637E+00
         -1   -1    0    0    0  501 -0.00000000000E+00  0.00000000000E+00  0.15110905177E+03  0.15110905184E+03  0.46700000000E-02 0.  1.
          1   -1    0    0  501    0  0.00000000000E+00 -0.00000000000E+00 -0.14060577587E+02  0.14060578363E+02  0.46700000000E-02 0. -1.
         23    2    1    2    0    0  0.00000000000E+00  0.00000000000E+00  0.13704847418E+03  0.16516963020E+03  0.92188515912E+02 0.  0.
        -11    1    3    3    0    0  0.30478116296E+02  0.14429188084E+02  0.12220670768E+02  0.35867280855E+02  0.51100000000E-03 0. -1.
         11    1    3    3    0    0 -0.30478116296E+02 -0.14429188084E+02  0.12482780341E+03  0.12930234935E+03  0.51100000000E-03 0.  1.
<mgrwt>
<rscale>  0 0.92188516E+02</rscale>
<asrwt>0</asrwt>
<pdfrwt beam="2">  1        1 0.21631658E-02 0.92188516E+02</pdfrwt>
<pdfrwt beam="1">  1       -1 0.23247547E-01 0.92188516E+02</pdfrwt>
<totfact> 0.72548638E+04</totfact>
</mgrwt>
</event>
<event>
 5   1  0.1357339E+00  0.8992944E+02  0.7818608E-02  0.1303023E+00
          1   -1    0    0  501    0  0.00000000000E+00  0.00000000000E+00  0.14218303428E+02  0.14218304195E+02  0.46700000000E-02 0. -1.
         -1   -1    0    0    0  501 -0.00000000000E+00 -0.00000000000E+00 -0.14219883494E+03  0.14219883502E+03  0.46700000000E-02 0.  1.
         23    2    1    2    0    0  0.00000000000E+00  0.00000000000E+00 -0.12798053151E+03  0.15641713921E+03  0.89929444527E+02 0.  0.
        -11    1    3    3    0    0  0.40385924885E+02  0.63254388809E+01 -0.96566985822E+02  0.10486284784E+03  0.51100000000E-03 0.  1.
         11    1    3    3    0    0 -0.40385924885E+02 -0.63254388809E+01 -0.31413545692E+02  0.51554291374E+02  0.51100000000E-03 0. -1.
<mgrwt>
<rscale>  0 0.89929445E+02</rscale>
<asrwt>0</asrwt>
<pdfrwt beam="1">  1        1 0.21874315E-02 0.89929445E+02</pdfrwt>
<pdfrwt beam="2">  1       -1 0.21876743E-01 0.89929445E+02</pdfrwt>
<totfact> 0.78464450E+04</totfact>
</mgrwt>
</event>
<event>
 5   1  0.1357339E+00  0.8939495E+02  0.7818608E-02  0.1304324E+00
         -1   -1    0    0    0  501 -0.00000000000E+00  0.00000000000E+00  0.87533071223E+02  0.87533071348E+02  0.46700000000E-02 0.  1.
          1   -1    0    0  501    0  0.00000000000E+00 -0.00000000000E+00 -0.22824107217E+02  0.22824107695E+02  0.46700000000E-02 0. -1.
         23    2    1    2    0    0  0.00000000000E+00  0.00000000000E+00  0.64708964006E+02  0.11035717904E+03  0.89394949206E+02 0.  0.
        -11    1    3    3    0    0  0.36787312174E+02  0.14690170739E+02  0.57916380737E+02  0.70167047902E+02  0.51100000000E-03 0.  1.
         11    1    3    3    0    0 -0.36787312174E+02 -0.14690170739E+02  0.67925832685E+01  0.40190131140E+02  0.51100000000E-03 0. -1.
<mgrwt>
<rscale>  0 0.89394949E+02</rscale>
<asrwt>0</asrwt>
<pdfrwt beam="2">  1        1 0.35114011E-02 0.89394949E+02</pdfrwt>
<pdfrwt beam="1">  1       -1 0.13466627E-01 0.89394949E+02</pdfrwt>
<totfact> 0.87675140E+04</totfact>
</mgrwt>
</event>
<event>
 5   1  0.1357339E+00  0.8952305E+02  0.7818608E-02  0.1304011E+00
          1   -1    0    0  501    0  0.00000000000E+00  0.00000000000E+00  0.21261020035E+02  0.21261020548E+02  0.46700000000E-02 0. -1.
         -1   -1    0    0    0  501 -0.00000000000E+00 -0.00000000000E+00 -0.94237901883E+02  0.94237901999E+02  0.46700000000E-02 0.  1.
         23    2    1    2    0    0  0.00000000000E+00  0.00000000000E+00 -0.72976881848E+02  0.11549892255E+03  0.89523046336E+02 0.  0.
        -11    1    3    3    0    0  0.32294649311E+02 -0.30731862265E+02 -0.31295296610E+02  0.54468223054E+02  0.51100000000E-03 0.  1.
         11    1    3    3    0    0 -0.32294649311E+02  0.30731862265E+02 -0.41681585238E+02  0.61030699493E+02  0.51100000000E-03 0. -1.
<mgrwt>
<rscale>  0 0.89523046E+02</rscale>
<asrwt>0</asrwt>
<pdfrwt beam="1">  1        1 0.32709262E-02 0.89523046E+02</pdfrwt>
<pdfrwt beam="2">  1       -1 0.14498139E-01 0.89523046E+02</pdfrwt>
<totfact> 0.86221155E+04</totfact>
</mgrwt>
</event>
<event>
 5   1  0.1357339E+00  0.9126887E+02  0.7818608E-02  0.1299808E+00
         -1   -1    0    0    0  501 -0.00000000000E+00  0.00000000000E+00  0.50448233646E+02  0.50448233863E+02  0.46700000000E-02 0.  1.
          1   -1    0    0  501    0  0.00000000000E+00 -0.00000000000E+00 -0.41279969161E+02  0.41279969425E+02  0.46700000000E-02 0. -1.
         23    2    1    2    0    0  0.00000000000E+00  0.00000000000E+00  0.91682644852E+01  0.91728203288E+02  0.91268867664E+02 0.  0.
        -11    1    3    3    0    0 -0.17162152654E+02 -0.19184429102E+02  0.42455598860E+02  0.49649367352E+02  0.51100000000E-03 0.  1.
         11    1    3    3    0    0  0.17162152654E+02  0.19184429102E+02 -0.33287334375E+02  0.42078835936E+02  0.51100000000E-03 0. -1.
<mgrwt>
<rscale>  0 0.91268868E+02</rscale>
<asrwt>0</asrwt>
<pdfrwt beam="2">  1        1 0.63507646E-02 0.91268868E+02</pdfrwt>
<pdfrwt beam="1">  1       -1 0.77612667E-02 0.91268868E+02</pdfrwt>
<totfact> 0.90838845E+04</totfact>
</mgrwt>
</event>
<event>
 5   1  0.1357339E+00  0.9336789E+02  0.7818608E-02  0.1294895E+00
          1   -1    0    0  501    0  0.00000000000E+00  0.00000000000E+00  0.58815436543E+02  0.58815436728E+02  0.46700000000E-02 0. -1.
         -1   -1    0    0    0  501 -0.00000000000E+00 -0.00000000000E+00 -0.37054739798E+02  0.37054740092E+02  0.46700000000E-02 0.  1.
         23    2    1    2    0    0  0.00000000000E+00  0.00000000000E+00  0.21760696744E+02  0.95870176820E+02  0.93367889988E+02 0.  0.
        -11    1    3    3    0    0  0.39793894459E+02  0.22630739486E+02  0.20273540468E+02  0.50067163383E+02  0.51100000000E-03 0. -1.
         11    1    3    3    0    0 -0.39793894459E+02 -0.22630739486E+02  0.14871562767E+01  0.45803013437E+02  0.51100000000E-03 0.  1.
<mgrwt>
<rscale>  0 0.93367890E+02</rscale>
<asrwt>0</asrwt>
<pdfrwt beam="1">  1        1 0.90485287E-02 0.93367890E+02</pdfrwt>
<pdfrwt beam="2">  1       -1 0.57007292E-02 0.93367890E+02</pdfrwt>
<totfact> 0.89935531E+04</totfact>
</mgrwt>
</event>
<event>
 5   1  0.1357339E+00  0.9165338E+02  0.7818608E-02  0.1298896E+00
          1   -1    0    0  501    0  0.00000000000E+00  0.00000000000E+00  0.94325301808E+02  0.94325301924E+02  0.46700000000E-02 0. -1.
         -1   -1    0    0    0  501 -0.00000000000E+00 -0.00000000000E+00 -0.22264287330E+02  0.22264287820E+02  0.46700000000E-02 0.  1.
         23    2    1    2    0    0  0.00000000000E+00  0.00000000000E+00  0.72061014478E+02  0.11658958974E+03  0.91653383074E+02 0.  0.
        -11    1    3    3    0    0 -0.91020022245E+01  0.22555174492E+02 -0.13376029100E+02  0.27757890691E+02  0.51100000000E-03 0.  1.
         11    1    3    3    0    0  0.91020022245E+01 -0.22555174492E+02  0.85437043578E+02  0.88831699052E+02  0.51100000000E-03 0. -1.
<mgrwt>
<rscale>  0 0.91653383E+02</rscale>
<asrwt>0</asrwt>
<pdfrwt beam="1">  1        1 0.14511585E-01 0.91653383E+02</pdfrwt>
<pdfrwt beam="2">  1       -1 0.34252750E-02 0.91653383E+02</pdfrwt>
<totfact> 0.10198506E+05</totfact>
</mgrwt>
</event>
<event>
 5   1  0.1357339E+00  0.1018119E+03  0.7818608E-02  0.1276531E+00
          1   -1    0    0  501    0  0.00000000000E+00  0.00000000000E+00  0.15468134662E+03  0.15468134669E+03  0.46700000000E-02 0. -1.
         -1   -1    0    0    0  501 -0.00000000000E+00 -0.00000000000E+00 -0.16753237350E+02  0.16753238001E+02  0.46700000000E-02 0.  1.
         23    2    1    2    0    0  0.00000000000E+00  0.00000000000E+00  0.13792810927E+03  0.17143458469E+03  0.10181185344E+03 0.  0.
        -11    1    3    3    0    0  0.13000717052E+02 -0.49213059012E+02  0.67810221971E+02  0.84788973489E+02  0.51100000000E-03 0. -1.
         11    1    3    3    0    0 -0.13000717052E+02  0.49213059012E+02  0.70117887296E+02  0.86645611201E+02  0.51100000000E-03 0.  1.
<mgrwt>
<rscale>  0 0.10181185E+03</rscale>
<asrwt>0</asrwt>
<pdfrwt beam="1">  1        1 0.23797131E-01 0.10181185E+03</pdfrwt>
<pdfrwt beam="2">  1       -1 0.25774211E-02 0.10181185E+03</pdfrwt>
<totfact> 0.83581507E+04</totfact>
</mgrwt>
</event>
<event>
 5   1  0.1357339E+00  0.9281296E+02  0.7818608E-02  0.1296179E+00
          1   -1    0    0  501    0  0.00000000000E+00  0.00000000000E+00  0.23057780003E+03  0.23057780008E+03  0.46700000000E-02 0. -1.
         -1   -1    0    0    0  501 -0.00000000000E+00 -0.00000000000E+00 -0.93398468816E+01  0.93398480491E+01  0.46700000000E-02 0.  1.
         23    2    1    2    0    0  0.00000000000E+00  0.00000000000E+00  0.22123795315E+03  0.23991764813E+03  0.92812962291E+02 0.  0.
        -11    1    3    3    0    0  0.28045259453E+02 -0.33644504278E+02  0.70986223650E+02  0.83411828863E+02  0.51100000000E-03 0.  1.
         11    1    3    3    0    0 -0.28045259453E+02  0.33644504278E+02  0.15025172950E+03  0.15650581927E+03  0.51100000000E-03 0. -1.
<mgrwt>
<rscale>  0 0.92812962E+02</rscale>
<asrwt>0</asrwt>
<pdfrwt beam="1">  1        1 0.35473508E-01 0.92812962E+02</pdfrwt>
<pdfrwt beam="2">  1       -1 0.14368996E-02 0.92812962E+02</pdfrwt>
<totfact> 0.11606886E+05</totfact>
</mgrwt>
</event>
<event>
 5   1  0.1357339E+00  0.8426129E+02  0.7818608E-02  0.1317376E+00
          1   -1    0    0  501    0  0.00000000000E+00  0.00000000000E+00  0.22912106548E+03  0.22912106553E+03  0.46700000000E-02 0. -1.
         -1   -1    0    0    0  501 -0.00000000000E+00 -0.00000000000E+00 -0.77469570140E+01  0.77469584216E+01  0.46700000000E-02 0.  1.
         23    2    1    2    0    0  0.00000000000E+00  0.00000000000E+00  0.22137410847E+03  0.23686802395E+03  0.84261289277E+02 0.  0.
        -11    1    3    3    0    0  0.30387115646E+02  0.18681158356E+02  0.17371047863E+03  0.17733497360E+03  0.51100000000E-03 0. -1.
         11    1    3    3    0    0 -0.30387115646E+02 -0.18681158356E+02  0.47663629839E+02  0.59533050355E+02  0.51100000000E-03 0.  1.
<mgrwt>
<rscale>  0 0.84261289E+02</rscale>
<asrwt>0</asrwt>
<pdfrwt beam="1">  1        1 0.35249394E-01 0.84261289E+02</pdfrwt>
<pdfrwt beam="2">  1       -1 0.11918397E-02 0.84261289E+02</pdfrwt>
<totfact> 0.14999786E+05</totfact>
</mgrwt>
</event>
<event>
 5   1  0.1357339E+00  0.9116547E+02  0.7818608E-02  0.1300054E+00
         -1   -1    0    0    0  501 -0.00000000000E+00  0.00000000000E+00  0.69949235859E+02  0.69949236015E+02  0.46700000000E-02 0. -1.
          1   -1    0    0  501    0  0.00000000000E+00 -0.00000000000E+00 -0.29704196818E+02  0.29704197185E+02  0.46700000000E-02 0.  1.
         23    2    1    2    0    0  0.00000000000E+00  0.00000000000E+00  0.40245039041E+02  0.99653433200E+02  0.91165473625E+02 0.  0.
        -11    1    3    3    0    0  0.17550451791E+02  0.31384691413E+02 -0.10499420700E+02  0.37460046029E+02  0.51100000000E-03 0.  1.
         11    1    3    3    0    0 -0.17550451791E+02 -0.31384691413E+02  0.50744459741E+02  0.62193387172E+02  0.51100000000E-03 0. -1.
<mgrwt>
<rscale>  0 0.91165474E+02</rscale>
<asrwt>0</asrwt>
<pdfrwt beam="2">  1        1 0.45698765E-02 0.91165474E+02</pdfrwt>
<pdfrwt beam="1">  1       -1 0.10761421E-01 0.91165474E+02</pdfrwt>
<totfact> 0.86576985E+04</totfact>
</mgrwt>
</event>
<event>
 5   1  0.1357339E+00  0.9072140E+02  0.7818608E-02  0.1301114E+00
          1   -1    0    0  501    0  0.00000000000E+00  0.00000000000E+00  0.10098413719E+03  0.10098413730E+03  0.46700000000E-02 0. -1.
         -1   -1    0    0    0  501 -0.00000000000E+00 -0.00000000000E+00 -0.20375409594E+02  0.20375410129E+02  0.46700000000E-02 0.  1.
         23    2    1    2    0    0  0.00000000000E+00  0.00000000000E+00  0.80608727598E+02  0.12135954743E+03  0.90721402035E+02 0.  0.
        -11    1    3    3    0    0 -0.30494897828E+02  0.32765686366E+02  0.30468351000E+02  0.54146554918E+02  0.51100000000E-03 0.  1.
         11    1    3    3    0    0  0.30494897828E+02 -0.32765686366E+02  0.50140376598E+02  0.67212992511E+02  0.51100000000E-03 0. -1.
<mgrwt>
<rscale>  0 0.90721402E+02</rscale>
<asrwt>0</asrwt>
<pdfrwt beam="1">  1        1 0.15536021E-01 0.90721402E+02</pdfrwt>
<pdfrwt beam="2">  1       -1 0.31346784E-02 0.90721402E+02</pdfrwt>
<totfact> 0.10605875E+05</totfact>
</mgrwt>
</event>
<event>
 5   1  0.1357339E+00  0.9008611E+02  0.7818608E-02  0.1302643E+00
         -1   -1    0    0    0  501 -0.00000000000E+00  0.00000000000E+00  0.75051673845E+01  0.75051688375E+01  0.46700000000E-02 0.  1.
          1   -1    0    0  501    0  0.00000000000E+00 -0.00000000000E+00 -0.27033064637E+03  0.27033064642E+03  0.46700000000E-02 0. -1.
         23    2    1    2    0    0  0.00000000000E+00  0.00000000000E+00 -0.26282547899E+03  0.27783581525E+03  0.90086113417E+02 0.  0.
        -11    1    3    3    0    0  0.32724209280E+02 -0.29288344223E+02 -0.16228408233E+03  0.16812139768E+03  0.51100000000E-03 0. -1.
         11    1    3    3    0    0 -0.32724209280E+02  0.29288344223E+02 -0.10054139666E+03  0.10971441757E+03  0.51100000000E-03 0.  1.
<mgrwt>
<rscale>  0 0.90086113E+02</rscale>
<asrwt>0</asrwt>
<pdfrwt beam="2">  1        1 0.41589323E-01 0.90086113E+02</pdfrwt>
<pdfrwt beam="1">  1       -1 0.11546415E-02 0.90086113E+02</pdfrwt>
<totfact> 0.12966560E+05</totfact>
</mgrwt>
</event>
<event>
 5   1  0.1357339E+00  0.9265597E+02  0.7818608E-02  0.1296544E+00
          1   -1    0    0  501    0  0.00000000000E+00  0.00000000000E+00  0.18676308080E+03  0.18676308086E+03  0.46700000000E-02 0. -1.
         -1   -1    0    0    0  501 -0.00000000000E+00 -0.00000000000E+00 -0.11492003347E+02  0.11492004295E+02  0.46700000000E-02 0.  1.
         23    2    1    2    0    0  0.00000000000E+00  0.00000000000E+00  0.17527107745E+03  0.19825508515E+03  0.92655966875E+02 0.  0.
        -11    1    3    3    0    0 -0.15331796995E+02  0.26331628712E+02  0.12964837619E+02  0.33113527213E+02  0.51100000000E-03 0.  1.
         11    1    3    3    0    0  0.15331796995E+02 -0.26331628712E+02  0.16230623983E+03  0.16514155794E+03  0.51100000000E-03 0. -1.
<mgrwt>
<rscale>  0 0.92655967E+02</rscale>
<asrwt>0</asrwt>
<pdfrwt beam="1">  1        1 0.28732779E-01 0.92655967E+02</pdfrwt>
<pdfrwt beam="2">  1       -1 0.17680008E-02 0.92655967E+02</pdfrwt>
<totfact> 0.11190003E+05</totfact>
</mgrwt>
</event>
<event>
 5   1  0.1357339E+00  0.9186809E+02  0.7818608E-02  0.1298390E+00
         -1   -1    0    0    0  501 -0.00000000000E+00  0.00000000000E+00  0.12779013231E+03  0.12779013239E+03  0.46700000000E-02 0.  1.
          1   -1    0    0  501    0  0.00000000000E+00 -0.00000000000E+00 -0.16510948494E+02  0.16510949155E+02  0.46700000000E-02 0. -1.
         23    2    1    2    0    0  0.00000000000E+00  0.00000000000E+00  0.11127918381E+03  0.14430108155E+03  0.91868086874E+02 0.  0.
        -11    1    3    3    0    0 -0.39438167470E+02 -0.17910648371E+02  0.79655822537E+02  0.90670890824E+02  0.51100000000E-03 0.  1.
         11    1    3    3    0    0  0.39438167470E+02  0.17910648371E+02  0.31623361278E+02  0.53630190726E+02  0.51100000000E-03 0. -1.
<mgrwt>
<rscale>  0 0.91868087E+02</rscale>
<asrwt>0</asrwt>
<pdfrwt beam="2">  1        1 0.25401460E-02 0.91868087E+02</pdfrwt>
<pdfrwt beam="1">  1       -1 0.19660020E-01 0.91868087E+02</pdfrwt>
<totfact> 0.76005653E+04</totfact>
</mgrwt>
</event>
<event>
 5   1  0.1357339E+00  0.9649400E+02  0.7818608E-02  0.1287846E+00
          1   -1    0    0  501    0  0.00000000000E+00  0.00000000000E+00  0.54495551343E+02  0.54495551544E+02  0.46700000000E-02 0. -1.
         -1   -1    0    0    0  501 -0.00000000000E+00 -0.00000000000E+00 -0.42714921158E+02  0.42714921413E+02  0.46700000000E-02 0.  1.
         23    2    1    2    0    0  0.00000000000E+00  0.00000000000E+00  0.11780630186E+02  0.97210472956E+02  0.96494003984E+02 0.  0.
        -11    1    3    3    0    0 -0.20620486242E+02  0.16276039361E+02 -0.34878163545E+02  0.43664633316E+02  0.51100000000E-03 0.  1.
         11    1    3    3    0    0  0.20620486242E+02 -0.16276039361E+02  0.46658793730E+02  0.53545839640E+02  0.51100000000E-03 0. -1.
<mgrwt>
<rscale>  0 0.96494004E+02</rscale>
<asrwt>0</asrwt>
<pdfrwt beam="1">  1        1 0.83839310E-02 0.96494004E+02</pdfrwt>
<pdfrwt beam="2">  1       -1 0.65715264E-02 0.96494004E+02</pdfrwt>
<totfact> 0.81047220E+04</totfact>
</mgrwt>
</event>
<event>
 5   1  0.1357339E+00  0.9031526E+02  0.7818608E-02  0.1302090E+00
          1   -1    0    0  501    0  0.00000000000E+00  0.00000000000E+00  0.61764645365E+02  0.61764645541E+02  0.46700000000E-02 0. -1.
         -1   -1    0    0    0  501 -0.00000000000E+00 -0.00000000000E+00 -0.33015840629E+02  0.33015840959E+02  0.46700000000E-02 0.  1.
         23    2    1    2    0    0  0.00000000000E+00  0.00000000000E+00  0.28748804736E+02  0.94780486500E+02  0.90315263646E+02 0.  0.
        -11    1    3    3    0    0  0.36884163771E+02 -0.12264101282E+02 -0.97481670514E+01  0.40073388657E+02  0.51100000000E-03 0.  1.
         11    1    3    3    0    0 -0.36884163771E+02  0.12264101282E+02  0.38496971787E+02  0.54707097843E+02  0.51100000000E-03 0. -1.
<mgrwt>
<rscale>  0 0.90315264E+02</rscale>
<asrwt>0</asrwt>
<pdfrwt beam="1">  1        1 0.95022532E-02 0.90315264E+02</pdfrwt>
<pdfrwt beam="2">  1       -1 0.50793601E-02 0.90315264E+02</pdfrwt>
<totfact> 0.99372076E+04</totfact>
</mgrwt>
</event>
<event>
 5   1  0.1357339E+00  0.8478812E+02  0.7818608E-02  0.1315988E+00
          1   -1    0    0  501    0  0.00000000000E+00  0.00000000000E+00  0.46246720272E+02  0.46246720507E+02  0.46700000000E-02 0. -1.
         -1   -1    0    0    0  501 -0.00000000000E+00 -0.00000000000E+00 -0.38862351217E+02  0.38862351498E+02  0.46700000000E-02 0.  1.
         23    2    1    2    0    0  0.00000000000E+00  0.00000000000E+00  0.73843690546E+01  0.85109072005E+02  0.84788119635E+02 0.  0.
        -11    1    3    3    0    0 -0.22530651772E+02  0.28844632211E+02 -0.17780687586E+02  0.40691472423E+02  0.51100000000E-03 0.  1.
         11    1    3    3    0    0  0.22530651772E+02 -0.28844632211E+02  0.25165056640E+02  0.44417599582E+02  0.51100000000E-03 0. -1.
<mgrwt>
<rscale>  0 0.84788120E+02</rscale>
<asrwt>0</asrwt>
<pdfrwt beam="1">  1        1 0.71148801E-02 0.84788120E+02</pdfrwt>
<pdfrwt beam="2">  1       -1 0.59788233E-02 0.84788120E+02</pdfrwt>
<totfact> 0.11346385E+05</totfact>
</mgrwt>
</event>
<event>
 5   1  0.1357339E+00  0.9181234E+02  0.7818608E-02  0.1298521E+00
         -1   -1    0    0    0  501 -0.00000000000E+00  0.00000000000E+00  0.18061329783E+02  0.18061330386E+02  0.46700000000E-02 0.  1.
          1   -1    0    0  501    0  0.00000000000E+00 -0.00000000000E+00 -0.11667892405E+03  0.11667892414E+03  0.46700000000E-02 0. -1.
         23    2    1    2    0    0  0.00000000000E+00  0.00000000000E+00 -0.98617594263E+02  0.13474025453E+03  0.91812342805E+02 0.  0.
        -11    1    3    3    0    0 -0.10989906706E+02 -0.19273625602E+02  0.96704849440E+01  0.24202664576E+02  0.51100000000E-03 0.  1.
         11    1    3    3    0    0  0.10989906706E+02  0.19273625602E+02 -0.10828807921E+03  0.11053758995E+03  0.51100000000E-03 0. -1.
<mgrwt>
<rscale>  0 0.91812343E+02</rscale>
<asrwt>0</asrwt>
<pdfrwt beam="2">  1        1 0.17950603E-01 0.91812343E+02</pdfrwt>
<pdfrwt beam="1">  1       -1 0.27786662E-02 0.91812343E+02</pdfrwt>
<totfact> 0.10521159E+05</totfact>
</mgrwt>
</event>
<event>
 4   1  0.1357339E+00  0.5063602E+02  0.7818608E-02  0.1441941E+00
         -1   -1    0    0    0  501 -0.00000000000E+00  0.00000000000E+00  0.39079064451E+02  0.39079064730E+02  0.46700000000E-02 0. -1.
          1   -1    0    0  501    0  0.00000000000E+00 -0.00000000000E+00 -0.16402688403E+02  0.16402689068E+02  0.46700000000E-02 0.  1.
        -11    1    1    2    0    0 -0.18210077156E+00 -0.24569309869E+02  0.18031597647E+02  0.30476592035E+02  0.51100000000E-03 0.  1.
         11    1    1    2    0    0  0.18210077156E+00  0.24569309869E+02  0.46447784011E+01  0.25005161763E+02  0.51100000000E-03 0. -1.
<mgrwt>
<rscale>  0 0.50636024E+02</rscale>
<asrwt>0</asrwt>
<pdfrwt beam="2">  1        1 0.25234906E-02 0.50636024E+02</pdfrwt>
<pdfrwt beam="1">  1       -1 0.60121638E-02 0.50636024E+02</pdfrwt>
<totfact> 0.40663022E+05</totfact>
</mgrwt>
</event>
<event>
 5   1  0.1357339E+00  0.9205677E+02  0.7818608E-02  0.1297946E+00
          1   -1    0    0  501    0  0.00000000000E+00  0.00000000000E+00  0.37726407325E+02  0.37726407614E+02  0.46700000000E-02 0. -1.
         -1   -1    0    0    0  501 -0.00000000000E+00 -0.00000000000E+00 -0.56157275483E+02  0.56157275677E+02  0.46700000000E-02 0.  1.
         23    2    1    2    0    0  0.00000000000E+00  0.00000000000E+00 -0.18430868158E+02  0.93883683291E+02  0.92056771001E+02 0.  0.
        -11    1    3    3    0    0 -0.24086611697E+02 -0.23416349223E+02  0.22875232404E+02  0.40641930709E+02  0.51100000000E-03 0. -1.
         11    1    3    3    0    0  0.24086611697E+02  0.23416349223E+02 -0.41306100562E+02  0.53241752581E+02  0.51100000000E-03 0.  1.
<mgrwt>
<rscale>  0 0.92056771E+02</rscale>
<asrwt>0</asrwt>
<pdfrwt beam="1">  1        1 0.58040628E-02 0.92056771E+02</pdfrwt>
<pdfrwt beam="2">  1       -1 0.86395808E-02 0.92056771E+02</pdfrwt>
<totfact> 0.87441079E+04</totfact>
</mgrwt>
</event>
<event>
 4   1  0.1357339E+00  0.1279157E+03  0.7818608E-02  0.1230582E+00
          1   -1    0    0  501    0  0.00000000000E+00  0.00000000000E+00  0.16511709383E+03  0.16511709389E+03  0.46700000000E-02 0. -1.
         -1   -1    0    0    0  501 -0.00000000000E+00 -0.00000000000E+00 -0.24773970223E+02  0.24773970663E+02  0.46700000000E-02 0.  1.
        -11    1    1    2    0    0 -0.38983897747E+02 -0.90324764988E+01  0.14423728058E+03  0.14968541353E+03  0.51100000000E-03 0. -1.
         11    1    1    2    0    0  0.38983897747E+02  0.90324764988E+01 -0.38941569772E+01  0.40205651022E+02  0.51100000000E-03 0.  1.
<mgrwt>
<rscale>  0 0.12791569E+03</rscale>
<asrwt>0</asrwt>
<pdfrwt beam="1">  1        1 0.25402630E-01 0.12791569E+03</pdfrwt>
<pdfrwt beam="2">  1       -1 0.38113801E-02 0.12791569E+03</pdfrwt>
<totfact> 0.45011752E+04</totfact>
</mgrwt>
</event>
<event>
 5   1  0.1357339E+00  0.8626629E+02  0.7818608E-02  0.1312154E+00
         -1   -1    0    0    0  501 -0.00000000000E+00  0.00000000000E+00  0.38113894496E+02  0.38113894782E+02  0.46700000000E-02 0.  1.
          1   -1    0    0  501    0  0.00000000000E+00 -0.00000000000E+00 -0.48813388288E+02  0.48813388512E+02  0.46700000000E-02 0. -1.
         23    2    1    2    0    0  0.00000000000E+00  0.00000000000E+00 -0.10699493792E+02  0.86927283294E+02  0.86266293611E+02 0.  0.
        -11    1    3    3    0    0  0.38846744184E+01 -0.18634558540E+02 -0.44352013497E+02  0.48264257674E+02  0.51100000000E-03 0. -1.
         11    1    3    3    0    0 -0.38846744184E+01  0.18634558540E+02  0.33652519705E+02  0.38663025620E+02  0.51100000000E-03 0.  1.
<mgrwt>
<rscale>  0 0.86266294E+02</rscale>
<asrwt>0</asrwt>
<pdfrwt beam="2">  1        1 0.75097521E-02 0.86266294E+02</pdfrwt>
<pdfrwt beam="1">  1       -1 0.58636761E-02 0.86266294E+02</pdfrwt>
<totfact> 0.10899177E+05</totfact>
</mgrwt>
</event>
<event>
 5   1  0.1357339E+00  0.8673344E+02  0.7818608E-02  0.1310961E+00
         -1   -1    0    0    0  501 -0.00000000000E+00  0.00000000000E+00  0.11111353338E+03  0.11111353347E+03  0.46700000000E-02 0.  1.
          1   -1    0    0  501    0  0.00000000000E+00 -0.00000000000E+00 -0.16925683137E+02  0.16925683781E+02  0.46700000000E-02 0. -1.
         23    2    1    2    0    0  0.00000000000E+00  0.00000000000E+00  0.94187850239E+02  0.12803921726E+03  0.86733442355E+02 0.  0.
        -11    1    3    3    0    0 -0.20189554026E+02  0.34519101403E+02  0.22326271405E+02  0.45800096600E+02  0.51100000000E-03 0. -1.
         11    1    3    3    0    0  0.20189554026E+02 -0.34519101403E+02  0.71861578834E+02  0.82239120656E+02  0.51100000000E-03 0.  1.
<mgrwt>
<rscale>  0 0.86733442E+02</rscale>
<asrwt>0</asrwt>
<pdfrwt beam="2">  1        1 0.26039514E-02 0.86733442E+02</pdfrwt>
<pdfrwt beam="1">  1       -1 0.17094389E-01 0.86733442E+02</pdfrwt>
<totfact> 0.90705524E+04</totfact>
</mgrwt>
</event>
<event>
 5   1  0.1357339E+00  0.9156566E+02  0.7818608E-02  0.1299104E+00
          1   -1    0    0  501    0  0.00000000000E+00  0.00000000000E+00  0.13092270728E+03  0.13092270736E+03  0.46700000000E-02 0. -1.
         -1   -1    0    0    0  501 -0.00000000000E+00 -0.00000000000E+00 -0.16009962785E+02  0.16009963466E+02  0.46700000000E-02 0.  1.
         23    2    1    2    0    0  0.00000000000E+00  0.00000000000E+00  0.11491274450E+03  0.14693267083E+03  0.91565664470E+02 0.  0.
        -11    1    3    3    0    0  0.11392692183E+02 -0.32916699025E+02  0.10513330723E+03  0.11075339633E+03  0.51100000000E-03 0. -1.
         11    1    3    3    0    0 -0.11392692183E+02  0.32916699025E+02  0.97794372694E+01  0.36179274501E+02  0.51100000000E-03 0.  1.
<mgrwt>
<rscale>  0 0.91565664E+02</rscale>
<asrwt>0</asrwt>
<pdfrwt beam="1">  1        1 0.20141954E-01 0.91565664E+02</pdfrwt>
<pdfrwt beam="2">  1       -1 0.24630714E-02 0.91565664E+02</pdfrwt>
<totfact> 0.10815064E+05</totfact>
</mgrwt>
</event>
<event>
 5   1  0.1357339E+00  0.7130660E+02  0.7818608E-02  0.1355705E+00
          1   -1    0    0  501    0  0.00000000000E+00  0.00000000000E+00  0.11701783644E+03  0.11701783653E+03  0.46700000000E-02 0. -1.
         -1   -1    0    0    0  501 -0.00000000000E+00 -0.00000000000E+00 -0.10862940917E+02  0.10862941921E+02  0.46700000000E-02 0.  1.
         23    2    1    2    0    0  0.00000000000E+00  0.00000000000E+00  0.10615489552E+03  0.12788077845E+03  0.71306603162E+02 0.  0.
        -11    1    3    3    0    0  0.19869908106E+02  0.18992916918E+01  0.96794886824E-01  0.19960709571E+02  0.51100000000E-03 0.  1.
         11    1    3    3    0    0 -0.19869908106E+02 -0.18992916918E+01  0.10605810063E+03  0.10792006888E+03  0.51100000000E-03 0. -1.
<mgrwt>
<rscale>  0 0.71306603E+02</rscale>
<asrwt>0</asrwt>
<pdfrwt beam="1">  1        1 0.18002744E-01 0.71306603E+02</pdfrwt>
<pdfrwt beam="2">  1       -1 0.16712218E-02 0.71306603E+02</pdfrwt>
<totfact> 0.20687512E+05</totfact>
</mgrwt>
</event>
<event>
 5   1  0.1357339E+00  0.9228284E+02  0.7818608E-02  0.1297416E+00
         -1   -1    0    0    0  501 -0.00000000000E+00  0.00000000000E+00  0.10243908123E+02  0.10243909188E+02  0.46700000000E-02 0.  1.
          1   -1    0    0  501    0  0.00000000000E+00 -0.00000000000E+00 -0.20783380329E+03  0.20783380334E+03  0.46700000000E-02 0. -1.
         23    2    1    2    0    0  0.00000000000E+00  0.00000000000E+00 -0.19758989517E+03  0.21807771253E+03  0.92282837139E+02 0.  0.
        -11    1    3    3    0    0 -0.31915324659E+02  0.64977734045E+01 -0.17603116608E+03  0.17901893878E+03  0.51100000000E-03 0. -1.
         11    1    3    3    0    0  0.31915324659E+02 -0.64977734045E+01 -0.21558729085E+02  0.39058773756E+02  0.51100000000E-03 0.  1.
<mgrwt>
<rscale>  0 0.92282837E+02</rscale>
<asrwt>0</asrwt>
<pdfrwt beam="2">  1        1 0.31974428E-01 0.92282837E+02</pdfrwt>
<pdfrwt beam="1">  1       -1 0.15759861E-02 0.92282837E+02</pdfrwt>
<totfact> 0.11549468E+05</totfact>
</mgrwt>
</event>
<event>
 5   1  0.1357339E+00  0.9101822E+02  0.7818608E-02  0.1300405E+00
          1   -1    0    0  501    0  0.00000000000E+00  0.00000000000E+00  0.44146730276E+02  0.44146730523E+02  0.46700000000E-02 0. -1.
         -1   -1    0    0    0  501 -0.00000000000E+00 -0.00000000000E+00 -0.46913528214E+02  0.46913528446E+02  0.46700000000E-02 0.  1.
         23    2    1    2    0    0  0.00000000000E+00  0.00000000000E+00 -0.27667979374E+01  0.91060258969E+02  0.91018215719E+02 0.  0.
        -11    1    3    3    0    0  0.34410030527E+02  0.19613216475E+01 -0.31115503232E+02  0.46433517260E+02  0.51100000000E-03 0. -1.
         11    1    3    3    0    0 -0.34410030527E+02 -0.19613216475E+01  0.28348705294E+02  0.44626741710E+02  0.51100000000E-03 0.  1.
<mgrwt>
<rscale>  0 0.91018216E+02</rscale>
<asrwt>0</asrwt>
<pdfrwt beam="1">  1        1 0.67918048E-02 0.91018216E+02</pdfrwt>
<pdfrwt beam="2">  1       -1 0.72174658E-02 0.91018216E+02</pdfrwt>
<totfact> 0.92478096E+04</totfact>
</mgrwt>
</event>
<event>
 5   1  0.1357339E+00  0.9160015E+02  0.7818608E-02  0.1299022E+00
          1   -1    0    0  501    0  0.00000000000E+00  0.00000000000E+00  0.10286986646E+02  0.10286987706E+02  0.46700000000E-02 0. -1.
         -1   -1    0    0    0  501 -0.00000000000E+00 -0.00000000000E+00 -0.20391264967E+03  0.20391264972E+03  0.46700000000E-02 0.  1.
         23    2    1    2    0    0  0.00000000000E+00  0.00000000000E+00 -0.19362566303E+03  0.21419963743E+03  0.91600148980E+02 0.  0.
        -11    1    3    3    0    0 -0.37126450438E+02  0.13244044909E+02 -0.42278547670E+02  0.57803578099E+02  0.51100000000E-03 0.  1.
         11    1    3    3    0    0  0.37126450438E+02 -0.13244044909E+02 -0.15134711536E+03  0.15639605933E+03  0.51100000000E-03 0. -1.
<mgrwt>
<rscale>  0 0.91600149E+02</rscale>
<asrwt>0</asrwt>
<pdfrwt beam="1">  1        1 0.15826136E-02 0.91600149E+02</pdfrwt>
<pdfrwt beam="2">  1       -1 0.31371174E-01 0.91600149E+02</pdfrwt>
<totfact> 0.68208991E+04</totfact>
</mgrwt>
</event>
<event>
 5   1  0.1357339E+00  0.9141789E+02  0.7818608E-02  0.1299454E+00
          1   -1    0    0  501    0  0.00000000000E+00  0.00000000000E+00  0.14772164818E+02  0.14772165556E+02  0.46700000000E-02 0. -1.
         -1   -1    0    0    0  501 -0.00000000000E+00 -0.00000000000E+00 -0.14143545018E+03  0.14143545026E+03  0.46700000000E-02 0.  1.
         23    2    1    2    0    0  0.00000000000E+00  0.00000000000E+00 -0.12666328537E+03  0.15620761582E+03  0.91417894199E+02 0.  0.
        -11    1    3    3    0    0 -0.67788997818E+01  0.44469944130E+02 -0.49473253692E+02  0.66866525589E+02  0.51100000000E-03 0.  1.
         11    1    3    3    0    0  0.67788997818E+01 -0.44469944130E+02 -0.77190031675E+02  0.89341090229E+02  0.51100000000E-03 0. -1.
<mgrwt>
<rscale>  0 0.91417894E+02</rscale>
<asrwt>0</asrwt>
<pdfrwt beam="1">  1        1 0.22726409E-02 0.91417894E+02</pdfrwt>
<pdfrwt beam="2">  1       -1 0.21759299E-01 0.91417894E+02</pdfrwt>
<totfact> 0.75288193E+04</totfact>
</mgrwt>
</event>
<event>
 5   1  0.1357339E+00  0.9120009E+02  0.7818608E-02  0.1299971E+00
         -1   -1    0    0    0  501 -0.00000000000E+00  0.00000000000E+00  0.15493624845E+02  0.15493625549E+02  0.46700000000E-02 0.  1.
          1   -1    0    0  501    0  0.00000000000E+00 -0.00000000000E+00 -0.13420770462E+03  0.13420770470E+03  0.46700000000E-02 0. -1.
         23    2    1    2    0    0  0.00000000000E+00  0.00000000000E+00 -0.11871407978E+03  0.14970133025E+03  0.91200085208E+02 0.  0.
        -11    1    3    3    0    0  0.33403996099E+02 -0.23587414644E+02 -0.26234873982E+02  0.48584582927E+02  0.51100000000E-03 0.  1.
         11    1    3    3    0    0 -0.33403996099E+02  0.23587414644E+02 -0.92479205796E+02  0.10111674733E+03  0.51100000000E-03 0. -1.
<mgrwt>
<rscale>  0 0.91200085E+02</rscale>
<asrwt>0</asrwt>
<pdfrwt beam="2">  1        1 0.20647338E-01 0.91200085E+02</pdfrwt>
<pdfrwt beam="1">  1       -1 0.23836347E-02 0.91200085E+02</pdfrwt>
<totfact> 0.10981458E+05</totfact>
</mgrwt>
</event>
<event>
 5   1  0.1357339E+00  0.8912669E+02  0.7818608E-02  0.1304980E+00
          1   -1    0    0  501    0  0.00000000000E+00  0.00000000000E+00  0.21448814649E+02  0.21448815157E+02  0.46700000000E-02 0. -1.
         -1   -1    0    0    0  501 -0.00000000000E+00 -0.00000000000E+00 -0.92587474472E+02  0.92587474589E+02  0.46700000000E-02 0.  1.
         23    2    1    2    0    0  0.00000000000E+00  0.00000000000E+00 -0.71138659823E+02  0.11403628975E+03  0.89126687685E+02 0.  0.
        -11    1    3    3    0    0 -0.12655927266E+02 -0.24438159879E+02 -0.80415162383E+02  0.84994085057E+02  0.51100000000E-03 0.  1.
         11    1    3    3    0    0  0.12655927266E+02  0.24438159879E+02  0.92765025605E+01  0.29042204690E+02  0.51100000000E-03 0. -1.
<mgrwt>
<rscale>  0 0.89126688E+02</rscale>
<asrwt>0</asrwt>
<pdfrwt beam="1">  1        1 0.32998177E-02 0.89126688E+02</pdfrwt>
<pdfrwt beam="2">  1       -1 0.14244227E-01 0.89126688E+02</pdfrwt>
<totfact> 0.87484899E+04</totfact>
</mgrwt>
</event>
<event>
 5   1  0.1357339E+00  0.8737056E+02  0.7818608E-02  0.1309347E+00
          1   -1    0    0  501    0  0.00000000000E+00  0.00000000000E+00  0.15026755569E+03  0.15026755576E+03  0.46700000000E-02 0. -1.
         -1   -1    0    0    0  501 -0.00000000000E+00 -0.00000000000E+00 -0.12700038744E+02  0.12700039603E+02  0.46700000000E-02 0.  1.
         23    2    1    2    0    0  0.00000000000E+00  0.00000000000E+00  0.13756751695E+03  0.16296759537E+03  0.87370563811E+02 0.  0.
        -11    1    3    3    0    0 -0.21759723789E+02  0.23072521952E+02  0.12482119396E+03  0.12878725601E+03  0.51100000000E-03 0. -1.
         11    1    3    3    0    0  0.21759723789E+02 -0.23072521952E+02  0.12746322986E+02  0.34180339356E+02  0.51100000000E-03 0.  1.
<mgrwt>
<rscale>  0 0.87370564E+02</rscale>
<asrwt>0</asrwt>
<pdfrwt beam="1">  1        1 0.23118086E-01 0.87370564E+02</pdfrwt>
<pdfrwt beam="2">  1       -1 0.19538522E-02 0.87370564E+02</pdfrwt>
<totfact> 0.12579734E+05</totfact>
</mgrwt>
</event>
<event>
 5   1  0.1357339E+00  0.9032395E+02  0.7818608E-02  0.1302069E+00
          1   -1    0    0  501    0  0.00000000000E+00  0.00000000000E+00  0.15857008010E+03  0.15857008017E+03  0.46700000000E-02 0. -1.
         -1   -1    0    0    0  501 -0.00000000000E+00 -0.00000000000E+00 -0.12862477483E+02  0.12862478331E+02  0.46700000000E-02 0.  1.
         23    2    1    2    0    0  0.00000000000E+00  0.00000000000E+00  0.14570760262E+03  0.17143255850E+03  0.90323953929E+02 0.  0.
        -11    1    3    3    0    0  0.38534073602E+02  0.19449802738E+01  0.11740352714E+03  0.12358092879E+03  0.51100000000E-03 0. -1.
         11    1    3    3    0    0 -0.38534073602E+02 -0.19449802738E+01  0.28304075478E+02  0.47851629706E+02  0.51100000000E-03 0.  1.
<mgrwt>
<rscale>  0 0.90323954E+02</rscale>
<asrwt>0</asrwt>
<pdfrwt beam="1">  1        1 0.24395397E-01 0.90323954E+02</pdfrwt>
<pdfrwt beam="2">  1       -1 0.19788428E-02 0.90323954E+02</pdfrwt>
<totfact> 0.11619271E+05</totfact>
</mgrwt>
</event>
<event>
 5   1  0.1357339E+00  0.9060595E+02  0.7818608E-02  0.1301391E+00
          1   -1    0    0  501    0  0.00000000000E+00  0.00000000000E+00  0.65714010356E+01  0.65714026950E+01  0.46700000000E-02 0. -1.
         -1   -1    0    0    0  501 -0.00000000000E+00 -0.00000000000E+00 -0.31231682538E+03  0.31231682541E+03  0.46700000000E-02 0.  1.
         23    2    1    2    0    0  0.00000000000E+00  0.00000000000E+00 -0.30574542434E+03  0.31888822811E+03  0.90605946381E+02 0.  0.
        -11    1    3    3    0    0  0.28291003718E+02  0.34190361969E+02 -0.18493648697E+03  0.19018639792E+03  0.51100000000E-03 0.  1.
         11    1    3    3    0    0 -0.28291003718E+02 -0.34190361969E+02 -0.12080893737E+03  0.12870183018E+03  0.51100000000E-03 0. -1.
<mgrwt>
<rscale>  0 0.90605946E+02</rscale>
<asrwt>0</asrwt>
<pdfrwt beam="1">  1        1 0.10109851E-02 0.90605946E+02</pdfrwt>
<pdfrwt beam="2">  1       -1 0.48048731E-01 0.90605946E+02</pdfrwt>
<totfact> 0.60605495E+04</totfact>
</mgrwt>
</event>
<event>
 5   1  0.1357339E+00  0.9178675E+02  0.7818608E-02  0.1298582E+00
          1   -1    0    0  501    0  0.00000000000E+00  0.00000000000E+00  0.48718504382E+03  0.48718504384E+03  0.46700000000E-02 0. -1.
         -1   -1    0    0    0  501 -0.00000000000E+00 -0.00000000000E+00 -0.43232056335E+01  0.43232081558E+01  0.46700000000E-02 0.  1.
         23    2    1    2    0    0  0.00000000000E+00  0.00000000000E+00  0.48286183819E+03  0.49150825200E+03  0.91786747439E+02 0.  0.
        -11    1    3    3    0    0 -0.38977199982E+02 -0.23503475489E+02  0.27291399154E+03  0.27668336101E+03  0.51100000000E-03 0.  1.
         11    1    3    3    0    0  0.38977199982E+02  0.23503475489E+02  0.20994784664E+03  0.21482489099E+03  0.51100000000E-03 0. -1.
<mgrwt>
<rscale>  0 0.91786747E+02</rscale>
<asrwt>0</asrwt>
<pdfrwt beam="1">  1        1 0.74951545E-01 0.91786747E+02</pdfrwt>
<pdfrwt beam="2">  1       -1 0.66510876E-03 0.91786747E+02</pdfrwt>
<totfact> 0.13639346E+05</totfact>
</mgrwt>
</event>
<event>
 5   1  0.1357339E+00  0.9336288E+02  0.7818608E-02  0.1294906E+00
          1   -1    0    0  501    0  0.00000000000E+00  0.00000000000E+00  0.27815349338E+03  0.27815349341E+03  0.46700000000E-02 0. -1.
         -1   -1    0    0    0  501 -0.00000000000E+00 -0.00000000000E+00 -0.78343666670E+01  0.78343680589E+01  0.46700000000E-02 0.  1.
         23    2    1    2    0    0  0.00000000000E+00  0.00000000000E+00  0.27031912671E+03  0.28598786147E+03  0.93362876165E+02 0.  0.
        -11    1    3    3    0    0  0.46125014751E+02  0.48845290841E+01  0.15130492265E+03  0.15825471629E+03  0.51100000000E-03 0. -1.
         11    1    3    3    0    0 -0.46125014751E+02 -0.48845290841E+01  0.11901420406E+03  0.12773314518E+03  0.51100000000E-03 0.  1.
<mgrwt>
<rscale>  0 0.93362876E+02</rscale>
<asrwt>0</asrwt>
<pdfrwt beam="1">  1        1 0.42792843E-01 0.93362876E+02</pdfrwt>
<pdfrwt beam="2">  1       -1 0.12052874E-02 0.93362876E+02</pdfrwt>
<totfact> 0.11852414E+05</totfact>
</mgrwt>
</event>
<event>
 5   1  0.1357339E+00  0.8803364E+02  0.7818608E-02  0.1307685E+00
         -1   -1    0    0    0  501 -0.00000000000E+00  0.00000000000E+00  0.22203527699E+02  0.22203528190E+02  0.46700000000E-02 0.  1.
          1   -1    0    0  501    0  0.00000000000E+00 -0.00000000000E+00 -0.87260024966E+02  0.87260025091E+02  0.46700000000E-02 0. -1.
         23    2    1    2    0    0  0.00000000000E+00  0.00000000000E+00 -0.65056497268E+02  0.10946355328E+03  0.88033639367E+02 0.  0.
        -11    1    3    3    0    0 -0.22504839733E+01  0.26918343231E+02 -0.75741976255E+02  0.80414605935E+02  0.51100000000E-03 0. -1.
         11    1    3    3    0    0  0.22504839733E+01 -0.26918343231E+02  0.10685478988E+02  0.29048947346E+02  0.51100000000E-03 0.  1.
<mgrwt>
<rscale>  0 0.88033639E+02</rscale>
<asrwt>0</asrwt>
<pdfrwt beam="2">  1        1 0.13424619E-01 0.88033639E+02</pdfrwt>
<pdfrwt beam="1">  1       -1 0.34159274E-02 0.88033639E+02</pdfrwt>
<totfact> 0.11240987E+05</totfact>
</mgrwt>
</event>
<event>
 5   1  0.1357339E+00  0.9585655E+02  0.7818608E-02  0.1289258E+00
          1   -1    0    0  501    0  0.00000000000E+00  0.00000000000E+00  0.24043429778E+02  0.24043430232E+02  0.46700000000E-02 0. -1.
         -1   -1    0    0    0  501 -0.00000000000E+00 -0.00000000000E+00 -0.95540428812E+02  0.95540428926E+02  0.46700000000E-02 0.  1.
         23    2    1    2    0    0  0.00000000000E+00  0.00000000000E+00 -0.71496999033E+02  0.11958385916E+03  0.95856551682E+02 0.  0.
        -11    1    3    3    0    0  0.24745794934E+02  0.26834895282E+02  0.29983565591E+01  0.36625894038E+02  0.51100000000E-03 0. -1.
         11    1    3    3    0    0 -0.24745794934E+02 -0.26834895282E+02 -0.74495355592E+02  0.82957965120E+02  0.51100000000E-03 0.  1.
<mgrwt>
<rscale>  0 0.95856552E+02</rscale>
<asrwt>0</asrwt>
<pdfrwt beam="1">  1        1 0.36989893E-02 0.95856552E+02</pdfrwt>
<pdfrwt beam="2">  1       -1 0.14698527E-01 0.95856552E+02</pdfrwt>
<totfact> 0.72129264E+04</totfact>
</mgrwt>
</event>
<event>
 5   1  0.1357339E+00  0.8946624E+02  0.7818608E-02  0.1304149E+00
          1   -1    0    0  501    0  0.00000000000E+00  0.00000000000E+00  0.45260980353E+02  0.45260980594E+02  0.46700000000E-02 0. -1.
         -1   -1    0    0    0  501 -0.00000000000E+00 -0.00000000000E+00 -0.44211415202E+02  0.44211415449E+02  0.46700000000E-02 0.  1.
         23    2    1    2    0    0  0.00000000000E+00  0.00000000000E+00  0.10495651510E+01  0.89472396043E+02  0.89466239815E+02 0.  0.
        -11    1    3    3    0    0 -0.28219891987E+02 -0.25377067131E+02  0.24205393686E+02  0.45013985868E+02  0.51100000000E-03 0. -1.
         11    1    3    3    0    0  0.28219891987E+02  0.25377067131E+02 -0.23155828535E+02  0.44458410176E+02  0.51100000000E-03 0.  1.
<mgrwt>
<rscale>  0 0.89466240E+02</rscale>
<asrwt>0</asrwt>
<pdfrwt beam="1">  1        1 0.69632278E-02 0.89466240E+02</pdfrwt>
<pdfrwt beam="2">  1       -1 0.68017562E-02 0.89466240E+02</pdfrwt>
<totfact> 0.97405060E+04</totfact>
</mgrwt>
</event>
<event>
 5   1  0.1357339E+00  0.9095443E+02  0.7818608E-02  0.1300557E+00
          1   -1    0    0  501    0  0.00000000000E+00  0.00000000000E+00  0.22254909684E+02  0.22254910173E+02  0.46700000000E-02 0. -1.
         -1   -1    0    0    0  501 -0.00000000000E+00 -0.00000000000E+00 -0.92931278742E+02  0.92931278859E+02  0.46700000000E-02 0.  1.
         23    2    1    2    0    0  0.00000000000E+00  0.00000000000E+00 -0.70676369059E+02  0.11518618903E+03  0.90954433650E+02 0.  0.
        -11    1    3    3    0    0 -0.18409791887E+02 -0.36889502761E+02 -0.11030199555E+02  0.42678110944E+02  0.51100000000E-03 0. -1.
         11    1    3    3    0    0  0.18409791887E+02  0.36889502761E+02 -0.59646169504E+02  0.72508078088E+02  0.51100000000E-03 0.  1.
<mgrwt>
<rscale>  0 0.90954434E+02</rscale>
<asrwt>0</asrwt>
<pdfrwt beam="1">  1        1 0.34238324E-02 0.90954434E+02</pdfrwt>
<pdfrwt beam="2">  1       -1 0.14297120E-01 0.90954434E+02</pdfrwt>
<totfact> 0.82988185E+04</totfact>
</mgrwt>
</event>
<event>
 5   1  0.1357339E+00  0.9273110E+02  0.7818608E-02  0.1296370E+00
         -1   -1    0    0    0  501 -0.00000000000E+00  0.00000000000E+00  0.61324945268E+01  0.61324963049E+01  0.46700000000E-02 0.  1.
          1   -1    0    0  501    0  0.00000000000E+00 -0.00000000000E+00 -0.35055294470E+03  0.35055294474E+03  0.46700000000E-02 0. -1.
         23    2    1    2    0    0  0.00000000000E+00  0.00000000000E+00 -0.34442045018E+03  0.35668544104E+03  0.92731102386E+02 0.  0.
        -11    1    3    3    0    0 -0.32791935384E+02  0.32776380207E+02 -0.17066104921E+03  0.17684681463E+03  0.51100000000E-03 0.  1.
         11    1    3    3    0    0  0.32791935384E+02 -0.32776380207E+02 -0.17375940096E+03  0.17983862641E+03  0.51100000000E-03 0. -1.
<mgrwt>
<rscale>  0 0.92731102E+02</rscale>
<asrwt>0</asrwt>
<pdfrwt beam="2">  1        1 0.53931206E-01 0.92731102E+02</pdfrwt>
<pdfrwt beam="1">  1       -1 0.94346111E-03 0.92731102E+02</pdfrwt>
<totfact> 0.12606578E+05</totfact>
</mgrwt>
</event>
<event>
 5   1  0.1357339E+00  0.9118295E+02  0.7818608E-02  0.1300012E+00
          1   -1    0    0  501    0  0.00000000000E+00  0.00000000000E+00  0.25554627368E+02  0.25554627795E+02  0.46700000000E-02 0. -1.
         -1   -1    0    0    0  501 -0.00000000000E+00 -0.00000000000E+00 -0.81338794455E+02  0.81338794589E+02  0.46700000000E-02 0.  1.
         23    2    1    2    0    0  0.00000000000E+00  0.00000000000E+00 -0.55784167086E+02  0.10689342238E+03  0.91182950443E+02 0.  0.
        -11    1    3    3    0    0 -0.12179197697E+02 -0.13263985969E+02 -0.76993193189E+02  0.79070967984E+02  0.51100000000E-03 0.  1.
         11    1    3    3    0    0  0.12179197697E+02  0.13263985969E+02  0.21209026102E+02  0.27822454399E+02  0.51100000000E-03 0. -1.
<mgrwt>
<rscale>  0 0.91182950E+02</rscale>
<asrwt>0</asrwt>
<pdfrwt beam="1">  1        1 0.39314812E-02 0.91182950E+02</pdfrwt>
<pdfrwt beam="2">  1       -1 0.12513661E-01 0.91182950E+02</pdfrwt>
<totfact> 0.84398181E+04</totfact>
</mgrwt>
</event>
<event>
 5   1  0.1357339E+00  0.9033493E+02  0.7818608E-02  0.1302043E+00
          1   -1    0    0  501    0  0.00000000000E+00  0.00000000000E+00  0.43550145950E+02  0.43550146200E+02  0.46700000000E-02 0. -1.
         -1   -1    0    0    0  501 -0.00000000000E+00 -0.00000000000E+00 -0.46844846375E+02  0.46844846608E+02  0.46700000000E-02 0.  1.
         23    2    1    2    0    0  0.00000000000E+00  0.00000000000E+00 -0.32947004251E+01  0.90394992808E+02  0.90334930530E+02 0.  0.
        -11    1    3    3    0    0 -0.25572954799E+02 -0.99929078910E+01 -0.37535742448E+02  0.46505550063E+02  0.51100000000E-03 0.  1.
         11    1    3    3    0    0  0.25572954799E+02  0.99929078910E+01  0.34241042023E+02  0.43889442744E+02  0.51100000000E-03 0. -1.
<mgrwt>
<rscale>  0 0.90334931E+02</rscale>
<asrwt>0</asrwt>
<pdfrwt beam="1">  1        1 0.67000225E-02 0.90334931E+02</pdfrwt>
<pdfrwt beam="2">  1       -1 0.72068995E-02 0.90334931E+02</pdfrwt>
<totfact> 0.94262232E+04</totfact>
</mgrwt>
</event>
<event>
 5   1  0.1357339E+00  0.5465836E+02  0.7818608E-02  0.1421721E+00
          1   -1    0    0  501    0  0.00000000000E+00  0.00000000000E+00  0.54367058431E+01  0.54367078488E+01  0.46700000000E-02 0. -1.
         -1   -1    0    0    0  501 -0.00000000000E+00 -0.00000000000E+00 -0.13737804570E+03  0.13737804578E+03  0.46700000000E-02 0.  1.
         23    2    1    2    0    0  0.00000000000E+00  0.00000000000E+00 -0.13194133986E+03  0.14281475363E+03  0.54658363410E+02 0.  0.
        -11    1    3    3    0    0  0.26331921267E+02  0.28112041744E+01 -0.48324424155E+02  0.55104654220E+02  0.51100000000E-03 0. -1.
         11    1    3    3    0    0 -0.26331921267E+02 -0.28112041744E+01 -0.83616915703E+02  0.87710099410E+02  0.51100000000E-03 0.  1.
<mgrwt>
<rscale>  0 0.54658363E+02</rscale>
<asrwt>0</asrwt>
<pdfrwt beam="1">  1        1 0.83641654E-03 0.54658363E+02</pdfrwt>
<pdfrwt beam="2">  1       -1 0.21135082E-01 0.54658363E+02</pdfrwt>
<totfact> 0.28114264E+05</totfact>
</mgrwt>
</event>
<event>
 5   1  0.1357339E+00  0.9039527E+02  0.7818608E-02  0.1301897E+00
          1   -1    0    0  501    0  0.00000000000E+00  0.00000000000E+00  0.12282404365E+03  0.12282404374E+03  0.46700000000E-02 0. -1.
         -1   -1    0    0    0  501 -0.00000000000E+00 -0.00000000000E+00 -0.16632137125E+02  0.16632137781E+02  0.46700000000E-02 0.  1.
         23    2    1    2    0    0  0.00000000000E+00  0.00000000000E+00  0.10619190653E+03  0.13945618152E+03  0.90395273951E+02 0.  0.
        -11    1    3    3    0    0  0.70758042013E+01 -0.40711800626E+02  0.24846214412E+02  0.48216719986E+02  0.51100000000E-03 0.  1.
         11    1    3    3    0    0 -0.70758042013E+01  0.40711800626E+02  0.81345692115E+02  0.91239461535E+02  0.51100000000E-03 0. -1.
<mgrwt>
<rscale>  0 0.90395274E+02</rscale>
<asrwt>0</asrwt>
<pdfrwt beam="1">  1        1 0.18896006E-01 0.90395274E+02</pdfrwt>
<pdfrwt beam="2">  1       -1 0.25587905E-02 0.90395274E+02</pdfrwt>
<totfact> 0.11072796E+05</totfact>
</mgrwt>
</event>
<event>
 5   1  0.1357339E+00  0.8201993E+02  0.7818608E-02  0.1323415E+00
         -1   -1    0    0    0  501 -0.00000000000E+00  0.00000000000E+00  0.12246467432E+03  0.12246467441E+03  0.46700000000E-02 0.  1.
          1   -1    0    0  501    0  0.00000000000E+00 -0.00000000000E+00 -0.13733079555E+02  0.13733080349E+02  0.46700000000E-02 0. -1.
         23    2    1    2    0    0  0.00000000000E+00  0.00000000000E+00  0.10873159477E+03  0.13619775476E+03  0.82019928682E+02 0.  0.
        -11    1    3    3    0    0  0.34100440017E+02  0.12896019503E+02  0.85550005874E+02  0.92994359149E+02  0.51100000000E-03 0.  1.
         11    1    3    3    0    0 -0.34100440017E+02 -0.12896019503E+02  0.23181588892E+02  0.43203395609E+02  0.51100000000E-03 0. -1.
<mgrwt>
<rscale>  0 0.82019929E+02</rscale>
<asrwt>0</asrwt>
<pdfrwt beam="2">  1        1 0.21127815E-02 0.82019929E+02</pdfrwt>
<pdfrwt beam="1">  1       -1 0.18840720E-01 0.82019929E+02</pdfrwt>
<totfact> 0.10274080E+05</totfact>
</mgrwt>
</event>
<event>
 5   1  0.1357339E+00  0.9245732E+02  0.7818608E-02  0.1297008E+00
         -1   -1    0    0    0  501 -0.00000000000E+00  0.00000000000E+00  0.68414097312E+02  0.68414097472E+02  0.46700000000E-02 0.  1.
          1   -1    0    0  501    0  0.00000000000E+00 -0.00000000000E+00 -0.31237554659E+02  0.31237555008E+02  0.46700000000E-02 0. -1.
         23    2    1    2    0    0  0.00000000000E+00  0.00000000000E+00  0.37176542654E+02  0.99651652480E+02  0.92457322686E+02 0.  0.
        -11    1    3    3    0    0  0.29435721854E+02  0.50287194351E+00 -0.19827457771E+02  0.35494262680E+02  0.51100000000E-03 0. -1.
         11    1    3    3    0    0 -0.29435721854E+02 -0.50287194351E+00  0.57004000425E+02  0.64157389800E+02  0.51100000000E-03 0.  1.
<mgrwt>
<rscale>  0 0.92457323E+02</rscale>
<asrwt>0</asrwt>
<pdfrwt beam="2">  1        1 0.48057777E-02 0.92457323E+02</pdfrwt>
<pdfrwt beam="1">  1       -1 0.10525246E-01 0.92457323E+02</pdfrwt>
<totfact> 0.83824618E+04</totfact>
</mgrwt>
</event>
<event>
 5   1  0.1357339E+00  0.9203047E+02  0.7818608E-02  0.1298008E+00
         -1   -1    0    0    0  501 -0.00000000000E+00  0.00000000000E+00  0.30924617825E+02  0.30924618177E+02  0.46700000000E-02 0.  1.
          1   -1    0    0  501    0  0.00000000000E+00 -0.00000000000E+00 -0.68469781033E+02  0.68469781192E+02  0.46700000000E-02 0. -1.
         23    2    1    2    0    0  0.00000000000E+00  0.00000000000E+00 -0.37545163208E+02  0.99394399370E+02  0.92030469659E+02 0.  0.
        -11    1    3    3    0    0 -0.50465359728E+01 -0.26557704774E+02  0.21444394846E+02  0.34505670241E+02  0.51100000000E-03 0.  1.
         11    1    3    3    0    0  0.50465359728E+01  0.26557704774E+02 -0.58989558054E+02  0.64888729129E+02  0.51100000000E-03 0. -1.
<mgrwt>
<rscale>  0 0.92030470E+02</rscale>
<asrwt>0</asrwt>
<pdfrwt beam="2">  1        1 0.10533812E-01 0.92030470E+02</pdfrwt>
<pdfrwt beam="1">  1       -1 0.47576336E-02 0.92030470E+02</pdfrwt>
<totfact> 0.95830547E+04</totfact>
</mgrwt>
</event>
<event>
 5   1  0.1357339E+00  0.8856892E+02  0.7818608E-02  0.1306355E+00
          1   -1    0    0  501    0  0.00000000000E+00  0.00000000000E+00  0.29691748417E+03  0.29691748421E+03  0.46700000000E-02 0. -1.
         -1   -1    0    0    0  501 -0.00000000000E+00 -0.00000000000E+00 -0.66049088924E+01  0.66049105434E+01  0.46700000000E-02 0.  1.
         23    2    1    2    0    0  0.00000000000E+00  0.00000000000E+00  0.29031257528E+03  0.30352239475E+03  0.88568915262E+02 0.  0.
        -11    1    3    3    0    0 -0.43163736479E+02  0.78820010339E+00  0.17897466228E+03  0.18410773788E+03  0.51100000000E-03 0.  1.
         11    1    3    3    0    0  0.43163736479E+02 -0.78820010339E+00  0.11133791300E+03  0.11941465688E+03  0.51100000000E-03 0. -1.
<mgrwt>
<rscale>  0 0.88568915E+02</rscale>
<asrwt>0</asrwt>
<pdfrwt beam="1">  1        1 0.45679618E-01 0.88568915E+02</pdfrwt>
<pdfrwt beam="2">  1       -1 0.10161399E-02 0.88568915E+02</pdfrwt>
<totfact> 0.13812908E+05</totfact>
</mgrwt>
</event>
<event>
 5   1  0.1357339E+00  0.9256511E+02  0.7818608E-02  0.1296756E+00
          1   -1    0    0  501    0  0.00000000000E+00  0.00000000000E+00  0.60760085128E+02  0.60760085308E+02  0.46700000000E-02 0. -1.
         -1   -1    0    0    0  501 -0.00000000000E+00 -0.00000000000E+00 -0.35254641404E+02  0.35254641713E+02  0.46700000000E-02 0.  1.
         23    2    1    2    0    0  0.00000000000E+00  0.00000000000E+00  0.25505443724E+02  0.96014727021E+02  0.92565113004E+02 0.  0.
        -11    1    3    3    0    0  0.48230784898E+01  0.23716065411E+02 -0.28168228590E+02  0.37137083177E+02  0.51100000000E-03 0.  1.
         11    1    3    3    0    0 -0.48230784898E+01 -0.23716065411E+02  0.53673672315E+02  0.58877643844E+02  0.51100000000E-03 0. -1.
<mgrwt>
<rscale>  0 0.92565113E+02</rscale>
<asrwt>0</asrwt>
<pdfrwt beam="1">  1        1 0.93477053E-02 0.92565113E+02</pdfrwt>
<pdfrwt beam="2">  1       -1 0.54237911E-02 0.92565113E+02</pdfrwt>
<totfact> 0.92585380E+04</totfact>
</mgrwt>
</event>
<event>
 5   1  0.1357339E+00  0.9331382E+02  0.7818608E-02  0.1295020E+00
         -1   -1    0    0    0  501 -0.00000000000E+00  0.00000000000E+00  0.11475134197E+02  0.11475135148E+02  0.46700000000E-02 0.  1.
          1   -1    0    0  501    0  0.00000000000E+00 -0.00000000000E+00 -0.18970299138E+03  0.18970299144E+03  0.46700000000E-02 0. -1.
         23    2    1    2    0    0  0.00000000000E+00  0.00000000000E+00 -0.17822785719E+03  0.20117812659E+03  0.93313822880E+02 0.  0.
        -11    1    3    3    0    0 -0.25867605288E+02  0.36662716279E+02 -0.11668790316E+03  0.12501741683E+03  0.51100000000E-03 0. -1.
         11    1    3    3    0    0  0.25867605288E+02 -0.36662716279E+02 -0.61539954031E+02  0.76160709757E+02  0.51100000000E-03 0.  1.
<mgrwt>
<rscale>  0 0.93313823E+02</rscale>
<asrwt>0</asrwt>
<pdfrwt beam="2">  1        1 0.29185073E-01 0.93313823E+02</pdfrwt>
<pdfrwt beam="1">  1       -1 0.17654055E-02 0.93313823E+02</pdfrwt>
<totfact> 0.11012092E+05</totfact>
</mgrwt>
</event>
<event>
 5   1  0.1357339E+00  0.9310901E+02  0.7818608E-02  0.1295493E+00
         -1   -1    0    0    0  501 -0.00000000000E+00  0.00000000000E+00  0.11183228982E+03  0.11183228992E+03  0.46700000000E-02 0.  1.
          1   -1    0    0  501    0  0.00000000000E+00 -0.00000000000E+00 -0.19380109197E+02  0.19380109760E+02  0.46700000000E-02 0. -1.
         23    2    1    2    0    0  0.00000000000E+00  0.00000000000E+00  0.92452180625E+02  0.13121239968E+03  0.93109012062E+02 0.  0.
        -11    1    3    3    0    0  0.13205301255E+02  0.18260051234E+02  0.10363422474E+03  0.10605593802E+03  0.51100000000E-03 0.  1.
         11    1    3    3    0    0 -0.13205301255E+02 -0.18260051234E+02 -0.11182044113E+02  0.25156461657E+02  0.51100000000E-03 0. -1.
<mgrwt>
<rscale>  0 0.93109012E+02</rscale>
<asrwt>0</asrwt>
<pdfrwt beam="2">  1        1 0.29815553E-02 0.93109012E+02</pdfrwt>
<pdfrwt beam="1">  1       -1 0.17204968E-01 0.93109012E+02</pdfrwt>
<totfact> 0.75446429E+04</totfact>
</mgrwt>
</event>
<event>
 5   1  0.1357339E+00  0.9085149E+02  0.7818608E-02  0.1300803E+00
         -1   -1    0    0    0  501 -0.00000000000E+00  0.00000000000E+00  0.14866163666E+02  0.14866164399E+02  0.46700000000E-02 0.  1.
          1   -1    0    0  501    0  0.00000000000E+00 -0.00000000000E+00 -0.13880503022E+03  0.13880503030E+03  0.46700000000E-02 0. -1.
         23    2    1    2    0    0  0.00000000000E+00  0.00000000000E+00 -0.12393886656E+03  0.15367119470E+03  0.90851491111E+02 0.  0.
        -11    1    3    3    0    0  0.15658531237E+02 -0.41584121774E+02 -0.77932822312E+02  0.89710387235E+02  0.51100000000E-03 0. -1.
         11    1    3    3    0    0 -0.15658531237E+02  0.41584121774E+02 -0.46006044244E+02  0.63960807463E+02  0.51100000000E-03 0.  1.
<mgrwt>
<rscale>  0 0.90851491E+02</rscale>
<asrwt>0</asrwt>
<pdfrwt beam="2">  1        1 0.21354619E-01 0.90851491E+02</pdfrwt>
<pdfrwt beam="1">  1       -1 0.22871023E-02 0.90851491E+02</pdfrwt>
<totfact> 0.11163141E+05</totfact>
</mgrwt>
</event>
<event>
 5   1  0.1357339E+00  0.9047760E+02  0.7818608E-02  0.1301699E+00
         -1   -1    0    0    0  501 -0.00000000000E+00  0.00000000000E+00  0.19873428199E+02  0.19873428747E+02  0.46700000000E-02 0.  1.
          1   -1    0    0  501    0  0.00000000000E+00 -0.00000000000E+00 -0.10297916148E+03  0.10297916158E+03  0.46700000000E-02 0. -1.
         23    2    1    2    0    0  0.00000000000E+00  0.00000000000E+00 -0.83105733279E+02  0.12285259033E+03  0.90477599698E+02 0.  0.
        -11    1    3    3    0    0 -0.17851898140E+02  0.24721067588E+02  0.38221570592E+01  0.30731585295E+02  0.51100000000E-03 0.  1.
         11    1    3    3    0    0  0.17851898140E+02 -0.24721067588E+02 -0.86927890338E+02  0.92121005036E+02  0.51100000000E-03 0. -1.
<mgrwt>
<rscale>  0 0.90477600E+02</rscale>
<asrwt>0</asrwt>
<pdfrwt beam="2">  1        1 0.15842948E-01 0.90477600E+02</pdfrwt>
<pdfrwt beam="1">  1       -1 0.30574506E-02 0.90477600E+02</pdfrwt>
<totfact> 0.10718651E+05</totfact>
</mgrwt>
</event>
<event>
 5   1  0.1357339E+00  0.9097964E+02  0.7818608E-02  0.1300497E+00
         -1   -1    0    0    0  501 -0.00000000000E+00  0.00000000000E+00  0.12309998581E+03  0.12309998590E+03  0.46700000000E-02 0.  1.
          1   -1    0    0  501    0  0.00000000000E+00 -0.00000000000E+00 -0.16810103124E+02  0.16810103773E+02  0.46700000000E-02 0. -1.
         23    2    1    2    0    0  0.00000000000E+00  0.00000000000E+00  0.10628988268E+03  0.13991008967E+03  0.90979635250E+02 0.  0.
        -11    1    3    3    0    0 -0.36013762680E+02 -0.82800239187E+01  0.12348589177E+02  0.38962001404E+02  0.51100000000E-03 0. -1.
         11    1    3    3    0    0  0.36013762680E+02  0.82800239187E+01  0.93941293506E+02  0.10094808826E+03  0.51100000000E-03 0.  1.
<mgrwt>
<rscale>  0 0.90979635E+02</rscale>
<asrwt>0</asrwt>
<pdfrwt beam="2">  1        1 0.25861697E-02 0.90979635E+02</pdfrwt>
<pdfrwt beam="1">  1       -1 0.18938460E-01 0.90979635E+02</pdfrwt>
<totfact> 0.78557875E+04</totfact>
</mgrwt>
</event>
<event>
 5   1  0.1357339E+00  0.8495529E+02  0.7818608E-02  0.1315550E+00
          1   -1    0    0  501    0  0.00000000000E+00  0.00000000000E+00  0.12050852222E+03  0.12050852231E+03  0.46700000000E-02 0. -1.
         -1   -1    0    0    0  501 -0.00000000000E+00 -0.00000000000E+00 -0.14972800896E+02  0.14972801625E+02  0.46700000000E-02 0.  1.
         23    2    1    2    0    0  0.00000000000E+00  0.00000000000E+00  0.10553572133E+03  0.13548132394E+03  0.84955286240E+02 0.  0.
        -11    1    3    3    0    0  0.34056553615E+02 -0.12594574203E+00  0.93252995105E+02  0.99277317665E+02  0.51100000000E-03 0. -1.
         11    1    3    3    0    0 -0.34056553615E+02  0.12594574203E+00  0.12282726221E+02  0.36204006272E+02  0.51100000000E-03 0.  1.
<mgrwt>
<rscale>  0 0.84955286E+02</rscale>
<asrwt>0</asrwt>
<pdfrwt beam="1">  1        1 0.18539773E-01 0.84955286E+02</pdfrwt>
<pdfrwt beam="2">  1       -1 0.23035079E-02 0.84955286E+02</pdfrwt>
<totfact> 0.13047005E+05</totfact>
</mgrwt>
</event>
<event>
 5   1  0.1357339E+00  0.9682846E+02  0.7818608E-02  0.1287110E+00
          1   -1    0    0  501    0  0.00000000000E+00  0.00000000000E+00  0.17779493534E+02  0.17779494148E+02  0.46700000000E-02 0. -1.
         -1   -1    0    0    0  501 -0.00000000000E+00 -0.00000000000E+00 -0.13183375883E+03  0.13183375891E+03  0.46700000000E-02 0.  1.
         23    2    1    2    0    0  0.00000000000E+00  0.00000000000E+00 -0.11405426530E+03  0.14961325306E+03  0.96828456867E+02 0.  0.
        -11    1    3    3    0    0 -0.11828381991E+02  0.31025931220E+02 -0.25861244435E+01  0.33304760448E+02  0.51100000000E-03 0. -1.
         11    1    3    3    0    0  0.11828381991E+02 -0.31025931220E+02 -0.11146814085E+03  0.11630849261E+03  0.51100000000E-03 0.  1.
<mgrwt>
<rscale>  0 0.96828457E+02</rscale>
<asrwt>0</asrwt>
<pdfrwt beam="1">  1        1 0.27353068E-02 0.96828457E+02</pdfrwt>
<pdfrwt beam="2">  1       -1 0.20282116E-01 0.96828457E+02</pdfrwt>
<totfact> 0.65866897E+04</totfact>
</mgrwt>
</event>
<event>
 5   1  0.1357339E+00  0.9001743E+02  0.7818608E-02  0.1302809E+00
         -1   -1    0    0    0  501 -0.00000000000E+00  0.00000000000E+00  0.97801120811E+02  0.97801120923E+02  0.46700000000E-02 0.  1.
          1   -1    0    0  501    0  0.00000000000E+00 -0.00000000000E+00 -0.20713303440E+02  0.20713303966E+02  0.46700000000E-02 0. -1.
         23    2    1    2    0    0  0.00000000000E+00  0.00000000000E+00  0.77087817371E+02  0.11851442489E+03  0.90017427866E+02 0.  0.
        -11    1    3    3    0    0 -0.40572120098E+02 -0.19485481443E+02  0.38466989421E+02  0.59207180237E+02  0.51100000000E-03 0. -1.
         11    1    3    3    0    0  0.40572120098E+02  0.19485481443E+02  0.38620827950E+02  0.59307244651E+02  0.51100000000E-03 0.  1.
<mgrwt>
<rscale>  0 0.90017428E+02</rscale>
<asrwt>0</asrwt>
<pdfrwt beam="2">  1        1 0.31866622E-02 0.90017428E+02</pdfrwt>
<pdfrwt beam="1">  1       -1 0.15046326E-01 0.90017428E+02</pdfrwt>
<totfact> 0.84439287E+04</totfact>
</mgrwt>
</event>
<event>
 5   1  0.1357339E+00  0.9038876E+02  0.7818608E-02  0.1301913E+00
          1   -1    0    0  501    0  0.00000000000E+00  0.00000000000E+00  0.47907273980E+02  0.47907274208E+02  0.46700000000E-02 0. -1.
         -1   -1    0    0    0  501 -0.00000000000E+00 -0.00000000000E+00 -0.42635115768E+02  0.42635116024E+02  0.46700000000E-02 0.  1.
         23    2    1    2    0    0  0.00000000000E+00  0.00000000000E+00  0.52721582118E+01  0.90542390232E+02  0.90388764660E+02 0.  0.
        -11    1    3    3    0    0  0.38668442432E+02 -0.83954339758E+01  0.24508951991E+02  0.46544822266E+02  0.51100000000E-03 0. -1.
         11    1    3    3    0    0 -0.38668442432E+02  0.83954339758E+01 -0.19236793779E+02  0.43997567966E+02  0.51100000000E-03 0.  1.
<mgrwt>
<rscale>  0 0.90388765E+02</rscale>
<asrwt>0</asrwt>
<pdfrwt beam="1">  1        1 0.73703499E-02 0.90388765E+02</pdfrwt>
<pdfrwt beam="2">  1       -1 0.65592486E-02 0.90388765E+02</pdfrwt>
<totfact> 0.95453669E+04</totfact>
</mgrwt>
</event>
<event>
 5   1  0.1357339E+00  0.9072459E+02  0.7818608E-02  0.1301106E+00
         -1   -1    0    0    0  501 -0.00000000000E+00  0.00000000000E+00  0.15912670486E+02  0.15912671171E+02  0.46700000000E-02 0.  1.
          1   -1    0    0  501    0  0.00000000000E+00 -0.00000000000E+00 -0.12931442664E+03  0.12931442672E+03  0.46700000000E-02 0. -1.
         23    2    1    2    0    0  0.00000000000E+00  0.00000000000E+00 -0.11340175615E+03  0.14522709790E+03  0.90724592389E+02 0.  0.
        -11    1    3    3    0    0  0.11447159056E+02  0.37250672838E+02 -0.19534315155E+02  0.43591737132E+02  0.51100000000E-03 0.  1.
         11    1    3    3    0    0 -0.11447159056E+02 -0.37250672838E+02 -0.93867441000E+02  0.10163536076E+03  0.51100000000E-03 0. -1.
<mgrwt>
<rscale>  0 0.90724592E+02</rscale>
<asrwt>0</asrwt>
<pdfrwt beam="2">  1        1 0.19894527E-01 0.90724592E+02</pdfrwt>
<pdfrwt beam="1">  1       -1 0.24481033E-02 0.90724592E+02</pdfrwt>
<totfact> 0.11064294E+05</totfact>
</mgrwt>
</event>
<event>
 5   1  0.1357339E+00  0.9094510E+02  0.7818608E-02  0.1300579E+00
         -1   -1    0    0    0  501 -0.00000000000E+00  0.00000000000E+00  0.11033640124E+02  0.11033641112E+02  0.46700000000E-02 0. -1.
          1   -1    0    0  501    0  0.00000000000E+00 -0.00000000000E+00 -0.18740438425E+03  0.18740438431E+03  0.46700000000E-02 0.  1.
         23    2    1    2    0    0  0.00000000000E+00  0.00000000000E+00 -0.17637074413E+03  0.19843802542E+03  0.90945096346E+02 0.  0.
        -11    1    3    3    0    0 -0.37232952674E+01 -0.42481861126E+02 -0.53742192747E+02  0.68606083797E+02  0.51100000000E-03 0. -1.
         11    1    3    3    0    0  0.37232952674E+01  0.42481861126E+02 -0.12262855138E+03  0.12983194162E+03  0.51100000000E-03 0.  1.
<mgrwt>
<rscale>  0 0.90945096E+02</rscale>
<asrwt>0</asrwt>
<pdfrwt beam="2">  1        1 0.28831442E-01 0.90945096E+02</pdfrwt>
<pdfrwt beam="1">  1       -1 0.16974833E-02 0.90945096E+02</pdfrwt>
<totfact> 0.11772886E+05</totfact>
</mgrwt>
</event>
<event>
 5   1  0.1357339E+00  0.9278359E+02  0.7818608E-02  0.1296247E+00
          1   -1    0    0  501    0  0.00000000000E+00  0.00000000000E+00  0.21977590992E+03  0.21977590997E+03  0.46700000000E-02 0. -1.
         -1   -1    0    0    0  501 -0.00000000000E+00 -0.00000000000E+00 -0.97926956510E+01  0.97926967646E+01  0.46700000000E-02 0.  1.
         23    2    1    2    0    0  0.00000000000E+00  0.00000000000E+00  0.20998321427E+03  0.22956860673E+03  0.92783591885E+02 0.  0.
        -11    1    3    3    0    0 -0.40257395520E+02  0.23048648866E+02  0.10363500760E+03  0.11354344063E+03  0.51100000000E-03 0.  1.
         11    1    3    3    0    0  0.40257395520E+02 -0.23048648866E+02  0.10634820666E+03  0.11602516610E+03  0.51100000000E-03 0. -1.
<mgrwt>
<rscale>  0 0.92783592E+02</rscale>
<asrwt>0</asrwt>
<pdfrwt beam="1">  1        1 0.33811682E-01 0.92783592E+02</pdfrwt>
<pdfrwt beam="2">  1       -1 0.15065685E-02 0.92783592E+02</pdfrwt>
<totfact> 0.11507958E+05</totfact>
</mgrwt>
</event>
<event>
 5   1  0.1357339E+00  0.8834000E+02  0.7818608E-02  0.1306922E+00
         -1   -1    0    0    0  501 -0.00000000000E+00  0.00000000000E+00  0.73383053503E+01  0.73383068362E+01  0.46700000000E-02 0.  1.
          1   -1    0    0  501    0  0.00000000000E+00 -0.00000000000E+00 -0.26586363862E+03  0.26586363866E+03  0.46700000000E-02 0. -1.
         23    2    1    2    0    0  0.00000000000E+00  0.00000000000E+00 -0.25852533327E+03  0.27320194550E+03  0.88339997064E+02 0.  0.
        -11    1    3    3    0    0  0.30838240624E+02 -0.26221892990E+02 -0.74600768390E+02  0.84875552436E+02  0.51100000000E-03 0.  1.
         11    1    3    3    0    0 -0.30838240624E+02  0.26221892990E+02 -0.18392456488E+03  0.18832639306E+03  0.51100000000E-03 0. -1.
<mgrwt>
<rscale>  0 0.88339997E+02</rscale>
<asrwt>0</asrwt>
<pdfrwt beam="2">  1        1 0.40902091E-01 0.88339997E+02</pdfrwt>
<pdfrwt beam="1">  1       -1 0.11289704E-02 0.88339997E+02</pdfrwt>
<totfact> 0.13615641E+05</totfact>
</mgrwt>
</event>
<event>
 5   1  0.1357339E+00  0.8921133E+02  0.7818608E-02  0.1304773E+00
         -1   -1    0    0    0  501 -0.00000000000E+00  0.00000000000E+00  0.10883767492E+03  0.10883767502E+03  0.46700000000E-02 0.  1.
          1   -1    0    0  501    0  0.00000000000E+00 -0.00000000000E+00 -0.18281032769E+02  0.18281033366E+02  0.46700000000E-02 0. -1.
         23    2    1    2    0    0  0.00000000000E+00  0.00000000000E+00  0.90556642149E+02  0.12711870838E+03  0.89211325424E+02 0.  0.
        -11    1    3    3    0    0 -0.14417046036E+02  0.18154378146E+02  0.99579286756E+02  0.10224219781E+03  0.51100000000E-03 0.  1.
         11    1    3    3    0    0  0.14417046036E+02 -0.18154378146E+02 -0.90226446071E+01  0.24876510572E+02  0.51100000000E-03 0. -1.
<mgrwt>
<rscale>  0 0.89211325E+02</rscale>
<asrwt>0</asrwt>
<pdfrwt beam="2">  1        1 0.28124666E-02 0.89211325E+02</pdfrwt>
<pdfrwt beam="1">  1       -1 0.16744258E-01 0.89211325E+02</pdfrwt>
<totfact> 0.84697666E+04</totfact>
</mgrwt>
</event>
<event>
 5   1  0.1357339E+00  0.8994118E+02  0.7818608E-02  0.1302994E+00
         -1   -1    0    0    0  501 -0.00000000000E+00  0.00000000000E+00  0.16728654710E+02  0.16728655362E+02  0.46700000000E-02 0.  1.
          1   -1    0    0  501    0  0.00000000000E+00 -0.00000000000E+00 -0.12089161122E+03  0.12089161131E+03  0.46700000000E-02 0. -1.
         23    2    1    2    0    0  0.00000000000E+00  0.00000000000E+00 -0.10416295651E+03  0.13762026667E+03  0.89941182390E+02 0.  0.
        -11    1    3    3    0    0  0.20803759159E+02  0.33599399658E+02 -0.19241437102E+02  0.43953941285E+02  0.51100000000E-03 0.  1.
         11    1    3    3    0    0 -0.20803759159E+02 -0.33599399658E+02 -0.84921519407E+02  0.93666325385E+02  0.51100000000E-03 0. -1.
<mgrwt>
<rscale>  0 0.89941182E+02</rscale>
<asrwt>0</asrwt>
<pdfrwt beam="2">  1        1 0.18598709E-01 0.89941182E+02</pdfrwt>
<pdfrwt beam="1">  1       -1 0.25736393E-02 0.89941182E+02</pdfrwt>
<totfact> 0.11193738E+05</totfact>
</mgrwt>
</event>
<event>
 5   1  0.1357339E+00  0.9339387E+02  0.7818608E-02  0.1294835E+00
         -1   -1    0    0    0  501 -0.00000000000E+00  0.00000000000E+00  0.51985880661E+01  0.51985901637E+01  0.46700000000E-02 0.  1.
          1   -1    0    0  501    0  0.00000000000E+00 -0.00000000000E+00 -0.41946069748E+03  0.41946069750E+03  0.46700000000E-02 0. -1.
         23    2    1    2    0    0  0.00000000000E+00  0.00000000000E+00 -0.41426210941E+03  0.42465928767E+03  0.93393871898E+02 0.  0.
        -11    1    3    3    0    0  0.83177843721E+01 -0.44052793910E+02 -0.14771174858E+03  0.15436513485E+03  0.51100000000E-03 0.  1.
         11    1    3    3    0    0 -0.83177843721E+01  0.44052793910E+02 -0.26655036083E+03  0.27029415281E+03  0.51100000000E-03 0. -1.
<mgrwt>
<rscale>  0 0.93393872E+02</rscale>
<asrwt>0</asrwt>
<pdfrwt beam="2">  1        1 0.64532388E-01 0.93393872E+02</pdfrwt>
<pdfrwt beam="1">  1       -1 0.79978327E-03 0.93393872E+02</pdfrwt>
<totfact> 0.12751101E+05</totfact>
</mgrwt>
</event>
<event>
 5   1  0.1357339E+00  0.8168235E+02  0.7818608E-02  0.1324344E+00
         -1   -1    0    0    0  501 -0.00000000000E+00  0.00000000000E+00  0.23529819057E+03  0.23529819062E+03  0.46700000000E-02 0.  1.
          1   -1    0    0  501    0  0.00000000000E+00 -0.00000000000E+00 -0.70888823279E+01  0.70888838662E+01  0.46700000000E-02 0. -1.
         23    2    1    2    0    0  0.00000000000E+00  0.00000000000E+00  0.22820930825E+03  0.24238707449E+03  0.81682345142E+02 0.  0.
        -11    1    3    3    0    0  0.13552122579E+02  0.33874241120E+02  0.16856959404E+03  0.17247270008E+03  0.51100000000E-03 0.  1.
         11    1    3    3    0    0 -0.13552122579E+02 -0.33874241120E+02  0.59639714206E+02  0.69914374407E+02  0.51100000000E-03 0. -1.
<mgrwt>
<rscale>  0 0.81682345E+02</rscale>
<asrwt>0</asrwt>
<pdfrwt beam="2">  1        1 0.10905975E-02 0.81682345E+02</pdfrwt>
<pdfrwt beam="1">  1       -1 0.36199718E-01 0.81682345E+02</pdfrwt>
<totfact> 0.87938193E+04</totfact>
</mgrwt>
</event>
<event>
 5   1  0.1357339E+00  0.8951312E+02  0.7818608E-02  0.1304035E+00
          1   -1    0    0  501    0  0.00000000000E+00  0.00000000000E+00  0.56164843852E+02  0.56164844046E+02  0.46700000000E-02 0. -1.
         -1   -1    0    0    0  501 -0.00000000000E+00 -0.00000000000E+00 -0.35665541505E+02  0.35665541810E+02  0.46700000000E-02 0.  1.
         23    2    1    2    0    0  0.00000000000E+00  0.00000000000E+00  0.20499302348E+02  0.91830385857E+02  0.89513118424E+02 0.  0.
        -11    1    3    3    0    0  0.33006530526E+02  0.56225353438E+01  0.40718778751E+02  0.52716818040E+02  0.51100000000E-03 0. -1.
         11    1    3    3    0    0 -0.33006530526E+02 -0.56225353438E+01 -0.20219476403E+02  0.39113567817E+02  0.51100000000E-03 0.  1.
<mgrwt>
<rscale>  0 0.89513118E+02</rscale>
<asrwt>0</asrwt>
<pdfrwt beam="1">  1        1 0.86407453E-02 0.89513118E+02</pdfrwt>
<pdfrwt beam="2">  1       -1 0.54870064E-02 0.89513118E+02</pdfrwt>
<totfact> 0.10041813E+05</totfact>
</mgrwt>
</event>
<event>
 5   1  0.1357339E+00  0.9039550E+02  0.7818608E-02  0.1301897E+00
         -1   -1    0    0    0  501 -0.00000000000E+00  0.00000000000E+00  0.69156449014E+02  0.69156449172E+02  0.46700000000E-02 0.  1.
          1   -1    0    0  501    0  0.00000000000E+00 -0.00000000000E+00 -0.29539352645E+02  0.29539353014E+02  0.46700000000E-02 0. -1.
         23    2    1    2    0    0  0.00000000000E+00  0.00000000000E+00  0.39617096369E+02  0.98695802186E+02  0.90395503452E+02 0.  0.
        -11    1    3    3    0    0 -0.28695053853E+02  0.34122283445E+02  0.27913105517E+02  0.52601119789E+02  0.51100000000E-03 0. -1.
         11    1    3    3    0    0  0.28695053853E+02 -0.34122283445E+02  0.11703990852E+02  0.46094682397E+02  0.51100000000E-03 0.  1.
<mgrwt>
<rscale>  0 0.90395503E+02</rscale>
<asrwt>0</asrwt>
<pdfrwt beam="2">  1        1 0.45445159E-02 0.90395503E+02</pdfrwt>
<pdfrwt beam="1">  1       -1 0.10639454E-01 0.90395503E+02</pdfrwt>
<totfact> 0.88630077E+04</totfact>
</mgrwt>
</event>
<event>
 5   1  0.1357339E+00  0.9319694E+02  0.7818608E-02  0.1295289E+00
          1   -1    0    0  501    0  0.00000000000E+00  0.00000000000E+00  0.43869909872E+03  0.43869909874E+03  0.46700000000E-02 0. -1.
         -1   -1    0    0    0  501 -0.00000000000E+00 -0.00000000000E+00 -0.49496723857E+01  0.49496745888E+01  0.46700000000E-02 0.  1.
         23    2    1    2    0    0  0.00000000000E+00  0.00000000000E+00  0.43374942633E+03  0.44364877333E+03  0.93196937906E+02 0.  0.
        -11    1    3    3    0    0 -0.21409283398E+02 -0.40615816285E+02  0.25478306251E+03  0.25888686890E+03  0.51100000000E-03 0. -1.
         11    1    3    3    0    0  0.21409283398E+02  0.40615816285E+02  0.17896636382E+03  0.18476190443E+03  0.51100000000E-03 0.  1.
<mgrwt>
<rscale>  0 0.93196938E+02</rscale>
<asrwt>0</asrwt>
<pdfrwt beam="1">  1        1 0.67492180E-01 0.93196938E+02</pdfrwt>
<pdfrwt beam="2">  1       -1 0.76148811E-03 0.93196938E+02</pdfrwt>
<totfact> 0.12910997E+05</totfact>
</mgrwt>
</event>
<event>
 5   1  0.1357339E+00  0.9129126E+02  0.7818608E-02  0.1299755E+00
          1   -1    0    0  501    0  0.00000000000E+00  0.00000000000E+00  0.59975973182E+02  0.59975973364E+02  0.46700000000E-02 0. -1.
         -1   -1    0    0    0  501 -0.00000000000E+00 -0.00000000000E+00 -0.34739304514E+02  0.34739304828E+02  0.46700000000E-02 0.  1.
         23    2    1    2    0    0  0.00000000000E+00  0.00000000000E+00  0.25236668667E+02  0.94715278192E+02  0.91291261781E+02 0.  0.
        -11    1    3    3    0    0  0.33142432388E+02 -0.20341035239E+02  0.37417671624E+02  0.53965365646E+02  0.51100000000E-03 0. -1.
         11    1    3    3    0    0 -0.33142432388E+02  0.20341035239E+02 -0.12181002957E+02  0.40749912546E+02  0.51100000000E-03 0.  1.
<mgrwt>
<rscale>  0 0.91291262E+02</rscale>
<asrwt>0</asrwt>
<pdfrwt beam="1">  1        1 0.92270728E-02 0.91291262E+02</pdfrwt>
<pdfrwt beam="2">  1       -1 0.53445085E-02 0.91291262E+02</pdfrwt>
<totfact> 0.96030394E+04</totfact>
</mgrwt>
</event>
<event>
 5   1  0.1357339E+00  0.9206752E+02  0.7818608E-02  0.1297921E+00
          1   -1    0    0  501    0  0.00000000000E+00  0.00000000000E+00  0.19925310852E+02  0.19925311399E+02  0.46700000000E-02 0. -1.
         -1   -1    0    0    0  501 -0.00000000000E+00 -0.00000000000E+00 -0.10635250858E+03  0.10635250868E+03  0.46700000000E-02 0.  1.
         23    2    1    2    0    0  0.00000000000E+00  0.00000000000E+00 -0.86427197723E+02  0.12627782008E+03  0.92067515103E+02 0.  0.
        -11    1    3    3    0    0  0.24970751289E+02  0.34129510495E+02 -0.18269532655E+02  0.46066666151E+02  0.51100000000E-03 0. -1.
         11    1    3    3    0    0 -0.24970751289E+02 -0.34129510495E+02 -0.68157665068E+02  0.80211153927E+02  0.51100000000E-03 0.  1.
<mgrwt>
<rscale>  0 0.92067515E+02</rscale>
<asrwt>0</asrwt>
<pdfrwt beam="1">  1        1 0.30654325E-02 0.92067515E+02</pdfrwt>
<pdfrwt beam="2">  1       -1 0.16361924E-01 0.92067515E+02</pdfrwt>
<totfact> 0.78436420E+04</totfact>
</mgrwt>
</event>
<event>
 5   1  0.1357339E+00  0.9166686E+02  0.7818608E-02  0.1298865E+00
          1   -1    0    0  501    0  0.00000000000E+00  0.00000000000E+00  0.64790283697E+02  0.64790283865E+02  0.46700000000E-02 0. -1.
         -1   -1    0    0    0  501 -0.00000000000E+00 -0.00000000000E+00 -0.32423119595E+02  0.32423119932E+02  0.46700000000E-02 0.  1.
         23    2    1    2    0    0  0.00000000000E+00  0.00000000000E+00  0.32367164101E+02  0.97213403797E+02  0.91666856419E+02 0.  0.
        -11    1    3    3    0    0  0.45531903797E+02  0.52317123498E+01  0.16631090826E+02  0.48755699767E+02  0.51100000000E-03 0.  1.
         11    1    3    3    0    0 -0.45531903797E+02 -0.52317123498E+01  0.15736073276E+02  0.48457704030E+02  0.51100000000E-03 0. -1.
<mgrwt>
<rscale>  0 0.91666856E+02</rscale>
<asrwt>0</asrwt>
<pdfrwt beam="1">  1        1 0.99677359E-02 0.91666856E+02</pdfrwt>
<pdfrwt beam="2">  1       -1 0.49881723E-02 0.91666856E+02</pdfrwt>
<totfact> 0.96066085E+04</totfact>
</mgrwt>
</event>
<event>
 5   1  0.1357339E+00  0.9132163E+02  0.7818608E-02  0.1299682E+00
          1   -1    0    0  501    0  0.00000000000E+00  0.00000000000E+00  0.65537630858E+02  0.65537631024E+02  0.46700000000E-02 0. -1.
         -1   -1    0    0    0  501 -0.00000000000E+00 -0.00000000000E+00 -0.31812407780E+02  0.31812408123E+02  0.46700000000E-02 0.  1.
         23    2    1    2    0    0  0.00000000000E+00  0.00000000000E+00  0.33725223077E+02  0.97350039147E+02  0.91321626411E+02 0.  0.
        -11    1    3    3    0    0 -0.16062546922E+00 -0.44091452397E+02  0.42121367625E+01  0.44292483238E+02  0.51100000000E-03 0.  1.
         11    1    3    3    0    0  0.16062546922E+00  0.44091452397E+02  0.29513086315E+02  0.53057555909E+02  0.51100000000E-03 0. -1.
<mgrwt>
<rscale>  0 0.91321626E+02</rscale>
<asrwt>0</asrwt>
<pdfrwt beam="1">  1        1 0.10082712E-01 0.91321626E+02</pdfrwt>
<pdfrwt beam="2">  1       -1 0.48942167E-02 0.91321626E+02</pdfrwt>
<totfact> 0.97245774E+04</totfact>
</mgrwt>
</event>
<event>
 5   1  0.1357339E+00  0.9072776E+02  0.7818608E-02  0.1301099E+00
          1   -1    0    0  501    0  0.00000000000E+00  0.00000000000E+00  0.34068206525E+02  0.34068206845E+02  0.46700000000E-02 0. -1.
         -1   -1    0    0    0  501 -0.00000000000E+00 -0.00000000000E+00 -0.60404751924E+02  0.60404752104E+02  0.46700000000E-02 0.  1.
         23    2    1    2    0    0  0.00000000000E+00  0.00000000000E+00 -0.26336545399E+02  0.94472958949E+02  0.90727759529E+02 0.  0.
        -11    1    3    3    0    0  0.27194292494E+02  0.15600391580E+02 -0.47308584913E+02  0.56753889457E+02  0.51100000000E-03 0.  1.
         11    1    3    3    0    0 -0.27194292494E+02 -0.15600391580E+02  0.20972039515E+02  0.37719069493E+02  0.51100000000E-03 0. -1.
<mgrwt>
<rscale>  0 0.90727760E+02</rscale>
<asrwt>0</asrwt>
<pdfrwt beam="1">  1        1 0.52412626E-02 0.90727760E+02</pdfrwt>
<pdfrwt beam="2">  1       -1 0.92930388E-02 0.90727760E+02</pdfrwt>
<totfact> 0.89703442E+04</totfact>
</mgrwt>
</event>
<event>
 5   1  0.1357339E+00  0.9576384E+02  0.7818608E-02  0.1289465E+00
          1   -1    0    0  501    0  0.00000000000E+00  0.00000000000E+00  0.59423584046E+02  0.59423584230E+02  0.46700000000E-02 0. -1.
         -1   -1    0    0    0  501 -0.00000000000E+00 -0.00000000000E+00 -0.38581957426E+02  0.38581957709E+02  0.46700000000E-02 0.  1.
         23    2    1    2    0    0  0.00000000000E+00  0.00000000000E+00  0.20841626620E+02  0.98005541938E+02  0.95763838950E+02 0.  0.
        -11    1    3    3    0    0  0.98915938282E+01 -0.20238002009E+02  0.53662195115E+02  0.58198380894E+02  0.51100000000E-03 0. -1.
         11    1    3    3    0    0 -0.98915938282E+01  0.20238002009E+02 -0.32820568495E+02  0.39807161044E+02  0.51100000000E-03 0.  1.
<mgrwt>
<rscale>  0 0.95763839E+02</rscale>
<asrwt>0</asrwt>
<pdfrwt beam="1">  1        1 0.91420899E-02 0.95763839E+02</pdfrwt>
<pdfrwt beam="2">  1       -1 0.59356858E-02 0.95763839E+02</pdfrwt>
<totfact> 0.83925090E+04</totfact>
</mgrwt>
</event>
<event>
 5   1  0.1357339E+00  0.8897179E+02  0.7818608E-02  0.1305361E+00
          1   -1    0    0  501    0  0.00000000000E+00  0.00000000000E+00  0.75612693587E+01  0.75612708008E+01  0.46700000000E-02 0. -1.
         -1   -1    0    0    0  501 -0.00000000000E+00 -0.00000000000E+00 -0.26172783147E+03  0.26172783151E+03  0.46700000000E-02 0.  1.
         23    2    1    2    0    0  0.00000000000E+00  0.00000000000E+00 -0.25416656211E+03  0.26928910231E+03  0.88971789510E+02 0.  0.
        -11    1    3    3    0    0 -0.34035355407E+02  0.25434422258E+02 -0.16697114972E+03  0.17229242610E+03  0.51100000000E-03 0. -1.
         11    1    3    3    0    0  0.34035355407E+02 -0.25434422258E+02 -0.87195412387E+02  0.96996676206E+02  0.51100000000E-03 0.  1.
<mgrwt>
<rscale>  0 0.88971790E+02</rscale>
<asrwt>0</asrwt>
<pdfrwt beam="1">  1        1 0.11632725E-02 0.88971790E+02</pdfrwt>
<pdfrwt beam="2">  1       -1 0.40265814E-01 0.88971790E+02</pdfrwt>
<totfact> 0.67950902E+04</totfact>
</mgrwt>
</event>
<event>
 5   1  0.1357339E+00  0.9246603E+02  0.7818608E-02  0.1296987E+00
         -1   -1    0    0    0  501 -0.00000000000E+00  0.00000000000E+00  0.89626505387E+01  0.89626517553E+01  0.46700000000E-02 0.  1.
          1   -1    0    0  501    0  0.00000000000E+00 -0.00000000000E+00 -0.23848876194E+03  0.23848876198E+03  0.46700000000E-02 0. -1.
         23    2    1    2    0    0  0.00000000000E+00  0.00000000000E+00 -0.22952611140E+03  0.24745141374E+03  0.92466028072E+02 0.  0.
        -11    1    3    3    0    0  0.19578906842E+02 -0.41875966938E+02 -0.11275794346E+03  0.12186584433E+03  0.51100000000E-03 0. -1.
         11    1    3    3    0    0 -0.19578906842E+02  0.41875966938E+02 -0.11676816794E+03  0.12558556941E+03  0.51100000000E-03 0.  1.
<mgrwt>
<rscale>  0 0.92466028E+02</rscale>
<asrwt>0</asrwt>
<pdfrwt beam="2">  1        1 0.36690574E-01 0.92466028E+02</pdfrwt>
<pdfrwt beam="1">  1       -1 0.13788696E-02 0.92466028E+02</pdfrwt>
<totfact> 0.11801783E+05</totfact>
</mgrwt>
</event>
<event>
 5   1  0.1357339E+00  0.9229449E+02  0.7818608E-02  0.1297388E+00
         -1   -1    0    0    0  501 -0.00000000000E+00  0.00000000000E+00  0.77750300620E+01  0.77750314645E+01  0.46700000000E-02 0.  1.
          1   -1    0    0  501    0  0.00000000000E+00 -0.00000000000E+00 -0.27389837862E+03  0.27389837866E+03  0.46700000000E-02 0. -1.
         23    2    1    2    0    0  0.00000000000E+00  0.00000000000E+00 -0.26612334856E+03  0.28167341012E+03  0.92294492378E+02 0.  0.
        -11    1    3    3    0    0 -0.38380447667E+02 -0.25310214007E+02 -0.12089128127E+03  0.12933819074E+03  0.51100000000E-03 0.  1.
         11    1    3    3    0    0  0.38380447667E+02  0.25310214007E+02 -0.14523206729E+03  0.15233521939E+03  0.51100000000E-03 0. -1.
<mgrwt>
<rscale>  0 0.92294492E+02</rscale>
<asrwt>0</asrwt>
<pdfrwt beam="2">  1        1 0.42138205E-01 0.92294492E+02</pdfrwt>
<pdfrwt beam="1">  1       -1 0.11961588E-02 0.92294492E+02</pdfrwt>
<totfact> 0.12186191E+05</totfact>
</mgrwt>
</event>
<event>
 5   1  0.1357339E+00  0.9137788E+02  0.7818608E-02  0.1299549E+00
          1   -1    0    0  501    0  0.00000000000E+00  0.00000000000E+00  0.11814585564E+02  0.11814586487E+02  0.46700000000E-02 0. -1.
         -1   -1    0    0    0  501 -0.00000000000E+00 -0.00000000000E+00 -0.17668660773E+03  0.17668660779E+03  0.46700000000E-02 0.  1.
         23    2    1    2    0    0  0.00000000000E+00  0.00000000000E+00 -0.16487202217E+03  0.18850119428E+03  0.91377877799E+02 0.  0.
        -11    1    3    3    0    0 -0.37174472504E+02  0.24503769953E+01 -0.27875646817E+02  0.46529532978E+02  0.51100000000E-03 0. -1.
         11    1    3    3    0    0  0.37174472504E+02 -0.24503769953E+01 -0.13699637535E+03  0.14197166130E+03  0.51100000000E-03 0.  1.
<mgrwt>
<rscale>  0 0.91377878E+02</rscale>
<asrwt>0</asrwt>
<pdfrwt beam="1">  1        1 0.18176288E-02 0.91377878E+02</pdfrwt>
<pdfrwt beam="2">  1       -1 0.27182553E-01 0.91377878E+02</pdfrwt>
<totfact> 0.71409526E+04</totfact>
</mgrwt>
</event>
<event>
 5   1  0.1357339E+00  0.9118655E+02  0.7818608E-02  0.1300003E+00
          1   -1    0    0  501    0  0.00000000000E+00  0.00000000000E+00  0.11836919983E+03  0.11836919992E+03  0.46700000000E-02 0. -1.
         -1   -1    0    0    0  501 -0.00000000000E+00 -0.00000000000E+00 -0.17561551546E+02  0.17561552167E+02  0.46700000000E-02 0.  1.
         23    2    1    2    0    0  0.00000000000E+00  0.00000000000E+00  0.10080764828E+03  0.13593075209E+03  0.91186552797E+02 0.  0.
        -11    1    3    3    0    0  0.10189051389E+02 -0.34514649855E+02  0.86733553274E+01  0.37017629797E+02  0.51100000000E-03 0.  1.
         11    1    3    3    0    0 -0.10189051389E+02  0.34514649855E+02  0.92134292954E+02  0.98913122291E+02  0.51100000000E-03 0. -1.
<mgrwt>
<rscale>  0 0.91186553E+02</rscale>
<asrwt>0</asrwt>
<pdfrwt beam="1">  1        1 0.18210647E-01 0.91186553E+02</pdfrwt>
<pdfrwt beam="2">  1       -1 0.27017771E-02 0.91186553E+02</pdfrwt>
<totfact> 0.10745228E+05</totfact>
</mgrwt>
</event>
<event>
 5   1  0.1357339E+00  0.9293557E+02  0.7818608E-02  0.1295895E+00
          1   -1    0    0  501    0  0.00000000000E+00  0.00000000000E+00  0.26215903866E+03  0.26215903870E+03  0.46700000000E-02 0. -1.
         -1   -1    0    0    0  501 -0.00000000000E+00 -0.00000000000E+00 -0.82364303620E+01  0.82364316859E+01  0.46700000000E-02 0.  1.
         23    2    1    2    0    0  0.00000000000E+00  0.00000000000E+00  0.25392260830E+03  0.27039547039E+03  0.92935565858E+02 0.  0.
        -11    1    3    3    0    0 -0.34959224830E+02  0.30140650712E+02  0.14253419890E+03  0.14982190789E+03  0.51100000000E-03 0. -1.
         11    1    3    3    0    0  0.34959224830E+02 -0.30140650712E+02  0.11138840940E+03  0.12057356250E+03  0.51100000000E-03 0.  1.
<mgrwt>
<rscale>  0 0.92935566E+02</rscale>
<asrwt>0</asrwt>
<pdfrwt beam="1">  1        1 0.40332167E-01 0.92935566E+02</pdfrwt>
<pdfrwt beam="2">  1       -1 0.12671430E-02 0.92935566E+02</pdfrwt>
<totfact> 0.11860487E+05</totfact>
</mgrwt>
</event>
<event>
 5   1  0.1357339E+00  0.9002346E+02  0.7818608E-02  0.1302795E+00
          1   -1    0    0  501    0  0.00000000000E+00  0.00000000000E+00  0.35454583989E+02  0.35454584297E+02  0.46700000000E-02 0. -1.
         -1   -1    0    0    0  501 -0.00000000000E+00 -0.00000000000E+00 -0.57145107919E+02  0.57145108110E+02  0.46700000000E-02 0.  1.
         23    2    1    2    0    0  0.00000000000E+00  0.00000000000E+00 -0.21690523930E+02  0.92599692407E+02  0.90023464749E+02 0.  0.
        -11    1    3    3    0    0  0.21867776325E+02  0.64273501007E-01  0.29623374883E+02  0.36820484953E+02  0.51100000000E-03 0. -1.
         11    1    3    3    0    0 -0.21867776325E+02 -0.64273501007E-01 -0.51313898813E+02  0.55779207453E+02  0.51100000000E-03 0.  1.
<mgrwt>
<rscale>  0 0.90023465E+02</rscale>
<asrwt>0</asrwt>
<pdfrwt beam="1">  1        1 0.54545514E-02 0.90023465E+02</pdfrwt>
<pdfrwt beam="2">  1       -1 0.87915551E-02 0.90023465E+02</pdfrwt>
<totfact> 0.92275988E+04</totfact>
</mgrwt>
</event>
<event>
 5   1  0.1357339E+00  0.8911497E+02  0.7818608E-02  0.1305009E+00
          1   -1    0    0  501    0  0.00000000000E+00  0.00000000000E+00  0.93961551122E+01  0.93961562727E+01  0.46700000000E-02 0. -1.
         -1   -1    0    0    0  501 -0.00000000000E+00 -0.00000000000E+00 -0.21129591261E+03  0.21129591266E+03  0.46700000000E-02 0.  1.
         23    2    1    2    0    0  0.00000000000E+00  0.00000000000E+00 -0.20189975749E+03  0.22069206893E+03  0.89114966267E+02 0.  0.
        -11    1    3    3    0    0  0.43184807577E+02 -0.32825556194E+01 -0.75015662828E+02  0.86620161894E+02  0.51100000000E-03 0. -1.
         11    1    3    3    0    0 -0.43184807577E+02  0.32825556194E+01 -0.12688409467E+03  0.13407190704E+03  0.51100000000E-03 0.  1.
<mgrwt>
<rscale>  0 0.89114966E+02</rscale>
<asrwt>0</asrwt>
<pdfrwt beam="1">  1        1 0.14455626E-02 0.89114966E+02</pdfrwt>
<pdfrwt beam="2">  1       -1 0.32507060E-01 0.89114966E+02</pdfrwt>
<totfact> 0.72512189E+04</totfact>
</mgrwt>
</event>
<event>
 5   1  0.1357339E+00  0.8960083E+02  0.7818608E-02  0.1303821E+00
          1   -1    0    0  501    0  0.00000000000E+00  0.00000000000E+00  0.16523498838E+03  0.16523498844E+03  0.46700000000E-02 0. -1.
         -1   -1    0    0    0  501 -0.00000000000E+00 -0.00000000000E+00 -0.12146803718E+02  0.12146804616E+02  0.46700000000E-02 0.  1.
         23    2    1    2    0    0  0.00000000000E+00  0.00000000000E+00  0.15308818466E+03  0.17738179306E+03  0.89600827155E+02 0.  0.
        -11    1    3    3    0    0 -0.43932450309E+02 -0.81359238642E+01  0.83057122239E+02  0.94311923966E+02  0.51100000000E-03 0. -1.
         11    1    3    3    0    0  0.43932450309E+02  0.81359238642E+01  0.70031062420E+02  0.83069869094E+02  0.51100000000E-03 0.  1.
<mgrwt>
<rscale>  0 0.89600827E+02</rscale>
<asrwt>0</asrwt>
<pdfrwt beam="1">  1        1 0.25420767E-01 0.89600827E+02</pdfrwt>
<pdfrwt beam="2">  1       -1 0.18687392E-02 0.89600827E+02</pdfrwt>
<totfact> 0.11964100E+05</totfact>
</mgrwt>
</event>
<event>
 5   1  0.1357339E+00  0.9157427E+02  0.7818608E-02  0.1299084E+00
          1   -1    0    0  501    0  0.00000000000E+00  0.00000000000E+00  0.81044761593E+02  0.81044761727E+02  0.46700000000E-02 0. -1.
         -1   -1    0    0    0  501 -0.00000000000E+00 -0.00000000000E+00 -0.25867950634E+02  0.25867951056E+02  0.46700000000E-02 0.  1.
         23    2    1    2    0    0  0.00000000000E+00  0.00000000000E+00  0.55176810959E+02  0.10691271278E+03  0.91574274155E+02 0.  0.
        -11    1    3    3    0    0  0.22936227549E+02  0.31554788826E+02  0.55576377662E+02  0.67900728909E+02  0.51100000000E-03 0.  1.
         11    1    3    3    0    0 -0.22936227549E+02 -0.31554788826E+02 -0.39956670347E+00  0.39011983875E+02  0.51100000000E-03 0. -1.
<mgrwt>
<rscale>  0 0.91574274E+02</rscale>
<asrwt>0</asrwt>
<pdfrwt beam="1">  1        1 0.12468425E-01 0.91574274E+02</pdfrwt>
<pdfrwt beam="2">  1       -1 0.39796849E-02 0.91574274E+02</pdfrwt>
<totfact> 0.99751934E+04</totfact>
</mgrwt>
</event>
<event>
 5   1  0.1357339E+00  0.9039851E+02  0.7818608E-02  0.1301890E+00
          1   -1    0    0  501    0  0.00000000000E+00  0.00000000000E+00  0.24135136388E+03  0.24135136392E+03  0.46700000000E-02 0. -1.
         -1   -1    0    0    0  501 -0.00000000000E+00 -0.00000000000E+00 -0.84647223595E+01  0.84647236477E+01  0.46700000000E-02 0.  1.
         23    2    1    2    0    0  0.00000000000E+00  0.00000000000E+00  0.23288664152E+03  0.24981608757E+03  0.90398505582E+02 0.  0.
        -11    1    3    3    0    0 -0.18418659501E+02 -0.38335989091E+02  0.15872369968E+03  0.16432318132E+03  0.51100000000E-03 0. -1.
         11    1    3    3    0    0  0.18418659501E+02  0.38335989091E+02  0.74162941834E+02  0.85492906250E+02  0.51100000000E-03 0.  1.
<mgrwt>
<rscale>  0 0.90398506E+02</rscale>
<asrwt>0</asrwt>
<pdfrwt beam="1">  1        1 0.37130974E-01 0.90398506E+02</pdfrwt>
<pdfrwt beam="2">  1       -1 0.13022653E-02 0.90398506E+02</pdfrwt>
<totfact> 0.12566876E+05</totfact>
</mgrwt>
</event>
<event>
 5   1  0.1357339E+00  0.9088727E+02  0.7818608E-02  0.1300717E+00
          1   -1    0    0  501    0  0.00000000000E+00  0.00000000000E+00  0.29385016087E+02  0.29385016458E+02  0.46700000000E-02 0. -1.
         -1   -1    0    0    0  501 -0.00000000000E+00 -0.00000000000E+00 -0.70278126299E+02  0.70278126454E+02  0.46700000000E-02 0.  1.
         23    2    1    2    0    0  0.00000000000E+00  0.00000000000E+00 -0.40893110212E+02  0.99663142912E+02  0.90887268593E+02 0.  0.
        -11    1    3    3    0    0 -0.52940071892E+01  0.11036685315E+02  0.27543216141E+02  0.30140731419E+02  0.51100000000E-03 0. -1.
         11    1    3    3    0    0  0.52940071892E+01 -0.11036685315E+02 -0.68436326353E+02  0.69522411493E+02  0.51100000000E-03 0.  1.
<mgrwt>
<rscale>  0 0.90887269E+02</rscale>
<asrwt>0</asrwt>
<pdfrwt beam="1">  1        1 0.45207718E-02 0.90887269E+02</pdfrwt>
<pdfrwt beam="2">  1       -1 0.10812019E-01 0.90887269E+02</pdfrwt>
<totfact> 0.87188030E+04</totfact>
</mgrwt>
</event>
<event>
 5   1  0.1357339E+00  0.9226884E+02  0.7818608E-02  0.1297449E+00
         -1   -1    0    0    0  501 -0.00000000000E+00  0.00000000000E+00  0.80301789591E+01  0.80301803170E+01  0.46700000000E-02 0.  1.
          1   -1    0    0  501    0  0.00000000000E+00 -0.00000000000E+00 -0.26504819688E+03  0.26504819692E+03  0.46700000000E-02 0. -1.
         23    2    1    2    0    0  0.00000000000E+00  0.00000000000E+00 -0.25701801792E+03  0.27307837724E+03  0.92268838613E+02 0.  0.
        -11    1    3    3    0    0  0.42737877791E+02  0.13371058193E+02 -0.95675742413E+02  0.10563692102E+03  0.51100000000E-03 0.  1.
         11    1    3    3    0    0 -0.42737877791E+02 -0.13371058193E+02 -0.16134227551E+03  0.16744145622E+03  0.51100000000E-03 0. -1.
<mgrwt>
<rscale>  0 0.92268839E+02</rscale>
<asrwt>0</asrwt>
<pdfrwt beam="2">  1        1 0.40776639E-01 0.92268839E+02</pdfrwt>
<pdfrwt beam="1">  1       -1 0.12354125E-02 0.92268839E+02</pdfrwt>
<totfact> 0.12117193E+05</totfact>
</mgrwt>
</event>
<event>
 5   1  0.1357339E+00  0.9038030E+02  0.7818608E-02  0.1301933E+00
         -1   -1    0    0    0  501 -0.00000000000E+00  0.00000000000E+00  0.22312355361E+03  0.22312355365E+03  0.46700000000E-02 0.  1.
          1   -1    0    0  501    0  0.00000000000E+00 -0.00000000000E+00 -0.91525501262E+01  0.91525513176E+01  0.46700000000E-02 0. -1.
         23    2    1    2    0    0  0.00000000000E+00  0.00000000000E+00  0.21397100348E+03  0.23227610497E+03  0.90380299906E+02 0.  0.
        -11    1    3    3    0    0 -0.26661545110E+02 -0.23398215552E+02  0.35033458584E+02  0.49856370700E+02  0.51100000000E-03 0. -1.
         11    1    3    3    0    0  0.26661545110E+02  0.23398215552E+02  0.17893754490E+03  0.18241973427E+03  0.51100000000E-03 0.  1.
<mgrwt>
<rscale>  0 0.90380300E+02</rscale>
<asrwt>0</asrwt>
<pdfrwt beam="2">  1        1 0.14080846E-02 0.90380300E+02</pdfrwt>
<pdfrwt beam="1">  1       -1 0.34326704E-01 0.90380300E+02</pdfrwt>
<totfact> 0.68752815E+04</totfact>
</mgrwt>
</event>
<event>
 5   1  0.1357339E+00  0.9027158E+02  0.7818608E-02  0.1302195E+00
          1   -1    0    0  501    0  0.00000000000E+00  0.00000000000E+00  0.37174120467E+02  0.37174120760E+02  0.46700000000E-02 0. -1.
         -1   -1    0    0    0  501 -0.00000000000E+00 -0.00000000000E+00 -0.54802634067E+02  0.54802634266E+02  0.46700000000E-02 0.  1.
         23    2    1    2    0    0  0.00000000000E+00  0.00000000000E+00 -0.17628513600E+02  0.91976755026E+02  0.90271584529E+02 0.  0.
        -11    1    3    3    0    0  0.42284558608E+02 -0.52381302453E+01 -0.23989136321E+02  0.48896835959E+02  0.51100000000E-03 0.  1.
         11    1    3    3    0    0 -0.42284558608E+02  0.52381302453E+01  0.63606227210E+01  0.43079919067E+02  0.51100000000E-03 0. -1.
<mgrwt>
<rscale>  0 0.90271585E+02</rscale>
<asrwt>0</asrwt>
<pdfrwt beam="1">  1        1 0.57190955E-02 0.90271585E+02</pdfrwt>
<pdfrwt beam="2">  1       -1 0.84311745E-02 0.90271585E+02</pdfrwt>
<totfact> 0.92223421E+04</totfact>
</mgrwt>
</event>
<event>
 5   1  0.1357339E+00  0.9052311E+02  0.7818608E-02  0.1301590E+00
          1   -1    0    0  501    0  0.00000000000E+00  0.00000000000E+00  0.22626808718E+02  0.22626809200E+02  0.46700000000E-02 0. -1.
         -1   -1    0    0    0  501 -0.00000000000E+00 -0.00000000000E+00 -0.90538989018E+02  0.90538989139E+02  0.46700000000E-02 0.  1.
         23    2    1    2    0    0  0.00000000000E+00  0.00000000000E+00 -0.67912180300E+02  0.11316579834E+03  0.90523111306E+02 0.  0.
        -11    1    3    3    0    0  0.43624323855E+02  0.14739194712E+01 -0.48923999913E+02  0.65565324968E+02  0.51100000000E-03 0.  1.
         11    1    3    3    0    0 -0.43624323855E+02 -0.14739194712E+01 -0.18988180387E+02  0.47600473371E+02  0.51100000000E-03 0. -1.
<mgrwt>
<rscale>  0 0.90523111E+02</rscale>
<asrwt>0</asrwt>
<pdfrwt beam="1">  1        1 0.34810476E-02 0.90523111E+02</pdfrwt>
<pdfrwt beam="2">  1       -1 0.13929075E-01 0.90523111E+02</pdfrwt>
<totfact> 0.84398790E+04</totfact>
</mgrwt>
</event>
<event>
 5   1  0.1357339E+00  0.9287302E+02  0.7818608E-02  0.1296040E+00
         -1   -1    0    0    0  501 -0.00000000000E+00  0.00000000000E+00  0.26439791815E+02  0.26439792228E+02  0.46700000000E-02 0.  1.
          1   -1    0    0  501    0  0.00000000000E+00 -0.00000000000E+00 -0.81556972436E+02  0.81556972570E+02  0.46700000000E-02 0. -1.
         23    2    1    2    0    0  0.00000000000E+00  0.00000000000E+00 -0.55117180621E+02  0.10799676480E+03  0.92873018726E+02 0.  0.
        -11    1    3    3    0    0  0.10538136892E+01 -0.13961633665E+02  0.23926768732E+02  0.27722337566E+02  0.51100000000E-03 0.  1.
         11    1    3    3    0    0 -0.10538136892E+01  0.13961633665E+02 -0.79043949353E+02  0.80274427232E+02  0.51100000000E-03 0. -1.
<mgrwt>
<rscale>  0 0.92873019E+02</rscale>
<asrwt>0</asrwt>
<pdfrwt beam="2">  1        1 0.12547226E-01 0.92873019E+02</pdfrwt>
<pdfrwt beam="1">  1       -1 0.40676603E-02 0.92873019E+02</pdfrwt>
<totfact> 0.96058841E+04</totfact>
</mgrwt>
</event>
<event>
 5   1  0.1357339E+00  0.9511086E+02  0.7818608E-02  0.1290927E+00
         -1   -1    0    0    0  501 -0.00000000000E+00  0.00000000000E+00  0.45808529012E+02  0.45808529250E+02  0.46700000000E-02 0.  1.
          1   -1    0    0  501    0  0.00000000000E+00 -0.00000000000E+00 -0.49368943506E+02  0.49368943727E+02  0.46700000000E-02 0. -1.
         23    2    1    2    0    0  0.00000000000E+00  0.00000000000E+00 -0.35604144942E+01  0.95177472977E+02  0.95110855379E+02 0.  0.
        -11    1    3    3    0    0  0.26836579710E+02 -0.34080369685E+02 -0.21283473207E+02  0.48318317855E+02  0.51100000000E-03 0. -1.
         11    1    3    3    0    0 -0.26836579710E+02  0.34080369685E+02  0.17723058713E+02  0.46859155122E+02  0.51100000000E-03 0.  1.
<mgrwt>
<rscale>  0 0.95110855E+02</rscale>
<asrwt>0</asrwt>
<pdfrwt beam="2">  1        1 0.75952222E-02 0.95110855E+02</pdfrwt>
<pdfrwt beam="1">  1       -1 0.70474660E-02 0.95110855E+02</pdfrwt>
<totfact> 0.83115018E+04</totfact>
</mgrwt>
</event>
<event>
 5   1  0.1357339E+00  0.8480019E+02  0.7818608E-02  0.1315956E+00
          1   -1    0    0  501    0  0.00000000000E+00  0.00000000000E+00  0.15800647032E+03  0.15800647039E+03  0.46700000000E-02 0. -1.
         -1   -1    0    0    0  501 -0.00000000000E+00 -0.00000000000E+00 -0.11377811014E+02  0.11377811972E+02  0.46700000000E-02 0.  1.
         23    2    1    2    0    0  0.00000000000E+00  0.00000000000E+00  0.14662865930E+03  0.16938428236E+03  0.84800185029E+02 0.  0.
        -11    1    3    3    0    0  0.26947216605E+02  0.20526588059E+02  0.22378347404E+02  0.40599060739E+02  0.51100000000E-03 0.  1.
         11    1    3    3    0    0 -0.26947216605E+02 -0.20526588059E+02  0.12425031190E+03  0.12878522162E+03  0.51100000000E-03 0. -1.
<mgrwt>
<rscale>  0 0.84800185E+02</rscale>
<asrwt>0</asrwt>
<pdfrwt beam="1">  1        1 0.24308688E-01 0.84800185E+02</pdfrwt>
<pdfrwt beam="2">  1       -1 0.17504325E-02 0.84800185E+02</pdfrwt>
<totfact> 0.13751132E+05</totfact>
</mgrwt>
</event>
<event>
 5   1  0.1357339E+00  0.9257887E+02  0.7818608E-02  0.1296724E+00
          1   -1    0    0  501    0  0.00000000000E+00  0.00000000000E+00  0.25197321994E+02  0.25197322427E+02  0.46700000000E-02 0. -1.
         -1   -1    0    0    0  501 -0.00000000000E+00 -0.00000000000E+00 -0.85037283620E+02  0.85037283748E+02  0.46700000000E-02 0.  1.
         23    2    1    2    0    0  0.00000000000E+00  0.00000000000E+00 -0.59839961626E+02  0.11023460618E+03  0.92578871193E+02 0.  0.
        -11    1    3    3    0    0 -0.22994918270E+02 -0.32156982103E+02 -0.58592966850E+02  0.70682200933E+02  0.51100000000E-03 0.  1.
         11    1    3    3    0    0  0.22994918270E+02  0.32156982103E+02 -0.12469947755E+01  0.39552405242E+02  0.51100000000E-03 0. -1.
<mgrwt>
<rscale>  0 0.92578871E+02</rscale>
<asrwt>0</asrwt>
<pdfrwt beam="1">  1        1 0.38765112E-02 0.92578871E+02</pdfrwt>
<pdfrwt beam="2">  1       -1 0.13082659E-01 0.92578871E+02</pdfrwt>
<totfact> 0.80552325E+04</totfact>
</mgrwt>
</event>
<event>
 5   1  0.1357339E+00  0.9575751E+02  0.7818608E-02  0.1289479E+00
         -1   -1    0    0    0  501 -0.00000000000E+00  0.00000000000E+00  0.11590642361E+02  0.11590643301E+02  0.46700000000E-02 0.  1.
          1   -1    0    0  501    0  0.00000000000E+00 -0.00000000000E+00 -0.19777809605E+03  0.19777809610E+03  0.46700000000E-02 0. -1.
         23    2    1    2    0    0  0.00000000000E+00  0.00000000000E+00 -0.18618745369E+03  0.20936873940E+03  0.95757512129E+02 0.  0.
        -11    1    3    3    0    0  0.22500683249E+02 -0.31006553410E+02 -0.15588277064E+03  0.16052141690E+03  0.51100000000E-03 0. -1.
         11    1    3    3    0    0 -0.22500683249E+02  0.31006553410E+02 -0.30304683050E+02  0.48847322507E+02  0.51100000000E-03 0.  1.
<mgrwt>
<rscale>  0 0.95757512E+02</rscale>
<asrwt>0</asrwt>
<pdfrwt beam="2">  1        1 0.30427397E-01 0.95757512E+02</pdfrwt>
<pdfrwt beam="1">  1       -1 0.17831760E-02 0.95757512E+02</pdfrwt>
<totfact> 0.10354669E+05</totfact>
</mgrwt>
</event>
<event>
 5   1  0.1357339E+00  0.9120727E+02  0.7818608E-02  0.1299954E+00
          1   -1    0    0  501    0  0.00000000000E+00  0.00000000000E+00  0.16440086184E+02  0.16440086847E+02  0.46700000000E-02 0. -1.
         -1   -1    0    0    0  501 -0.00000000000E+00 -0.00000000000E+00 -0.12650125203E+03  0.12650125211E+03  0.46700000000E-02 0.  1.
         23    2    1    2    0    0  0.00000000000E+00  0.00000000000E+00 -0.11006116584E+03  0.14294133896E+03  0.91207270307E+02 0.  0.
        -11    1    3    3    0    0  0.42487384793E+02  0.59146951992E+01 -0.79285980246E+02  0.90146703488E+02  0.51100000000E-03 0.  1.
         11    1    3    3    0    0 -0.42487384793E+02 -0.59146951992E+01 -0.30775185598E+02  0.52794635473E+02  0.51100000000E-03 0. -1.
<mgrwt>
<rscale>  0 0.91207270E+02</rscale>
<asrwt>0</asrwt>
<pdfrwt beam="1">  1        1 0.25292442E-02 0.91207270E+02</pdfrwt>
<pdfrwt beam="2">  1       -1 0.19461730E-01 0.91207270E+02</pdfrwt>
<totfact> 0.77607225E+04</totfact>
</mgrwt>
</event>
<event>
 5   1  0.1357339E+00  0.9248959E+02  0.7818608E-02  0.1296932E+00
         -1   -1    0    0    0  501 -0.00000000000E+00  0.00000000000E+00  0.10696579895E+02  0.10696580914E+02  0.46700000000E-02 0.  1.
          1   -1    0    0  501    0  0.00000000000E+00 -0.00000000000E+00 -0.19993126634E+03  0.19993126639E+03  0.46700000000E-02 0. -1.
         23    2    1    2    0    0  0.00000000000E+00  0.00000000000E+00 -0.18923468644E+03  0.21062784730E+03  0.92489585943E+02 0.  0.
        -11    1    3    3    0    0 -0.25348677095E+02 -0.29169450038E+02 -0.36773175665E+02  0.53344903175E+02  0.51100000000E-03 0.  1.
         11    1    3    3    0    0  0.25348677095E+02  0.29169450038E+02 -0.15246151078E+03  0.15728294413E+03  0.51100000000E-03 0. -1.
<mgrwt>
<rscale>  0 0.92489586E+02</rscale>
<asrwt>0</asrwt>
<pdfrwt beam="2">  1        1 0.30758653E-01 0.92489586E+02</pdfrwt>
<pdfrwt beam="1">  1       -1 0.16456279E-02 0.92489586E+02</pdfrwt>
<totfact> 0.11393814E+05</totfact>
</mgrwt>
</event>
<event>
 5   1  0.1357339E+00  0.9288869E+02  0.7818608E-02  0.1296003E+00
         -1   -1    0    0    0  501 -0.00000000000E+00  0.00000000000E+00  0.58803207751E+02  0.58803207936E+02  0.46700000000E-02 0.  1.
          1   -1    0    0  501    0  0.00000000000E+00 -0.00000000000E+00 -0.36682987805E+02  0.36682988102E+02  0.46700000000E-02 0. -1.
         23    2    1    2    0    0  0.00000000000E+00  0.00000000000E+00  0.22120219946E+02  0.95486196038E+02  0.92888694163E+02 0.  0.
        -11    1    3    3    0    0 -0.32376349945E+02 -0.16023902702E+02 -0.18946636567E+02  0.40791770384E+02  0.51100000000E-03 0. -1.
         11    1    3    3    0    0  0.32376349945E+02  0.16023902702E+02  0.41066856513E+02  0.54694425655E+02  0.51100000000E-03 0.  1.
<mgrwt>
<rscale>  0 0.92888694E+02</rscale>
<asrwt>0</asrwt>
<pdfrwt beam="2">  1        1 0.56435367E-02 0.92888694E+02</pdfrwt>
<pdfrwt beam="1">  1       -1 0.90466473E-02 0.92888694E+02</pdfrwt>
<totfact> 0.84859624E+04</totfact>
</mgrwt>
</event>
<event>
 5   1  0.1357339E+00  0.9490542E+02  0.7818608E-02  0.1291389E+00
         -1   -1    0    0    0  501 -0.00000000000E+00  0.00000000000E+00  0.15343618453E+03  0.15343618460E+03  0.46700000000E-02 0.  1.
          1   -1    0    0  501    0  0.00000000000E+00 -0.00000000000E+00 -0.14675544453E+02  0.14675545196E+02  0.46700000000E-02 0. -1.
         23    2    1    2    0    0  0.00000000000E+00  0.00000000000E+00  0.13876064008E+03  0.16811172980E+03  0.94905418502E+02 0.  0.
        -11    1    3    3    0    0 -0.27740409757E+02 -0.13967242855E+02  0.58295504463E+01  0.31600599126E+02  0.51100000000E-03 0. -1.
         11    1    3    3    0    0  0.27740409757E+02  0.13967242855E+02  0.13293108963E+03  0.13651113067E+03  0.51100000000E-03 0.  1.
<mgrwt>
<rscale>  0 0.94905419E+02</rscale>
<asrwt>0</asrwt>
<pdfrwt beam="2">  1        1 0.22577761E-02 0.94905419E+02</pdfrwt>
<pdfrwt beam="1">  1       -1 0.23605568E-01 0.94905419E+02</pdfrwt>
<totfact> 0.67025383E+04</totfact>
</mgrwt>
</event>
<event>
 5   1  0.1357339E+00  0.9173680E+02  0.7818608E-02  0.1298699E+00
         -1   -1    0    0    0  501 -0.00000000000E+00  0.00000000000E+00  0.12548186462E+03  0.12548186471E+03  0.46700000000E-02 0.  1.
          1   -1    0    0  501    0  0.00000000000E+00 -0.00000000000E+00 -0.16766645632E+02  0.16766646283E+02  0.46700000000E-02 0. -1.
         23    2    1    2    0    0  0.00000000000E+00  0.00000000000E+00  0.10871521899E+03  0.14224851099E+03  0.91736797629E+02 0.  0.
        -11    1    3    3    0    0 -0.25751733207E+02 -0.36204014243E+02  0.36675994690E+02  0.57610858327E+02  0.51100000000E-03 0.  1.
         11    1    3    3    0    0  0.25751733207E+02  0.36204014243E+02  0.72039224298E+02  0.84637652663E+02  0.51100000000E-03 0. -1.
<mgrwt>
<rscale>  0 0.91736798E+02</rscale>
<asrwt>0</asrwt>
<pdfrwt beam="2">  1        1 0.25794840E-02 0.91736798E+02</pdfrwt>
<pdfrwt beam="1">  1       -1 0.19304902E-01 0.91736798E+02</pdfrwt>
<totfact> 0.76582538E+04</totfact>
</mgrwt>
</event>
<event>
 5   1  0.1357339E+00  0.8939132E+02  0.7818608E-02  0.1304332E+00
         -1   -1    0    0    0  501 -0.00000000000E+00  0.00000000000E+00  0.99287255371E+02  0.99287255481E+02  0.46700000000E-02 0.  1.
          1   -1    0    0  501    0  0.00000000000E+00 -0.00000000000E+00 -0.20120426804E+02  0.20120427346E+02  0.46700000000E-02 0. -1.
         23    2    1    2    0    0  0.00000000000E+00  0.00000000000E+00  0.79166828567E+02  0.11940768283E+03  0.89391319337E+02 0.  0.
        -11    1    3    3    0    0 -0.27398814877E+02 -0.23048352722E+02  0.75321132190E+02  0.83397809171E+02  0.51100000000E-03 0.  1.
         11    1    3    3    0    0  0.27398814877E+02  0.23048352722E+02  0.38456963773E+01  0.36009873656E+02  0.51100000000E-03 0. -1.
<mgrwt>
<rscale>  0 0.89391319E+02</rscale>
<asrwt>0</asrwt>
<pdfrwt beam="2">  1        1 0.30954503E-02 0.89391319E+02</pdfrwt>
<pdfrwt beam="1">  1       -1 0.15274962E-01 0.89391319E+02</pdfrwt>
<totfact> 0.85730016E+04</totfact>
</mgrwt>
</event>
<event>
 5   1  0.1357339E+00  0.9315042E+02  0.7818608E-02  0.1295397E+00
         -1   -1    0    0    0  501 -0.00000000000E+00  0.00000000000E+00  0.32730387038E+02  0.32730387371E+02  0.46700000000E-02 0.  1.
          1   -1    0    0  501    0  0.00000000000E+00 -0.00000000000E+00 -0.66276341177E+02  0.66276341341E+02  0.46700000000E-02 0. -1.
         23    2    1    2    0    0  0.00000000000E+00  0.00000000000E+00 -0.33545954139E+02  0.99006728712E+02  0.93150422925E+02 0.  0.
        -11    1    3    3    0    0 -0.12420931242E+02 -0.38631956958E+02 -0.41069312178E+02  0.57735569923E+02  0.51100000000E-03 0. -1.
         11    1    3    3    0    0  0.12420931242E+02  0.38631956958E+02  0.75233580396E+01  0.41271158789E+02  0.51100000000E-03 0.  1.
<mgrwt>
<rscale>  0 0.93150423E+02</rscale>
<asrwt>0</asrwt>
<pdfrwt beam="2">  1        1 0.10196360E-01 0.93150423E+02</pdfrwt>
<pdfrwt beam="1">  1       -1 0.50354442E-02 0.93150423E+02</pdfrwt>
<totfact> 0.92205831E+04</totfact>
</mgrwt>
</event>
<event>
 5   1  0.1357339E+00  0.9179103E+02  0.7818608E-02  0.1298572E+00
          1   -1    0    0  501    0  0.00000000000E+00  0.00000000000E+00  0.14013146436E+02  0.14013147214E+02  0.46700000000E-02 0. -1.
         -1   -1    0    0    0  501 -0.00000000000E+00 -0.00000000000E+00 -0.15031586452E+03  0.15031586459E+03  0.46700000000E-02 0.  1.
         23    2    1    2    0    0  0.00000000000E+00  0.00000000000E+00 -0.13630271808E+03  0.16432901180E+03  0.91791029868E+02 0.  0.
        -11    1    3    3    0    0  0.23051473074E+02 -0.57376451034E+01  0.21512267102E+01  0.23852017920E+02  0.51100000000E-03 0. -1.
         11    1    3    3    0    0 -0.23051473074E+02  0.57376451034E+01 -0.13845394479E+03  0.14047699388E+03  0.51100000000E-03 0.  1.
<mgrwt>
<rscale>  0 0.91791030E+02</rscale>
<asrwt>0</asrwt>
<pdfrwt beam="1">  1        1 0.21558689E-02 0.91791030E+02</pdfrwt>
<pdfrwt beam="2">  1       -1 0.23125517E-01 0.91791030E+02</pdfrwt>
<totfact> 0.73458901E+04</totfact>
</mgrwt>
</event>
<event>
 5   1  0.1357339E+00  0.9051436E+02  0.7818608E-02  0.1301611E+00
         -1   -1    0    0    0  501 -0.00000000000E+00  0.00000000000E+00  0.11345773331E+02  0.11345774292E+02  0.46700000000E-02 0.  1.
          1   -1    0    0  501    0  0.00000000000E+00 -0.00000000000E+00 -0.18052644406E+03  0.18052644412E+03  0.46700000000E-02 0. -1.
         23    2    1    2    0    0  0.00000000000E+00  0.00000000000E+00 -0.16918067073E+03  0.19187221841E+03  0.90514357150E+02 0.  0.
        -11    1    3    3    0    0 -0.42083730992E+02  0.14313366404E+02 -0.66565894861E+02  0.80043308471E+02  0.51100000000E-03 0.  1.
         11    1    3    3    0    0  0.42083730992E+02 -0.14313366404E+02 -0.10261477587E+03  0.11182890994E+03  0.51100000000E-03 0. -1.
<mgrwt>
<rscale>  0 0.90514357E+02</rscale>
<asrwt>0</asrwt>
<pdfrwt beam="2">  1        1 0.27773297E-01 0.90514357E+02</pdfrwt>
<pdfrwt beam="1">  1       -1 0.17455038E-02 0.90514357E+02</pdfrwt>
<totfact> 0.11838618E+05</totfact>
</mgrwt>
</event>
<event>
 5   1  0.1357339E+00  0.9308634E+02  0.7818608E-02  0.1295545E+00
         -1   -1    0    0    0  501 -0.00000000000E+00  0.00000000000E+00  0.12562815355E+02  0.12562816223E+02  0.46700000000E-02 0.  1.
          1   -1    0    0  501    0  0.00000000000E+00 -0.00000000000E+00 -0.17243480746E+03  0.17243480753E+03  0.46700000000E-02 0. -1.
         23    2    1    2    0    0  0.00000000000E+00  0.00000000000E+00 -0.15987199211E+03  0.18499762375E+03  0.93086341276E+02 0.  0.
        -11    1    3    3    0    0  0.16436139716E+02  0.24130740484E+02 -0.79000361147E+01  0.30246485679E+02  0.51100000000E-03 0.  1.
         11    1    3    3    0    0 -0.16436139716E+02 -0.24130740484E+02 -0.15197195599E+03  0.15475113807E+03  0.51100000000E-03 0. -1.
<mgrwt>
<rscale>  0 0.93086341E+02</rscale>
<asrwt>0</asrwt>
<pdfrwt beam="2">  1        1 0.26528430E-01 0.93086341E+02</pdfrwt>
<pdfrwt beam="1">  1       -1 0.19327410E-02 0.93086341E+02</pdfrwt>
<totfact> 0.10883214E+05</totfact>
</mgrwt>
</event>
<event>
 5   1  0.1357339E+00  0.9115100E+02  0.7818608E-02  0.1300088E+00
         -1   -1    0    0    0  501 -0.00000000000E+00  0.00000000000E+00  0.21463986867E+02  0.21463987376E+02  0.46700000000E-02 0.  1.
          1   -1    0    0  501    0  0.00000000000E+00 -0.00000000000E+00 -0.96772608074E+02  0.96772608187E+02  0.46700000000E-02 0. -1.
         23    2    1    2    0    0  0.00000000000E+00  0.00000000000E+00 -0.75308621206E+02  0.11823659556E+03  0.91150996166E+02 0.  0.
        -11    1    3    3    0    0  0.23850147831E+02 -0.28936464478E+02 -0.40539084971E+01  0.37717140698E+02  0.51100000000E-03 0.  1.
         11    1    3    3    0    0 -0.23850147831E+02  0.28936464478E+02 -0.71254712709E+02  0.80519454864E+02  0.51100000000E-03 0. -1.
<mgrwt>
<rscale>  0 0.91150996E+02</rscale>
<asrwt>0</asrwt>
<pdfrwt beam="2">  1        1 0.14888093E-01 0.91150996E+02</pdfrwt>
<pdfrwt beam="1">  1       -1 0.33021519E-02 0.91150996E+02</pdfrwt>
<totfact> 0.10396627E+05</totfact>
</mgrwt>
</event>
<event>
 5   1  0.1357339E+00  0.9138570E+02  0.7818608E-02  0.1299530E+00
         -1   -1    0    0    0  501 -0.00000000000E+00  0.00000000000E+00  0.37047918120E+03  0.37047918123E+03  0.46700000000E-02 0.  1.
          1   -1    0    0  501    0  0.00000000000E+00 -0.00000000000E+00 -0.56355014143E+01  0.56355033492E+01  0.46700000000E-02 0. -1.
         23    2    1    2    0    0  0.00000000000E+00  0.00000000000E+00  0.36484367979E+03  0.37611468458E+03  0.91385695140E+02 0.  0.
        -11    1    3    3    0    0  0.65616043231E+01  0.45134044769E+02  0.19384215624E+03  0.19913542674E+03  0.51100000000E-03 0. -1.
         11    1    3    3    0    0 -0.65616043231E+01 -0.45134044769E+02  0.17100152355E+03  0.17697925784E+03  0.51100000000E-03 0.  1.
<mgrwt>
<rscale>  0 0.91385695E+02</rscale>
<asrwt>0</asrwt>
<pdfrwt beam="2">  1        1 0.86699986E-03 0.91385695E+02</pdfrwt>
<pdfrwt beam="1">  1       -1 0.56996831E-01 0.91385695E+02</pdfrwt>
<totfact> 0.54992611E+04</totfact>
</mgrwt>
</event>
<event>
 5   1  0.1357339E+00  0.9089327E+02  0.7818608E-02  0.1300703E+00
          1   -1    0    0  501    0  0.00000000000E+00  0.00000000000E+00  0.95702252629E+02  0.95702252743E+02  0.46700000000E-02 0. -1.
         -1   -1    0    0    0  501 -0.00000000000E+00 -0.00000000000E+00 -0.21581482290E+02  0.21581482795E+02  0.46700000000E-02 0.  1.
         23    2    1    2    0    0  0.00000000000E+00  0.00000000000E+00  0.74120770339E+02  0.11728373554E+03  0.90893267220E+02 0.  0.
        -11    1    3    3    0    0  0.13294654303E+02  0.22385191012E+02  0.85125578441E+02  0.89018024662E+02  0.51100000000E-03 0. -1.
         11    1    3    3    0    0 -0.13294654303E+02 -0.22385191012E+02 -0.11004808101E+02  0.28265710875E+02  0.51100000000E-03 0.  1.
<mgrwt>
<rscale>  0 0.90893267E+02</rscale>
<asrwt>0</asrwt>
<pdfrwt beam="1">  1        1 0.14723424E-01 0.90893267E+02</pdfrwt>
<pdfrwt beam="2">  1       -1 0.33202281E-02 0.90893267E+02</pdfrwt>
<totfact> 0.10458091E+05</totfact>
</mgrwt>
</event>
<event>
 5   1  0.1357339E+00  0.8869158E+02  0.7818608E-02  0.1306052E+00
         -1   -1    0    0    0  501 -0.00000000000E+00  0.00000000000E+00  0.48989162348E+02  0.48989162571E+02  0.46700000000E-02 0.  1.
          1   -1    0    0  501    0  0.00000000000E+00 -0.00000000000E+00 -0.40142531639E+02  0.40142531910E+02  0.46700000000E-02 0. -1.
         23    2    1    2    0    0  0.00000000000E+00  0.00000000000E+00  0.88466307094E+01  0.89131694481E+02  0.88691578440E+02 0.  0.
        -11    1    3    3    0    0  0.20142738945E+02 -0.93058202695E+01 -0.34162798891E+02  0.40736041185E+02  0.51100000000E-03 0. -1.
         11    1    3    3    0    0 -0.20142738945E+02  0.93058202695E+01  0.43009429601E+02  0.48395653296E+02  0.51100000000E-03 0.  1.
<mgrwt>
<rscale>  0 0.88691578E+02</rscale>
<asrwt>0</asrwt>
<pdfrwt beam="2">  1        1 0.61757742E-02 0.88691578E+02</pdfrwt>
<pdfrwt beam="1">  1       -1 0.75367942E-02 0.88691578E+02</pdfrwt>
<totfact> 0.98052050E+04</totfact>
</mgrwt>
</event>
<event>
 5   1  0.1357339E+00  0.9207733E+02  0.7818608E-02  0.1297898E+00
          1   -1    0    0  501    0  0.00000000000E+00  0.00000000000E+00  0.11106965807E+03  0.11106965817E+03  0.46700000000E-02 0. -1.
         -1   -1    0    0    0  501 -0.00000000000E+00 -0.00000000000E+00 -0.19083145780E+02  0.19083146352E+02  0.46700000000E-02 0.  1.
         23    2    1    2    0    0  0.00000000000E+00  0.00000000000E+00  0.91986512287E+02  0.13015280452E+03  0.92077326638E+02 0.  0.
        -11    1    3    3    0    0 -0.25007568432E+02  0.16579924910E+01  0.10058191529E+03  0.10365736395E+03  0.51100000000E-03 0. -1.
         11    1    3    3    0    0  0.25007568432E+02 -0.16579924910E+01 -0.85954029979E+01  0.26495440569E+02  0.51100000000E-03 0.  1.
<mgrwt>
<rscale>  0 0.92077327E+02</rscale>
<asrwt>0</asrwt>
<pdfrwt beam="1">  1        1 0.17087640E-01 0.92077327E+02</pdfrwt>
<pdfrwt beam="2">  1       -1 0.29358687E-02 0.92077327E+02</pdfrwt>
<totfact> 0.10350839E+05</totfact>
</mgrwt>
</event>
<event>
 5   1  0.1357339E+00  0.9604622E+02  0.7818608E-02  0.1288837E+00
          1   -1    0    0  501    0  0.00000000000E+00  0.00000000000E+00  0.10918686290E+03  0.10918686300E+03  0.46700000000E-02 0. -1.
         -1   -1    0    0    0  501 -0.00000000000E+00 -0.00000000000E+00 -0.21121765043E+02  0.21121765560E+02  0.46700000000E-02 0.  1.
         23    2    1    2    0    0  0.00000000000E+00  0.00000000000E+00  0.88065097856E+02  0.13030862856E+03  0.96046224374E+02 0.  0.
        -11    1    3    3    0    0 -0.15595106213E+02 -0.16153757545E+02 -0.13561614484E+02  0.26231061898E+02  0.51100000000E-03 0.  1.
         11    1    3    3    0    0  0.15595106213E+02  0.16153757545E+02  0.10162671234E+03  0.10407756666E+03  0.51100000000E-03 0. -1.
<mgrwt>
<rscale>  0 0.96046224E+02</rscale>
<asrwt>0</asrwt>
<pdfrwt beam="1">  1        1 0.16797979E-01 0.96046224E+02</pdfrwt>
<pdfrwt beam="2">  1       -1 0.32495024E-02 0.96046224E+02</pdfrwt>
<totfact> 0.91967045E+04</totfact>
</mgrwt>
</event>
<event>
 5   1  0.1357339E+00  0.9070260E+02  0.7818608E-02  0.1301159E+00
          1   -1    0    0  501    0  0.00000000000E+00  0.00000000000E+00  0.95787058814E+02  0.95787058928E+02  0.46700000000E-02 0. -1.
         -1   -1    0    0    0  501 -0.00000000000E+00 -0.00000000000E+00 -0.21472004884E+02  0.21472005392E+02  0.46700000000E-02 0.  1.
         23    2    1    2    0    0  0.00000000000E+00  0.00000000000E+00  0.74315053930E+02  0.11725906432E+03  0.90702596019E+02 0.  0.
        -11    1    3    3    0    0 -0.10863853176E+02  0.39052213935E+02  0.10864610267E+02  0.41965920407E+02  0.51100000000E-03 0.  1.
         11    1    3    3    0    0  0.10863853176E+02 -0.39052213935E+02  0.63450443663E+02  0.75293143913E+02  0.51100000000E-03 0. -1.
<mgrwt>
<rscale>  0 0.90702596E+02</rscale>
<asrwt>0</asrwt>
<pdfrwt beam="1">  1        1 0.14736471E-01 0.90702596E+02</pdfrwt>
<pdfrwt beam="2">  1       -1 0.33033853E-02 0.90702596E+02</pdfrwt>
<totfact> 0.10519645E+05</totfact>
</mgrwt>
</event>
<event>
 5   1  0.1357339E+00  0.9190206E+02  0.7818608E-02  0.1298310E+00
         -1   -1    0    0    0  501 -0.00000000000E+00  0.00000000000E+00  0.11275600706E+02  0.11275601673E+02  0.46700000000E-02 0.  1.
          1   -1    0    0  501    0  0.00000000000E+00 -0.00000000000E+00 -0.18726250296E+03  0.18726250302E+03  0.46700000000E-02 0. -1.
         23    2    1    2    0    0  0.00000000000E+00  0.00000000000E+00 -0.17598690225E+03  0.19853810469E+03  0.91902063357E+02 0.  0.
        -11    1    3    3    0    0  0.10269501647E+01 -0.45007897686E+02 -0.68107704300E+02  0.81642053294E+02  0.51100000000E-03 0. -1.
         11    1    3    3    0    0 -0.10269501647E+01  0.45007897686E+02 -0.10787919795E+03  0.11689605140E+03  0.51100000000E-03 0.  1.
<mgrwt>
<rscale>  0 0.91902063E+02</rscale>
<asrwt>0</asrwt>
<pdfrwt beam="2">  1        1 0.28809614E-01 0.91902063E+02</pdfrwt>
<pdfrwt beam="1">  1       -1 0.17347080E-02 0.91902063E+02</pdfrwt>
<totfact> 0.11444622E+05</totfact>
</mgrwt>
</event>
<event>
 5   1  0.1357339E+00  0.8616935E+02  0.7818608E-02  0.1312403E+00
          1   -1    0    0  501    0  0.00000000000E+00  0.00000000000E+00  0.13684104624E+03  0.13684104632E+03  0.46700000000E-02 0. -1.
         -1   -1    0    0    0  501 -0.00000000000E+00 -0.00000000000E+00 -0.13565295099E+02  0.13565295903E+02  0.46700000000E-02 0.  1.
         23    2    1    2    0    0  0.00000000000E+00  0.00000000000E+00  0.12327575114E+03  0.15040634223E+03  0.86169350477E+02 0.  0.
        -11    1    3    3    0    0  0.24487258118E+02  0.30402256080E+02  0.93459459448E+02  0.10128471526E+03  0.51100000000E-03 0.  1.
         11    1    3    3    0    0 -0.24487258118E+02 -0.30402256080E+02  0.29816291695E+02  0.49121626964E+02  0.51100000000E-03 0. -1.
<mgrwt>
<rscale>  0 0.86169350E+02</rscale>
<asrwt>0</asrwt>
<pdfrwt beam="1">  1        1 0.21052469E-01 0.86169350E+02</pdfrwt>
<pdfrwt beam="2">  1       -1 0.20869685E-02 0.86169350E+02</pdfrwt>
<totfact> 0.12838846E+05</totfact>
</mgrwt>
</event>
<event>
 5   1  0.1357339E+00  0.9435092E+02  0.7818608E-02  0.1292645E+00
          1   -1    0    0  501    0  0.00000000000E+00  0.00000000000E+00  0.12873472740E+02  0.12873473587E+02  0.46700000000E-02 0. -1.
         -1   -1    0    0    0  501 -0.00000000000E+00 -0.00000000000E+00 -0.17287673299E+03  0.17287673306E+03  0.46700000000E-02 0.  1.
         23    2    1    2    0    0  0.00000000000E+00  0.00000000000E+00 -0.16000326025E+03  0.18575020664E+03  0.94350919320E+02 0.  0.
        -11    1    3    3    0    0 -0.44425727306E+02  0.10492257253E+02 -0.10344434679E+03  0.11306841112E+03  0.51100000000E-03 0.  1.
         11    1    3    3    0    0  0.44425727306E+02 -0.10492257253E+02 -0.56558913463E+02  0.72681795528E+02  0.51100000000E-03 0. -1.
<mgrwt>
<rscale>  0 0.94350919E+02</rscale>
<asrwt>0</asrwt>
<pdfrwt beam="1">  1        1 0.19805345E-02 0.94350919E+02</pdfrwt>
<pdfrwt beam="2">  1       -1 0.26596419E-01 0.94350919E+02</pdfrwt>
<totfact> 0.66067394E+04</totfact>
</mgrwt>
</event>
<event>
 5   1  0.1357339E+00  0.9181103E+02  0.7818608E-02  0.1298524E+00
          1   -1    0    0  501    0  0.00000000000E+00  0.00000000000E+00  0.47044790294E+02  0.47044790526E+02  0.46700000000E-02 0. -1.
         -1   -1    0    0    0  501 -0.00000000000E+00 -0.00000000000E+00 -0.44793832584E+02  0.44793832827E+02  0.46700000000E-02 0.  1.
         23    2    1    2    0    0  0.00000000000E+00  0.00000000000E+00  0.22509577106E+01  0.91838623353E+02  0.91811033807E+02 0.  0.
        -11    1    3    3    0    0  0.97173946137E+00 -0.35492773763E+02 -0.27980261562E+02  0.45205932181E+02  0.51100000000E-03 0. -1.
         11    1    3    3    0    0 -0.97173946137E+00  0.35492773763E+02  0.30231219273E+02  0.46632691172E+02  0.51100000000E-03 0.  1.
<mgrwt>
<rscale>  0 0.91811034E+02</rscale>
<asrwt>0</asrwt>
<pdfrwt beam="1">  1        1 0.72376601E-02 0.91811034E+02</pdfrwt>
<pdfrwt beam="2">  1       -1 0.68913589E-02 0.91811034E+02</pdfrwt>
<totfact> 0.91119870E+04</totfact>
</mgrwt>
</event>
<event>
 4   1  0.1357339E+00  0.4081803E+02  0.7818608E-02  0.1502277E+00
         -1   -1    0    0    0  501 -0.00000000000E+00  0.00000000000E+00  0.14953039931E+03  0.14953039939E+03  0.46700000000E-02 0.  1.
          1   -1    0    0  501    0  0.00000000000E+00 -0.00000000000E+00 -0.27855707476E+01  0.27855746622E+01  0.46700000000E-02 0. -1.
        -11    1    1    2    0    0 -0.79265775393E+01 -0.18702353494E+02  0.80759778389E+02  0.83275149135E+02  0.51100000000E-03 0. -1.
         11    1    1    2    0    0  0.79265775393E+01  0.18702353494E+02  0.65985050176E+02  0.69040824913E+02  0.51100000000E-03 0.  1.
<mgrwt>
<rscale>  0 0.40818026E+02</rscale>
<asrwt>0</asrwt>
<pdfrwt beam="2">  1        1 0.42854959E-03 0.40818026E+02</pdfrwt>
<pdfrwt beam="1">  1       -1 0.23004681E-01 0.40818026E+02</pdfrwt>
<totfact> 0.56649494E+05</totfact>
</mgrwt>
</event>
<event>
 5   1  0.1357339E+00  0.9137762E+02  0.7818608E-02  0.1299549E+00
          1   -1    0    0  501    0  0.00000000000E+00  0.00000000000E+00  0.36521895299E+02  0.36521895597E+02  0.46700000000E-02 0. -1.
         -1   -1    0    0    0  501 -0.00000000000E+00 -0.00000000000E+00 -0.57156599426E+02  0.57156599617E+02  0.46700000000E-02 0.  1.
         23    2    1    2    0    0  0.00000000000E+00  0.00000000000E+00 -0.20634704127E+02  0.93678495215E+02  0.91377620079E+02 0.  0.
        -11    1    3    3    0    0  0.39886700894E+02  0.18728061320E+02 -0.22695233417E+02  0.49565742294E+02  0.51100000000E-03 0.  1.
         11    1    3    3    0    0 -0.39886700894E+02 -0.18728061320E+02  0.20605292896E+01  0.44112752921E+02  0.51100000000E-03 0. -1.
<mgrwt>
<rscale>  0 0.91377620E+02</rscale>
<asrwt>0</asrwt>
<pdfrwt beam="1">  1        1 0.56187532E-02 0.91377620E+02</pdfrwt>
<pdfrwt beam="2">  1       -1 0.87933230E-02 0.91377620E+02</pdfrwt>
<totfact> 0.88853779E+04</totfact>
</mgrwt>
</event>
<event>
 5   1  0.1357339E+00  0.9066800E+02  0.7818608E-02  0.1301242E+00
          1   -1    0    0  501    0  0.00000000000E+00  0.00000000000E+00  0.25966601326E+02  0.25966601746E+02  0.46700000000E-02 0. -1.
         -1   -1    0    0    0  501 -0.00000000000E+00 -0.00000000000E+00 -0.79146728617E+02  0.79146728755E+02  0.46700000000E-02 0.  1.
         23    2    1    2    0    0  0.00000000000E+00  0.00000000000E+00 -0.53180127292E+02  0.10511333050E+03  0.90668000475E+02 0.  0.
        -11    1    3    3    0    0 -0.26051242477E+02  0.24371634497E+02 -0.59020563249E+02  0.68964271106E+02  0.51100000000E-03 0.  1.
         11    1    3    3    0    0  0.26051242477E+02 -0.24371634497E+02  0.58404359574E+01  0.36149059395E+02  0.51100000000E-03 0. -1.
<mgrwt>
<rscale>  0 0.90668000E+02</rscale>
<asrwt>0</asrwt>
<pdfrwt beam="1">  1        1 0.39948618E-02 0.90668000E+02</pdfrwt>
<pdfrwt beam="2">  1       -1 0.12176420E-01 0.90668000E+02</pdfrwt>
<totfact> 0.86026520E+04</totfact>
</mgrwt>
</event>
<event>
 5   1  0.1357339E+00  0.9351992E+02  0.7818608E-02  0.1294545E+00
         -1   -1    0    0    0  501 -0.00000000000E+00  0.00000000000E+00  0.17721141310E+02  0.17721141925E+02  0.46700000000E-02 0.  1.
          1   -1    0    0  501    0  0.00000000000E+00 -0.00000000000E+00 -0.12338336267E+03  0.12338336276E+03  0.46700000000E-02 0. -1.
         23    2    1    2    0    0  0.00000000000E+00  0.00000000000E+00 -0.10566222136E+03  0.14110450469E+03  0.93519924184E+02 0.  0.
        -11    1    3    3    0    0 -0.18323512475E+02  0.91495363835E+01 -0.11625583123E+03  0.11804610718E+03  0.51100000000E-03 0. -1.
         11    1    3    3    0    0  0.18323512475E+02 -0.91495363835E+01  0.10593609864E+02  0.23058397508E+02  0.51100000000E-03 0.  1.
<mgrwt>
<rscale>  0 0.93519924E+02</rscale>
<asrwt>0</asrwt>
<pdfrwt beam="2">  1        1 0.18982055E-01 0.93519924E+02</pdfrwt>
<pdfrwt beam="1">  1       -1 0.27263296E-02 0.93519924E+02</pdfrwt>
<totfact> 0.10105160E+05</totfact>
</mgrwt>
</event>
<event>
 5   1  0.1357339E+00  0.9180258E+02  0.7818608E-02  0.1298544E+00
          1   -1    0    0  501    0  0.00000000000E+00  0.00000000000E+00  0.96908730022E+01  0.96908741274E+01  0.46700000000E-02 0. -1.
         -1   -1    0    0    0  501 -0.00000000000E+00 -0.00000000000E+00 -0.21741366628E+03  0.21741366633E+03  0.46700000000E-02 0.  1.
         23    2    1    2    0    0  0.00000000000E+00  0.00000000000E+00 -0.20772279328E+03  0.22710454045E+03  0.91802578663E+02 0.  0.
        -11    1    3    3    0    0 -0.22720886813E+02  0.36036620136E+02 -0.61584725235E+02  0.74883610162E+02  0.51100000000E-03 0. -1.
         11    1    3    3    0    0  0.22720886813E+02 -0.36036620136E+02 -0.14613806804E+03  0.15222093029E+03  0.51100000000E-03 0.  1.
<mgrwt>
<rscale>  0 0.91802579E+02</rscale>
<asrwt>0</asrwt>
<pdfrwt beam="1">  1        1 0.14909038E-02 0.91802579E+02</pdfrwt>
<pdfrwt beam="2">  1       -1 0.33448253E-01 0.91802579E+02</pdfrwt>
<totfact> 0.66536891E+04</totfact>
</mgrwt>
</event>
<event>
 5   1  0.1357339E+00  0.9139638E+02  0.7818608E-02  0.1299505E+00
          1   -1    0    0  501    0  0.00000000000E+00  0.00000000000E+00  0.45053744146E+02  0.45053744389E+02  0.46700000000E-02 0. -1.
         -1   -1    0    0    0  501 -0.00000000000E+00 -0.00000000000E+00 -0.46351853358E+02  0.46351853593E+02  0.46700000000E-02 0.  1.
         23    2    1    2    0    0  0.00000000000E+00  0.00000000000E+00 -0.12981092115E+01  0.91405597982E+02  0.91396379878E+02 0.  0.
        -11    1    3    3    0    0 -0.12243193946E+02 -0.27857929654E+02 -0.34745960644E+02  0.46187030907E+02  0.51100000000E-03 0.  1.
         11    1    3    3    0    0  0.12243193946E+02  0.27857929654E+02  0.33447851433E+02  0.45218567075E+02  0.51100000000E-03 0. -1.
<mgrwt>
<rscale>  0 0.91396380E+02</rscale>
<asrwt>0</asrwt>
<pdfrwt beam="1">  1        1 0.69313453E-02 0.91396380E+02</pdfrwt>
<pdfrwt beam="2">  1       -1 0.71310544E-02 0.91396380E+02</pdfrwt>
<totfact> 0.91686230E+04</totfact>
</mgrwt>
</event>
<event>
 5   1  0.1357339E+00  0.9128071E+02  0.7818608E-02  0.1299780E+00
          1   -1    0    0  501    0  0.00000000000E+00  0.00000000000E+00  0.70860469170E+01  0.70860484559E+01  0.46700000000E-02 0. -1.
         -1   -1    0    0    0  501 -0.00000000000E+00 -0.00000000000E+00 -0.29396388136E+03  0.29396388139E+03  0.46700000000E-02 0.  1.
         23    2    1    2    0    0  0.00000000000E+00  0.00000000000E+00 -0.28687783444E+03  0.30104992985E+03  0.91280711926E+02 0.  0.
        -11    1    3    3    0    0  0.16618396505E+02 -0.42288055670E+02 -0.12921841846E+03  0.13697390417E+03  0.51100000000E-03 0. -1.
         11    1    3    3    0    0 -0.16618396505E+02  0.42288055670E+02 -0.15765941598E+03  0.16407602568E+03  0.51100000000E-03 0.  1.
<mgrwt>
<rscale>  0 0.91280712E+02</rscale>
<asrwt>0</asrwt>
<pdfrwt beam="1">  1        1 0.10901614E-02 0.91280712E+02</pdfrwt>
<pdfrwt beam="2">  1       -1 0.45225203E-01 0.91280712E+02</pdfrwt>
<totfact> 0.60887398E+04</totfact>
</mgrwt>
</event>
<event>
 5   1  0.1357339E+00  0.9097764E+02  0.7818608E-02  0.1300501E+00
         -1   -1    0    0    0  501 -0.00000000000E+00  0.00000000000E+00  0.16038407858E+02  0.16038408537E+02  0.46700000000E-02 0.  1.
          1   -1    0    0  501    0  0.00000000000E+00 -0.00000000000E+00 -0.12901734053E+03  0.12901734062E+03  0.46700000000E-02 0. -1.
         23    2    1    2    0    0  0.00000000000E+00  0.00000000000E+00 -0.11297893268E+03  0.14505574915E+03  0.90977640849E+02 0.  0.
        -11    1    3    3    0    0 -0.15293526501E+02  0.35890509773E+02 -0.19192102529E+02  0.43478241045E+02  0.51100000000E-03 0.  1.
         11    1    3    3    0    0  0.15293526501E+02 -0.35890509773E+02 -0.93786830146E+02  0.10157750811E+03  0.51100000000E-03 0. -1.
<mgrwt>
<rscale>  0 0.90977641E+02</rscale>
<asrwt>0</asrwt>
<pdfrwt beam="2">  1        1 0.19848821E-01 0.90977641E+02</pdfrwt>
<pdfrwt beam="1">  1       -1 0.24674475E-02 0.90977641E+02</pdfrwt>
<totfact> 0.10976815E+05</totfact>
</mgrwt>
</event>
<event>
 5   1  0.1357339E+00  0.9073001E+02  0.7818608E-02  0.1301093E+00
         -1   -1    0    0    0  501 -0.00000000000E+00  0.00000000000E+00  0.36628565366E+02  0.36628565664E+02  0.46700000000E-02 0.  1.
          1   -1    0    0  501    0  0.00000000000E+00 -0.00000000000E+00 -0.56185204755E+02  0.56185204949E+02  0.46700000000E-02 0. -1.
         23    2    1    2    0    0  0.00000000000E+00  0.00000000000E+00 -0.19556639389E+02  0.92813770613E+02  0.90730005352E+02 0.  0.
        -11    1    3    3    0    0  0.16424558327E+02 -0.23970405184E+02 -0.45415709619E+02  0.53915982059E+02  0.51100000000E-03 0. -1.
         11    1    3    3    0    0 -0.16424558327E+02  0.23970405184E+02  0.25859070230E+02  0.38897788554E+02  0.51100000000E-03 0.  1.
<mgrwt>
<rscale>  0 0.90730005E+02</rscale>
<asrwt>0</asrwt>
<pdfrwt beam="2">  1        1 0.86438777E-02 0.90730005E+02</pdfrwt>
<pdfrwt beam="1">  1       -1 0.56351639E-02 0.90730005E+02</pdfrwt>
<totfact> 0.96732352E+04</totfact>
</mgrwt>
</event>
<event>
 5   1  0.1357339E+00  0.9043405E+02  0.7818608E-02  0.1301804E+00
          1   -1    0    0  501    0  0.00000000000E+00  0.00000000000E+00  0.23838848589E+03  0.23838848593E+03  0.46700000000E-02 0. -1.
         -1   -1    0    0    0  501 -0.00000000000E+00 -0.00000000000E+00 -0.85766690100E+01  0.85766702814E+01  0.46700000000E-02 0.  1.
         23    2    1    2    0    0  0.00000000000E+00  0.00000000000E+00  0.22981181688E+03  0.24696515622E+03  0.90434048940E+02 0.  0.
        -11    1    3    3    0    0 -0.40924923104E+02 -0.18546436391E+02  0.10104556994E+03  0.11058493043E+03  0.51100000000E-03 0.  1.
         11    1    3    3    0    0  0.40924923104E+02  0.18546436391E+02  0.12876624694E+03  0.13638022579E+03  0.51100000000E-03 0. -1.
<mgrwt>
<rscale>  0 0.90434049E+02</rscale>
<asrwt>0</asrwt>
<pdfrwt beam="1">  1        1 0.36675152E-01 0.90434049E+02</pdfrwt>
<pdfrwt beam="2">  1       -1 0.13194876E-02 0.90434049E+02</pdfrwt>
<totfact> 0.12523538E+05</totfact>
</mgrwt>
</event>
<event>
 5   1  0.1357339E+00  0.9147661E+02  0.7818608E-02  0.1299315E+00
         -1   -1    0    0    0  501 -0.00000000000E+00  0.00000000000E+00  0.33572476949E+02  0.33572477273E+02  0.46700000000E-02 0.  1.
          1   -1    0    0  501    0  0.00000000000E+00 -0.00000000000E+00 -0.62312725844E+02  0.62312726019E+02  0.46700000000E-02 0. -1.
         23    2    1    2    0    0  0.00000000000E+00  0.00000000000E+00 -0.28740248896E+02  0.95885203293E+02  0.91476610693E+02 0.  0.
        -11    1    3    3    0    0 -0.23920482521E+02  0.38323684474E+02 -0.68773138626E+01  0.45696736448E+02  0.51100000000E-03 0. -1.
         11    1    3    3    0    0  0.23920482521E+02 -0.38323684474E+02 -0.21862935033E+02  0.50188466845E+02  0.51100000000E-03 0.  1.
<mgrwt>
<rscale>  0 0.91476611E+02</rscale>
<asrwt>0</asrwt>
<pdfrwt beam="2">  1        1 0.95865732E-02 0.91476611E+02</pdfrwt>
<pdfrwt beam="1">  1       -1 0.51649965E-02 0.91476611E+02</pdfrwt>
<totfact> 0.96047253E+04</totfact>
</mgrwt>
</event>
<event>
 5   1  0.1357339E+00  0.9246539E+02  0.7818608E-02  0.1296989E+00
          1   -1    0    0  501    0  0.00000000000E+00  0.00000000000E+00  0.89315490351E+02  0.89315490473E+02  0.46700000000E-02 0. -1.
         -1   -1    0    0    0  501 -0.00000000000E+00 -0.00000000000E+00 -0.23931592154E+02  0.23931592610E+02  0.46700000000E-02 0.  1.
         23    2    1    2    0    0  0.00000000000E+00  0.00000000000E+00  0.65383898197E+02  0.11324708308E+03  0.92465386407E+02 0.  0.
        -11    1    3    3    0    0 -0.39768477352E+02  0.20979114288E+01  0.39290954241E+01  0.40017131511E+02  0.51100000000E-03 0.  1.
         11    1    3    3    0    0  0.39768477352E+02 -0.20979114288E+01  0.61454802773E+02  0.73229951573E+02  0.51100000000E-03 0. -1.
<mgrwt>
<rscale>  0 0.92465386E+02</rscale>
<asrwt>0</asrwt>
<pdfrwt beam="1">  1        1 0.13740845E-01 0.92465386E+02</pdfrwt>
<pdfrwt beam="2">  1       -1 0.36817835E-02 0.92465386E+02</pdfrwt>
<totfact> 0.98665259E+04</totfact>
</mgrwt>
</event>
<event>
 5   1  0.1357339E+00  0.8975530E+02  0.7818608E-02  0.1303445E+00
          1   -1    0    0  501    0  0.00000000000E+00  0.00000000000E+00  0.94376614637E+02  0.94376614752E+02  0.46700000000E-02 0. -1.
         -1   -1    0    0    0  501 -0.00000000000E+00 -0.00000000000E+00 -0.21340068480E+02  0.21340068991E+02  0.46700000000E-02 0.  1.
         23    2    1    2    0    0  0.00000000000E+00  0.00000000000E+00  0.73036546156E+02  0.11571668374E+03  0.89755299689E+02 0.  0.
        -11    1    3    3    0    0  0.12792686930E+02 -0.15777301589E+02  0.88111120949E+02  0.90422042221E+02  0.51100000000E-03 0. -1.
         11    1    3    3    0    0 -0.12792686930E+02  0.15777301589E+02 -0.15074574793E+02  0.25294641522E+02  0.51100000000E-03 0.  1.
<mgrwt>
<rscale>  0 0.89755300E+02</rscale>
<asrwt>0</asrwt>
<pdfrwt beam="1">  1        1 0.14519480E-01 0.89755300E+02</pdfrwt>
<pdfrwt beam="2">  1       -1 0.32830874E-02 0.89755300E+02</pdfrwt>
<totfact> 0.10798599E+05</totfact>
</mgrwt>
</event>
<event>
 5   1  0.1357339E+00  0.9359781E+02  0.7818608E-02  0.1294366E+00
          1   -1    0    0  501    0  0.00000000000E+00  0.00000000000E+00  0.28041678151E+02  0.28041678540E+02  0.46700000000E-02 0. -1.
         -1   -1    0    0    0  501 -0.00000000000E+00 -0.00000000000E+00 -0.78102944361E+02  0.78102944501E+02  0.46700000000E-02 0.  1.
         23    2    1    2    0    0  0.00000000000E+00  0.00000000000E+00 -0.50061266210E+02  0.10614462304E+03  0.93597813147E+02 0.  0.
        -11    1    3    3    0    0  0.16368965204E+02  0.14931335419E+02  0.21717139003E+02  0.31024537482E+02  0.51100000000E-03 0. -1.
         11    1    3    3    0    0 -0.16368965204E+02 -0.14931335419E+02 -0.71778405213E+02  0.75120085559E+02  0.51100000000E-03 0.  1.
<mgrwt>
<rscale>  0 0.93597813E+02</rscale>
<asrwt>0</asrwt>
<pdfrwt beam="1">  1        1 0.43141044E-02 0.93597813E+02</pdfrwt>
<pdfrwt beam="2">  1       -1 0.12015838E-01 0.93597813E+02</pdfrwt>
<totfact> 0.79475873E+04</totfact>
</mgrwt>
</event>
<event>
 5   1  0.1357339E+00  0.9238632E+02  0.7818608E-02  0.1297174E+00
          1   -1    0    0  501    0  0.00000000000E+00  0.00000000000E+00  0.25791262368E+02  0.25791262791E+02  0.46700000000E-02 0. -1.
         -1   -1    0    0    0  501 -0.00000000000E+00 -0.00000000000E+00 -0.82733753775E+02  0.82733753907E+02  0.46700000000E-02 0.  1.
         23    2    1    2    0    0  0.00000000000E+00  0.00000000000E+00 -0.56942491407E+02  0.10852501670E+03  0.92386318910E+02 0.  0.
        -11    1    3    3    0    0  0.28795433806E+02  0.21534065934E+02 -0.62535449451E+02  0.72135812479E+02  0.51100000000E-03 0.  1.
         11    1    3    3    0    0 -0.28795433806E+02 -0.21534065934E+02  0.55929580439E+01  0.36389204219E+02  0.51100000000E-03 0. -1.
<mgrwt>
<rscale>  0 0.92386319E+02</rscale>
<asrwt>0</asrwt>
<pdfrwt beam="1">  1        1 0.39678866E-02 0.92386319E+02</pdfrwt>
<pdfrwt beam="2">  1       -1 0.12728270E-01 0.92386319E+02</pdfrwt>
<totfact> 0.81370228E+04</totfact>
</mgrwt>
</event>
<event>
 5   1  0.1357339E+00  0.8974218E+02  0.7818608E-02  0.1303477E+00
         -1   -1    0    0    0  501 -0.00000000000E+00  0.00000000000E+00  0.16353700967E+02  0.16353701634E+02  0.46700000000E-02 0.  1.
          1   -1    0    0  501    0  0.00000000000E+00 -0.00000000000E+00 -0.12311675624E+03  0.12311675633E+03  0.46700000000E-02 0. -1.
         23    2    1    2    0    0  0.00000000000E+00  0.00000000000E+00 -0.10676305527E+03  0.13947045796E+03  0.89742178898E+02 0.  0.
        -11    1    3    3    0    0 -0.18740563569E+02  0.40762079561E+02 -0.54642969874E+02  0.70700848721E+02  0.51100000000E-03 0.  1.
         11    1    3    3    0    0  0.18740563569E+02 -0.40762079561E+02 -0.52120085401E+02  0.68769609243E+02  0.51100000000E-03 0. -1.
<mgrwt>
<rscale>  0 0.89742179E+02</rscale>
<asrwt>0</asrwt>
<pdfrwt beam="2">  1        1 0.18941039E-01 0.89742179E+02</pdfrwt>
<pdfrwt beam="1">  1       -1 0.25159541E-02 0.89742179E+02</pdfrwt>
<totfact> 0.11296735E+05</totfact>
</mgrwt>
</event>
<event>
 5   1  0.1357339E+00  0.9037007E+02  0.7818608E-02  0.1301958E+00
         -1   -1    0    0    0  501 -0.00000000000E+00  0.00000000000E+00  0.12365751325E+03  0.12365751333E+03  0.46700000000E-02 0.  1.
          1   -1    0    0  501    0  0.00000000000E+00 -0.00000000000E+00 -0.16510824369E+02  0.16510825029E+02  0.46700000000E-02 0. -1.
         23    2    1    2    0    0  0.00000000000E+00  0.00000000000E+00  0.10714668888E+03  0.14016833836E+03  0.90370073266E+02 0.  0.
        -11    1    3    3    0    0 -0.27526151526E+01 -0.43733796221E+02  0.70667676773E+02  0.83151322075E+02  0.51100000000E-03 0.  1.
         11    1    3    3    0    0  0.27526151526E+01  0.43733796221E+02  0.36479012105E+02  0.57017016289E+02  0.51100000000E-03 0. -1.
<mgrwt>
<rscale>  0 0.90370073E+02</rscale>
<asrwt>0</asrwt>
<pdfrwt beam="2">  1        1 0.25401269E-02 0.90370073E+02</pdfrwt>
<pdfrwt beam="1">  1       -1 0.19024233E-01 0.90370073E+02</pdfrwt>
<totfact> 0.79859059E+04</totfact>
</mgrwt>
</event>
<event>
 5   1  0.1357339E+00  0.9234556E+02  0.7818608E-02  0.1297269E+00
         -1   -1    0    0    0  501 -0.00000000000E+00  0.00000000000E+00  0.17533523819E+02  0.17533524441E+02  0.46700000000E-02 0.  1.
          1   -1    0    0  501    0  0.00000000000E+00 -0.00000000000E+00 -0.12159138485E+03  0.12159138494E+03  0.46700000000E-02 0. -1.
         23    2    1    2    0    0  0.00000000000E+00  0.00000000000E+00 -0.10405786104E+03  0.13912490939E+03  0.92345557382E+02 0.  0.
        -11    1    3    3    0    0  0.29731914287E+02 -0.10125075696E+02 -0.10301735270E+03  0.10769901969E+03  0.51100000000E-03 0.  1.
         11    1    3    3    0    0 -0.29731914287E+02  0.10125075696E+02 -0.10405083330E+01  0.31425889691E+02  0.51100000000E-03 0. -1.
<mgrwt>
<rscale>  0 0.92345557E+02</rscale>
<asrwt>0</asrwt>
<pdfrwt beam="2">  1        1 0.18706366E-01 0.92345557E+02</pdfrwt>
<pdfrwt beam="1">  1       -1 0.26974653E-02 0.92345557E+02</pdfrwt>
<totfact> 0.10431472E+05</totfact>
</mgrwt>
</event>
<event>
 5   1  0.1357339E+00  0.9209394E+02  0.7818608E-02  0.1297859E+00
          1   -1    0    0  501    0  0.00000000000E+00  0.00000000000E+00  0.87355678920E+01  0.87355691403E+01  0.46700000000E-02 0. -1.
         -1   -1    0    0    0  501 -0.00000000000E+00 -0.00000000000E+00 -0.24272301869E+03  0.24272301873E+03  0.46700000000E-02 0.  1.
         23    2    1    2    0    0  0.00000000000E+00  0.00000000000E+00 -0.23398745080E+03  0.25145858787E+03  0.92093942717E+02 0.  0.
        -11    1    3    3    0    0 -0.37248560384E+02 -0.34886301692E+01 -0.43692371190E+02  0.57520857884E+02  0.51100000000E-03 0. -1.
         11    1    3    3    0    0  0.37248560384E+02  0.34886301692E+01 -0.19029507961E+03  0.19393772999E+03  0.51100000000E-03 0.  1.
<mgrwt>
<rscale>  0 0.92093943E+02</rscale>
<asrwt>0</asrwt>
<pdfrwt beam="1">  1        1 0.13439338E-02 0.92093943E+02</pdfrwt>
<pdfrwt beam="2">  1       -1 0.37341998E-01 0.92093943E+02</pdfrwt>
<totfact> 0.63720422E+04</totfact>
</mgrwt>
</event>
<event>
 5   1  0.1357339E+00  0.9023067E+02  0.7818608E-02  0.1302294E+00
         -1   -1    0    0    0  501 -0.00000000000E+00  0.00000000000E+00  0.11303373259E+03  0.11303373269E+03  0.46700000000E-02 0.  1.
          1   -1    0    0  501    0  0.00000000000E+00 -0.00000000000E+00 -0.18006955224E+02  0.18006955829E+02  0.46700000000E-02 0. -1.
         23    2    1    2    0    0  0.00000000000E+00  0.00000000000E+00  0.95026777368E+02  0.13104068852E+03  0.90230669011E+02 0.  0.
        -11    1    3    3    0    0  0.29758961661E+02  0.28546685400E+02  0.74089988811E+02  0.84792897632E+02  0.51100000000E-03 0.  1.
         11    1    3    3    0    0 -0.29758961661E+02 -0.28546685400E+02  0.20936788556E+02  0.46247790886E+02  0.51100000000E-03 0. -1.
<mgrwt>
<rscale>  0 0.90230669E+02</rscale>
<asrwt>0</asrwt>
<pdfrwt beam="2">  1        1 0.27703008E-02 0.90230669E+02</pdfrwt>
<pdfrwt beam="1">  1       -1 0.17389805E-01 0.90230669E+02</pdfrwt>
<totfact> 0.81649077E+04</totfact>
</mgrwt>
</event>
<event>
 5   1  0.1357339E+00  0.9315665E+02  0.7818608E-02  0.1295383E+00
         -1   -1    0    0    0  501 -0.00000000000E+00  0.00000000000E+00  0.34719641400E+02  0.34719641714E+02  0.46700000000E-02 0.  1.
          1   -1    0    0  501    0  0.00000000000E+00 -0.00000000000E+00 -0.62487408322E+02  0.62487408496E+02  0.46700000000E-02 0. -1.
         23    2    1    2    0    0  0.00000000000E+00  0.00000000000E+00 -0.27767766922E+02  0.97207050211E+02  0.93156651565E+02 0.  0.
        -11    1    3    3    0    0 -0.14453269374E+02  0.41738030860E+01 -0.59882544902E+02  0.61743313905E+02  0.51100000000E-03 0. -1.
         11    1    3    3    0    0  0.14453269374E+02 -0.41738030860E+01  0.32114777980E+02  0.35463736306E+02  0.51100000000E-03 0.  1.
<mgrwt>
<rscale>  0 0.93156652E+02</rscale>
<asrwt>0</asrwt>
<pdfrwt beam="2">  1        1 0.96134475E-02 0.93156652E+02</pdfrwt>
<pdfrwt beam="1">  1       -1 0.53414833E-02 0.93156652E+02</pdfrwt>
<totfact> 0.91352478E+04</totfact>
</mgrwt>
</event>
<event>
 5   1  0.1357339E+00  0.9132779E+02  0.7818608E-02  0.1299668E+00
         -1   -1    0    0    0  501 -0.00000000000E+00  0.00000000000E+00  0.11059392530E+02  0.11059393516E+02  0.46700000000E-02 0.  1.
          1   -1    0    0  501    0  0.00000000000E+00 -0.00000000000E+00 -0.18854483746E+03  0.18854483752E+03  0.46700000000E-02 0. -1.
         23    2    1    2    0    0  0.00000000000E+00  0.00000000000E+00 -0.17748544493E+03  0.19960423103E+03  0.91327793605E+02 0.  0.
        -11    1    3    3    0    0  0.59454231132E+01 -0.28038850534E+02 -0.16643591629E+03  0.16888587693E+03  0.51100000000E-03 0. -1.
         11    1    3    3    0    0 -0.59454231132E+01  0.28038850534E+02 -0.11049528636E+02  0.30718354100E+02  0.51100000000E-03 0.  1.
<mgrwt>
<rscale>  0 0.91327794E+02</rscale>
<asrwt>0</asrwt>
<pdfrwt beam="2">  1        1 0.29006896E-01 0.91327794E+02</pdfrwt>
<pdfrwt beam="1">  1       -1 0.17014452E-02 0.91327794E+02</pdfrwt>
<totfact> 0.11654448E+05</totfact>
</mgrwt>
</event>
<event>
 5   1  0.1357339E+00  0.9079306E+02  0.7818608E-02  0.1300942E+00
         -1   -1    0    0    0  501 -0.00000000000E+00  0.00000000000E+00  0.29993277566E+03  0.29993277570E+03  0.46700000000E-02 0.  1.
          1   -1    0    0  501    0  0.00000000000E+00 -0.00000000000E+00 -0.68710220612E+01  0.68710236482E+01  0.46700000000E-02 0. -1.
         23    2    1    2    0    0  0.00000000000E+00  0.00000000000E+00  0.29306175360E+03  0.30680379935E+03  0.90793060693E+02 0.  0.
        -11    1    3    3    0    0 -0.43624109699E+02 -0.75175644133E+01  0.11252572487E+03  0.12091987215E+03  0.51100000000E-03 0.  1.
         11    1    3    3    0    0  0.43624109699E+02  0.75175644133E+01  0.18053602873E+03  0.18588392720E+03  0.51100000000E-03 0. -1.
<mgrwt>
<rscale>  0 0.90793061E+02</rscale>
<asrwt>0</asrwt>
<pdfrwt beam="2">  1        1 0.10570803E-02 0.90793061E+02</pdfrwt>
<pdfrwt beam="1">  1       -1 0.46143512E-01 0.90793061E+02</pdfrwt>
<totfact> 0.61263586E+04</totfact>
</mgrwt>
</event>
<event>
 5   1  0.1357339E+00  0.9593774E+02  0.7818608E-02  0.1289078E+00
          1   -1    0    0  501    0  0.00000000000E+00  0.00000000000E+00  0.14709987791E+02  0.14709988532E+02  0.46700000000E-02 0. -1.
         -1   -1    0    0    0  501 -0.00000000000E+00 -0.00000000000E+00 -0.15642517618E+03  0.15642517625E+03  0.46700000000E-02 0.  1.
         23    2    1    2    0    0  0.00000000000E+00  0.00000000000E+00 -0.14171518839E+03  0.17113516478E+03  0.95937740252E+02 0.  0.
        -11    1    3    3    0    0  0.11612842314E+02 -0.25322721341E+02 -0.11993579604E+01  0.27884346550E+02  0.51100000000E-03 0. -1.
         11    1    3    3    0    0 -0.11612842314E+02  0.25322721341E+02 -0.14051583043E+03  0.14325081823E+03  0.51100000000E-03 0.  1.
<mgrwt>
<rscale>  0 0.95937740E+02</rscale>
<asrwt>0</asrwt>
<pdfrwt beam="1">  1        1 0.22630752E-02 0.95937740E+02</pdfrwt>
<pdfrwt beam="2">  1       -1 0.24065411E-01 0.95937740E+02</pdfrwt>
<totfact> 0.64861206E+04</totfact>
</mgrwt>
</event>
<event>
 5   1  0.1357339E+00  0.9214210E+02  0.7818608E-02  0.1297746E+00
          1   -1    0    0  501    0  0.00000000000E+00  0.00000000000E+00  0.21308657293E+02  0.21308657804E+02  0.46700000000E-02 0. -1.
         -1   -1    0    0    0  501 -0.00000000000E+00 -0.00000000000E+00 -0.99609350112E+02  0.99609350221E+02  0.46700000000E-02 0.  1.
         23    2    1    2    0    0  0.00000000000E+00  0.00000000000E+00 -0.78300692819E+02  0.12091800803E+03  0.92142097702E+02 0.  0.
        -11    1    3    3    0    0 -0.10964651029E+02 -0.29830602608E+02  0.46193715073E+01  0.32115837487E+02  0.51100000000E-03 0. -1.
         11    1    3    3    0    0  0.10964651029E+02  0.29830602608E+02 -0.82920064327E+02  0.88802170538E+02  0.51100000000E-03 0.  1.
<mgrwt>
<rscale>  0 0.92142098E+02</rscale>
<asrwt>0</asrwt>
<pdfrwt beam="1">  1        1 0.32782551E-02 0.92142098E+02</pdfrwt>
<pdfrwt beam="2">  1       -1 0.15324515E-01 0.92142098E+02</pdfrwt>
<totfact> 0.79248818E+04</totfact>
</mgrwt>
</event>
<event>
 5   1  0.1357339E+00  0.8619984E+02  0.7818608E-02  0.1312324E+00
         -1   -1    0    0    0  501 -0.00000000000E+00  0.00000000000E+00  0.66910495138E+02  0.66910495301E+02  0.46700000000E-02 0.  1.
          1   -1    0    0  501    0  0.00000000000E+00 -0.00000000000E+00 -0.27762507317E+02  0.27762507710E+02  0.46700000000E-02 0. -1.
         23    2    1    2    0    0  0.00000000000E+00  0.00000000000E+00  0.39147987821E+02  0.94673003010E+02  0.86199840769E+02 0.  0.
        -11    1    3    3    0    0  0.32377037092E+02  0.11542871556E+02  0.48131667149E+02  0.59145310866E+02  0.51100000000E-03 0.  1.
         11    1    3    3    0    0 -0.32377037092E+02 -0.11542871556E+02 -0.89836793286E+01  0.35527692145E+02  0.51100000000E-03 0. -1.
<mgrwt>
<rscale>  0 0.86199841E+02</rscale>
<asrwt>0</asrwt>
<pdfrwt beam="2">  1        1 0.42711550E-02 0.86199841E+02</pdfrwt>
<pdfrwt beam="1">  1       -1 0.10293922E-01 0.86199841E+02</pdfrwt>
<totfact> 0.10054011E+05</totfact>
</mgrwt>
</event>
<event>
 5   1  0.1357339E+00  0.8952268E+02  0.7818608E-02  0.1304012E+00
         -1   -1    0    0    0  501 -0.00000000000E+00  0.00000000000E+00  0.11690317896E+02  0.11690318829E+02  0.46700000000E-02 0.  1.
          1   -1    0    0  501    0  0.00000000000E+00 -0.00000000000E+00 -0.17138775909E+03  0.17138775915E+03  0.46700000000E-02 0. -1.
         23    2    1    2    0    0  0.00000000000E+00  0.00000000000E+00 -0.15969744119E+03  0.18307807798E+03  0.89522678209E+02 0.  0.
        -11    1    3    3    0    0 -0.28382652504E+02 -0.13862716603E+02 -0.14990496478E+02  0.34963764953E+02  0.51100000000E-03 0.  1.
         11    1    3    3    0    0  0.28382652504E+02  0.13862716603E+02 -0.14470694472E+03  0.14811431303E+03  0.51100000000E-03 0. -1.
<mgrwt>
<rscale>  0 0.89522678E+02</rscale>
<asrwt>0</asrwt>
<pdfrwt beam="2">  1        1 0.26367346E-01 0.89522678E+02</pdfrwt>
<pdfrwt beam="1">  1       -1 0.17985106E-02 0.89522678E+02</pdfrwt>
<totfact> 0.12074403E+05</totfact>
</mgrwt>
</event>
<event>
 5   1  0.1357339E+00  0.9176172E+02  0.7818608E-02  0.1298641E+00
         -1   -1    0    0    0  501 -0.00000000000E+00  0.00000000000E+00  0.74925438327E+02  0.74925438473E+02  0.46700000000E-02 0. -1.
          1   -1    0    0  501    0  0.00000000000E+00 -0.00000000000E+00 -0.28095308242E+02  0.28095308630E+02  0.46700000000E-02 0.  1.
         23    2    1    2    0    0  0.00000000000E+00  0.00000000000E+00  0.46830130085E+02  0.10302074710E+03  0.91761719958E+02 0.  0.
        -11    1    3    3    0    0  0.25818292802E+02  0.35810514497E+02  0.93891443022E+01  0.45134612248E+02  0.51100000000E-03 0. -1.
         11    1    3    3    0    0 -0.25818292802E+02 -0.35810514497E+02  0.37440985783E+02  0.57886134855E+02  0.51100000000E-03 0.  1.
<mgrwt>
<rscale>  0 0.91761720E+02</rscale>
<asrwt>0</asrwt>
<pdfrwt beam="2">  1        1 0.43223552E-02 0.91761720E+02</pdfrwt>
<pdfrwt beam="1">  1       -1 0.11526990E-01 0.91761720E+02</pdfrwt>
<totfact> 0.84194533E+04</totfact>
</mgrwt>
</event>
<event>
 5   1  0.1357339E+00  0.9100912E+02  0.7818608E-02  0.1300426E+00
          1   -1    0    0  501    0  0.00000000000E+00  0.00000000000E+00  0.13020776621E+02  0.13020777459E+02  0.46700000000E-02 0. -1.
         -1   -1    0    0    0  501 -0.00000000000E+00 -0.00000000000E+00 -0.15902775517E+03  0.15902775524E+03  0.46700000000E-02 0.  1.
         23    2    1    2    0    0  0.00000000000E+00  0.00000000000E+00 -0.14600697855E+03  0.17204853270E+03  0.91009119425E+02 0.  0.
        -11    1    3    3    0    0  0.61856377892E+01 -0.45047530772E+02 -0.69662778316E+02  0.83189210998E+02  0.51100000000E-03 0. -1.
         11    1    3    3    0    0 -0.61856377892E+01  0.45047530772E+02 -0.76344200236E+02  0.88859321703E+02  0.51100000000E-03 0.  1.
<mgrwt>
<rscale>  0 0.91009119E+02</rscale>
<asrwt>0</asrwt>
<pdfrwt beam="1">  1        1 0.20031966E-02 0.91009119E+02</pdfrwt>
<pdfrwt beam="2">  1       -1 0.24465807E-01 0.91009119E+02</pdfrwt>
<totfact> 0.74106588E+04</totfact>
</mgrwt>
</event>
<event>
 5   1  0.1357339E+00  0.8735178E+02  0.7818608E-02  0.1309394E+00
         -1   -1    0    0    0  501 -0.00000000000E+00  0.00000000000E+00  0.11766521584E+02  0.11766522511E+02  0.46700000000E-02 0.  1.
          1   -1    0    0  501    0  0.00000000000E+00 -0.00000000000E+00 -0.16211957365E+03  0.16211957372E+03  0.46700000000E-02 0. -1.
         23    2    1    2    0    0  0.00000000000E+00  0.00000000000E+00 -0.15035305207E+03  0.17388609623E+03  0.87351784159E+02 0.  0.
        -11    1    3    3    0    0 -0.13858945508E+02 -0.20731182441E+02 -0.14655515109E+03  0.14866157744E+03  0.51100000000E-03 0. -1.
         11    1    3    3    0    0  0.13858945508E+02  0.20731182441E+02 -0.37979009773E+01  0.25224518788E+02  0.51100000000E-03 0.  1.
<mgrwt>
<rscale>  0 0.87351784E+02</rscale>
<asrwt>0</asrwt>
<pdfrwt beam="2">  1        1 0.24941471E-01 0.87351784E+02</pdfrwt>
<pdfrwt beam="1">  1       -1 0.18102343E-02 0.87351784E+02</pdfrwt>
<totfact> 0.12762876E+05</totfact>
</mgrwt>
</event>
<event>
 5   1  0.1357339E+00  0.9108379E+02  0.7818608E-02  0.1300248E+00
         -1   -1    0    0    0  501 -0.00000000000E+00  0.00000000000E+00  0.93691236735E+02  0.93691236851E+02  0.46700000000E-02 0.  1.
          1   -1    0    0  501    0  0.00000000000E+00 -0.00000000000E+00 -0.22137226989E+02  0.22137227482E+02  0.46700000000E-02 0. -1.
         23    2    1    2    0    0  0.00000000000E+00  0.00000000000E+00  0.71554009746E+02  0.11582846433E+03  0.91083790210E+02 0.  0.
        -11    1    3    3    0    0 -0.94742951329E+00 -0.33270083229E+02 -0.37526512330E+01  0.33494454053E+02  0.51100000000E-03 0. -1.
         11    1    3    3    0    0  0.94742951329E+00  0.33270083229E+02  0.75306660979E+02  0.82334010280E+02  0.51100000000E-03 0.  1.
<mgrwt>
<rscale>  0 0.91083790E+02</rscale>
<asrwt>0</asrwt>
<pdfrwt beam="2">  1        1 0.34057273E-02 0.91083790E+02</pdfrwt>
<pdfrwt beam="1">  1       -1 0.14414037E-01 0.91083790E+02</pdfrwt>
<totfact> 0.82564449E+04</totfact>
</mgrwt>
</event>
<event>
 5   1  0.1357339E+00  0.9033161E+02  0.7818608E-02  0.1302051E+00
         -1   -1    0    0    0  501 -0.00000000000E+00  0.00000000000E+00  0.18357095866E+02  0.18357096460E+02  0.46700000000E-02 0.  1.
          1   -1    0    0  501    0  0.00000000000E+00 -0.00000000000E+00 -0.11112595842E+03  0.11112595852E+03  0.46700000000E-02 0. -1.
         23    2    1    2    0    0  0.00000000000E+00  0.00000000000E+00 -0.92768862552E+02  0.12948305498E+03  0.90331609456E+02 0.  0.
        -11    1    3    3    0    0  0.24201415417E+02 -0.17260574820E+02  0.23584362077E+01  0.29819426100E+02  0.51100000000E-03 0.  1.
         11    1    3    3    0    0 -0.24201415417E+02  0.17260574820E+02 -0.95127298760E+02  0.99663628877E+02  0.51100000000E-03 0. -1.
<mgrwt>
<rscale>  0 0.90331609E+02</rscale>
<asrwt>0</asrwt>
<pdfrwt beam="2">  1        1 0.17096301E-01 0.90331609E+02</pdfrwt>
<pdfrwt beam="1">  1       -1 0.28241687E-02 0.90331609E+02</pdfrwt>
<totfact> 0.10904598E+05</totfact>
</mgrwt>
</event>
<event>
 5   1  0.1357339E+00  0.9202399E+02  0.7818608E-02  0.1298023E+00
          1   -1    0    0  501    0  0.00000000000E+00  0.00000000000E+00  0.31952660889E+03  0.31952660893E+03  0.46700000000E-02 0. -1.
         -1   -1    0    0    0  501 -0.00000000000E+00 -0.00000000000E+00 -0.66257504505E+01  0.66257520963E+01  0.46700000000E-02 0.  1.
         23    2    1    2    0    0  0.00000000000E+00  0.00000000000E+00  0.31290085844E+03  0.32615236102E+03  0.92023993540E+02 0.  0.
        -11    1    3    3    0    0  0.37367714507E+02 -0.24630947009E+02  0.19430455166E+03  0.19939229783E+03  0.51100000000E-03 0.  1.
         11    1    3    3    0    0 -0.37367714507E+02  0.24630947009E+02  0.11859630678E+03  0.12676006319E+03  0.51100000000E-03 0. -1.
<mgrwt>
<rscale>  0 0.92023994E+02</rscale>
<asrwt>0</asrwt>
<pdfrwt beam="1">  1        1 0.49157950E-01 0.92023994E+02</pdfrwt>
<pdfrwt beam="2">  1       -1 0.10193462E-02 0.92023994E+02</pdfrwt>
<totfact> 0.12649874E+05</totfact>
</mgrwt>
</event>
<event>
 5   1  0.1357339E+00  0.9243044E+02  0.7818608E-02  0.1297071E+00
         -1   -1    0    0    0  501 -0.00000000000E+00  0.00000000000E+00  0.44510095557E+02  0.44510095802E+02  0.46700000000E-02 0.  1.
          1   -1    0    0  501    0  0.00000000000E+00 -0.00000000000E+00 -0.47985664878E+02  0.47985665106E+02  0.46700000000E-02 0. -1.
         23    2    1    2    0    0  0.00000000000E+00  0.00000000000E+00 -0.34755693209E+01  0.92495760908E+02  0.92430439812E+02 0.  0.
        -11    1    3    3    0    0  0.28126586516E+02 -0.17069565925E+02 -0.34216407996E+02  0.47468279159E+02  0.51100000000E-03 0. -1.
         11    1    3    3    0    0 -0.28126586516E+02  0.17069565925E+02  0.30740838675E+02  0.45027481749E+02  0.51100000000E-03 0.  1.
<mgrwt>
<rscale>  0 0.92430440E+02</rscale>
<asrwt>0</asrwt>
<pdfrwt beam="2">  1        1 0.73824100E-02 0.92430440E+02</pdfrwt>
<pdfrwt beam="1">  1       -1 0.68477070E-02 0.92430440E+02</pdfrwt>
<totfact> 0.89683644E+04</totfact>
</mgrwt>
</event>
<event>
 5   1  0.1357339E+00  0.9022205E+02  0.7818608E-02  0.1302315E+00
         -1   -1    0    0    0  501 -0.00000000000E+00  0.00000000000E+00  0.33099125153E+02  0.33099125482E+02  0.46700000000E-02 0.  1.
          1   -1    0    0  501    0  0.00000000000E+00 -0.00000000000E+00 -0.61482127282E+02  0.61482127459E+02  0.46700000000E-02 0. -1.
         23    2    1    2    0    0  0.00000000000E+00  0.00000000000E+00 -0.28383002129E+02  0.94581252941E+02  0.90222051618E+02 0.  0.
        -11    1    3    3    0    0  0.24708469377E+02 -0.21587585719E+02  0.18263539402E+02  0.37551154282E+02  0.51100000000E-03 0.  1.
         11    1    3    3    0    0 -0.24708469377E+02  0.21587585719E+02 -0.46646541531E+02  0.57030098660E+02  0.51100000000E-03 0. -1.
<mgrwt>
<rscale>  0 0.90222052E+02</rscale>
<asrwt>0</asrwt>
<pdfrwt beam="2">  1        1 0.94587888E-02 0.90222052E+02</pdfrwt>
<pdfrwt beam="1">  1       -1 0.50921732E-02 0.90222052E+02</pdfrwt>
<totfact> 0.99587280E+04</totfact>
</mgrwt>
</event>
<event>
 5   1  0.1357339E+00  0.9246908E+02  0.7818608E-02  0.1296980E+00
          1   -1    0    0  501    0  0.00000000000E+00  0.00000000000E+00  0.83090766300E+01  0.83090779424E+01  0.46700000000E-02 0. -1.
         -1   -1    0    0    0  501 -0.00000000000E+00 -0.00000000000E+00 -0.25726474506E+03  0.25726474511E+03  0.46700000000E-02 0.  1.
         23    2    1    2    0    0  0.00000000000E+00  0.00000000000E+00 -0.24895566843E+03  0.26557382305E+03  0.92469079390E+02 0.  0.
        -11    1    3    3    0    0  0.33534669801E+02 -0.24006040251E+02 -0.18450038429E+03  0.18905357931E+03  0.51100000000E-03 0.  1.
         11    1    3    3    0    0 -0.33534669801E+02  0.24006040251E+02 -0.64455284144E+02  0.76520243737E+02  0.51100000000E-03 0. -1.
<mgrwt>
<rscale>  0 0.92469079E+02</rscale>
<asrwt>0</asrwt>
<pdfrwt beam="1">  1        1 0.12783198E-02 0.92469079E+02</pdfrwt>
<pdfrwt beam="2">  1       -1 0.39579186E-01 0.92469079E+02</pdfrwt>
<totfact> 0.61814830E+04</totfact>
</mgrwt>
</event>
<event>
 5   1  0.1357339E+00  0.9200176E+02  0.7818608E-02  0.1298075E+00
          1   -1    0    0  501    0  0.00000000000E+00  0.00000000000E+00  0.18592137135E+03  0.18592137141E+03  0.46700000000E-02 0. -1.
         -1   -1    0    0    0  501 -0.00000000000E+00 -0.00000000000E+00 -0.11381589992E+02  0.11381590950E+02  0.46700000000E-02 0.  1.
         23    2    1    2    0    0  0.00000000000E+00  0.00000000000E+00  0.17453978135E+03  0.19730296236E+03  0.92001759106E+02 0.  0.
        -11    1    3    3    0    0  0.12992710939E+02 -0.33618803891E+02  0.14856994182E+03  0.15287924033E+03  0.51100000000E-03 0. -1.
         11    1    3    3    0    0 -0.12992710939E+02  0.33618803891E+02  0.25969839539E+02  0.44423722025E+02  0.51100000000E-03 0.  1.
<mgrwt>
<rscale>  0 0.92001759E+02</rscale>
<asrwt>0</asrwt>
<pdfrwt beam="1">  1        1 0.28603288E-01 0.92001759E+02</pdfrwt>
<pdfrwt beam="2">  1       -1 0.17510139E-02 0.92001759E+02</pdfrwt>
<totfact> 0.11395494E+05</totfact>
</mgrwt>
</event>
<event>
 5   1  0.1357339E+00  0.7155331E+02  0.7818608E-02  0.1354889E+00
         -1   -1    0    0    0  501 -0.00000000000E+00  0.00000000000E+00  0.66577981480E+02  0.66577981643E+02  0.46700000000E-02 0.  1.
          1   -1    0    0  501    0  0.00000000000E+00 -0.00000000000E+00 -0.19225110061E+02  0.19225110628E+02  0.46700000000E-02 0. -1.
         23    2    1    2    0    0  0.00000000000E+00  0.00000000000E+00  0.47352871419E+02  0.85803092271E+02  0.71553310278E+02 0.  0.
        -11    1    3    3    0    0  0.31025844911E+01 -0.27856938500E+02 -0.29849949571E+01  0.28187679016E+02  0.51100000000E-03 0. -1.
         11    1    3    3    0    0 -0.31025844911E+01  0.27856938500E+02  0.50337866376E+02  0.57615413256E+02  0.51100000000E-03 0.  1.
<mgrwt>
<rscale>  0 0.71553310E+02</rscale>
<asrwt>0</asrwt>
<pdfrwt beam="2">  1        1 0.29577093E-02 0.71553310E+02</pdfrwt>
<pdfrwt beam="1">  1       -1 0.10242766E-01 0.71553310E+02</pdfrwt>
<totfact> 0.16132050E+05</totfact>
</mgrwt>
</event>
<event>
 5   1  0.1357339E+00  0.9386272E+02  0.7818608E-02  0.1293758E+00
          1   -1    0    0  501    0  0.00000000000E+00  0.00000000000E+00  0.89543098141E+01  0.89543110319E+01  0.46700000000E-02 0. -1.
         -1   -1    0    0    0  501 -0.00000000000E+00 -0.00000000000E+00 -0.24597680248E+03  0.24597680253E+03  0.46700000000E-02 0.  1.
         23    2    1    2    0    0  0.00000000000E+00  0.00000000000E+00 -0.23702249267E+03  0.25493111356E+03  0.93862722257E+02 0.  0.
        -11    1    3    3    0    0 -0.40284530735E+02  0.10300341921E+02 -0.17761854838E+03  0.18242063806E+03  0.51100000000E-03 0.  1.
         11    1    3    3    0    0  0.40284530735E+02 -0.10300341921E+02 -0.59403944287E+02  0.72510475501E+02  0.51100000000E-03 0. -1.
<mgrwt>
<rscale>  0 0.93862722E+02</rscale>
<asrwt>0</asrwt>
<pdfrwt beam="1">  1        1 0.13775864E-02 0.93862722E+02</pdfrwt>
<pdfrwt beam="2">  1       -1 0.37842580E-01 0.93862722E+02</pdfrwt>
<totfact> 0.60358824E+04</totfact>
</mgrwt>
</event>
<event>
 5   1  0.1357339E+00  0.9349098E+02  0.7818608E-02  0.1294611E+00
         -1   -1    0    0    0  501 -0.00000000000E+00  0.00000000000E+00  0.87652296896E+02  0.87652297020E+02  0.46700000000E-02 0.  1.
          1   -1    0    0  501    0  0.00000000000E+00 -0.00000000000E+00 -0.24929647403E+02  0.24929647840E+02  0.46700000000E-02 0. -1.
         23    2    1    2    0    0  0.00000000000E+00  0.00000000000E+00  0.62722649493E+02  0.11258194486E+03  0.93490981112E+02 0.  0.
        -11    1    3    3    0    0  0.17554539446E+02 -0.41296797325E+02  0.15588884160E+02  0.47503690742E+02  0.51100000000E-03 0. -1.
         11    1    3    3    0    0 -0.17554539446E+02  0.41296797325E+02  0.47133765332E+02  0.65078254119E+02  0.51100000000E-03 0.  1.
<mgrwt>
<rscale>  0 0.93490981E+02</rscale>
<asrwt>0</asrwt>
<pdfrwt beam="2">  1        1 0.38353304E-02 0.93490981E+02</pdfrwt>
<pdfrwt beam="1">  1       -1 0.13484969E-01 0.93490981E+02</pdfrwt>
<totfact> 0.78131713E+04</totfact>
</mgrwt>
</event>
<event>
 5   1  0.1357339E+00  0.9199669E+02  0.7818608E-02  0.1298087E+00
          1   -1    0    0  501    0  0.00000000000E+00  0.00000000000E+00  0.80316533256E+02  0.80316533391E+02  0.46700000000E-02 0. -1.
         -1   -1    0    0    0  501 -0.00000000000E+00 -0.00000000000E+00 -0.26343862884E+02  0.26343863298E+02  0.46700000000E-02 0.  1.
         23    2    1    2    0    0  0.00000000000E+00  0.00000000000E+00  0.53972670372E+02  0.10666039669E+03  0.91996690565E+02 0.  0.
        -11    1    3    3    0    0  0.77065820508E+01  0.17283187690E+02 -0.21621834655E+02  0.28733320688E+02  0.51100000000E-03 0.  1.
         11    1    3    3    0    0 -0.77065820508E+01 -0.17283187690E+02  0.75594505027E+02  0.77927076001E+02  0.51100000000E-03 0. -1.
<mgrwt>
<rscale>  0 0.91996691E+02</rscale>
<asrwt>0</asrwt>
<pdfrwt beam="1">  1        1 0.12356390E-01 0.91996691E+02</pdfrwt>
<pdfrwt beam="2">  1       -1 0.40529021E-02 0.91996691E+02</pdfrwt>
<totfact> 0.98356805E+04</totfact>
</mgrwt>
</event>
<event>
 5   1  0.1357339E+00  0.9211007E+02  0.7818608E-02  0.1297821E+00
         -1   -1    0    0    0  501 -0.00000000000E+00  0.00000000000E+00  0.47402081538E+02  0.47402081768E+02  0.46700000000E-02 0. -1.
          1   -1    0    0  501    0  0.00000000000E+00 -0.00000000000E+00 -0.44746263501E+02  0.44746263744E+02  0.46700000000E-02 0.  1.
         23    2    1    2    0    0  0.00000000000E+00  0.00000000000E+00  0.26558180376E+01  0.92148345513E+02  0.92110065744E+02 0.  0.
        -11    1    3    3    0    0  0.54398305127E+01  0.41340373917E+02  0.20892308519E+02  0.46638040559E+02  0.51100000000E-03 0. -1.
         11    1    3    3    0    0 -0.54398305127E+01 -0.41340373917E+02 -0.18236490482E+02  0.45510304954E+02  0.51100000000E-03 0.  1.
<mgrwt>
<rscale>  0 0.92110066E+02</rscale>
<asrwt>0</asrwt>
<pdfrwt beam="2">  1        1 0.68840406E-02 0.92110066E+02</pdfrwt>
<pdfrwt beam="1">  1       -1 0.72926279E-02 0.92110066E+02</pdfrwt>
<totfact> 0.89607876E+04</totfact>
</mgrwt>
</event>
<event>
 5   1  0.1357339E+00  0.9038257E+02  0.7818608E-02  0.1301928E+00
         -1   -1    0    0    0  501 -0.00000000000E+00  0.00000000000E+00  0.23711702288E+02  0.23711702748E+02  0.46700000000E-02 0.  1.
          1   -1    0    0  501    0  0.00000000000E+00 -0.00000000000E+00 -0.86128451018E+02  0.86128451145E+02  0.46700000000E-02 0. -1.
         23    2    1    2    0    0  0.00000000000E+00  0.00000000000E+00 -0.62416748730E+02  0.10984015389E+03  0.90382569587E+02 0.  0.
        -11    1    3    3    0    0 -0.38307397248E+02 -0.20002881321E+02 -0.15146420169E+02  0.45792859588E+02  0.51100000000E-03 0.  1.
         11    1    3    3    0    0  0.38307397248E+02  0.20002881321E+02 -0.47270328562E+02  0.64047294304E+02  0.51100000000E-03 0. -1.
<mgrwt>
<rscale>  0 0.90382570E+02</rscale>
<asrwt>0</asrwt>
<pdfrwt beam="2">  1        1 0.13250531E-01 0.90382570E+02</pdfrwt>
<pdfrwt beam="1">  1       -1 0.36479543E-02 0.90382570E+02</pdfrwt>
<totfact> 0.10440323E+05</totfact>
</mgrwt>
</event>
<event>
 5   1  0.1357339E+00  0.9054745E+02  0.7818608E-02  0.1301531E+00
         -1   -1    0    0    0  501 -0.00000000000E+00  0.00000000000E+00  0.14352285193E+03  0.14352285200E+03  0.46700000000E-02 0.  1.
          1   -1    0    0  501    0  0.00000000000E+00 -0.00000000000E+00 -0.14281420196E+02  0.14281420960E+02  0.46700000000E-02 0. -1.
         23    2    1    2    0    0  0.00000000000E+00  0.00000000000E+00  0.12924143173E+03  0.15780427296E+03  0.90547451038E+02 0.  0.
        -11    1    3    3    0    0  0.30774209345E+02 -0.10212326665E+02  0.95542048007E+01  0.33802757378E+02  0.51100000000E-03 0.  1.
         11    1    3    3    0    0 -0.30774209345E+02  0.10212326665E+02  0.11968722693E+03  0.12400151559E+03  0.51100000000E-03 0. -1.
<mgrwt>
<rscale>  0 0.90547451E+02</rscale>
<asrwt>0</asrwt>
<pdfrwt beam="2">  1        1 0.21971417E-02 0.90547451E+02</pdfrwt>
<pdfrwt beam="1">  1       -1 0.22080439E-01 0.90547451E+02</pdfrwt>
<totfact> 0.76923348E+04</totfact>
</mgrwt>
</event>
<event>
 5   1  0.1357339E+00  0.9066406E+02  0.7818608E-02  0.1301252E+00
          1   -1    0    0  501    0  0.00000000000E+00  0.00000000000E+00  0.13550420576E+02  0.13550421381E+02  0.46700000000E-02 0. -1.
         -1   -1    0    0    0  501 -0.00000000000E+00 -0.00000000000E+00 -0.15165526702E+03  0.15165526710E+03  0.46700000000E-02 0.  1.
         23    2    1    2    0    0  0.00000000000E+00  0.00000000000E+00 -0.13810484645E+03  0.16520568848E+03  0.90664055131E+02 0.  0.
        -11    1    3    3    0    0 -0.15128727141E+02  0.37088632127E+02 -0.10773008829E+03  0.11493570786E+03  0.51100000000E-03 0.  1.
         11    1    3    3    0    0  0.15128727141E+02 -0.37088632127E+02 -0.30374758161E+02  0.50269980620E+02  0.51100000000E-03 0. -1.
<mgrwt>
<rscale>  0 0.90664055E+02</rscale>
<asrwt>0</asrwt>
<pdfrwt beam="1">  1        1 0.20846803E-02 0.90664055E+02</pdfrwt>
<pdfrwt beam="2">  1       -1 0.23331578E-01 0.90664055E+02</pdfrwt>
<totfact> 0.75695477E+04</totfact>
</mgrwt>
</event>
<event>
 5   1  0.1357339E+00  0.9258239E+02  0.7818608E-02  0.1296716E+00
          1   -1    0    0  501    0  0.00000000000E+00  0.00000000000E+00  0.15410880267E+02  0.15410880975E+02  0.46700000000E-02 0. -1.
         -1   -1    0    0    0  501 -0.00000000000E+00 -0.00000000000E+00 -0.13904947795E+03  0.13904947803E+03  0.46700000000E-02 0.  1.
         23    2    1    2    0    0  0.00000000000E+00  0.00000000000E+00 -0.12363859768E+03  0.15446035900E+03  0.92582393934E+02 0.  0.
        -11    1    3    3    0    0  0.24801914894E+02 -0.22053932801E+02 -0.11565742179E+03  0.12032518501E+03  0.51100000000E-03 0.  1.
         11    1    3    3    0    0 -0.24801914894E+02  0.22053932801E+02 -0.79811758989E+01  0.34135173990E+02  0.51100000000E-03 0. -1.
<mgrwt>
<rscale>  0 0.92582394E+02</rscale>
<asrwt>0</asrwt>
<pdfrwt beam="1">  1        1 0.23709048E-02 0.92582394E+02</pdfrwt>
<pdfrwt beam="2">  1       -1 0.21392227E-01 0.92582394E+02</pdfrwt>
<totfact> 0.73133629E+04</totfact>
</mgrwt>
</event>
<event>
 5   1  0.1357339E+00  0.9058100E+02  0.7818608E-02  0.1301451E+00
          1   -1    0    0  501    0  0.00000000000E+00  0.00000000000E+00  0.17677865746E+03  0.17677865752E+03  0.46700000000E-02 0. -1.
         -1   -1    0    0    0  501 -0.00000000000E+00 -0.00000000000E+00 -0.11603377098E+02  0.11603378038E+02  0.46700000000E-02 0.  1.
         23    2    1    2    0    0  0.00000000000E+00  0.00000000000E+00  0.16517528036E+03  0.18838203556E+03  0.90581002860E+02 0.  0.
        -11    1    3    3    0    0 -0.44890870764E+02  0.56521517000E+01  0.78380445547E+02  0.90502106833E+02  0.51100000000E-03 0.  1.
         11    1    3    3    0    0  0.44890870764E+02 -0.56521517000E+01  0.86794834813E+02  0.97879928726E+02  0.51100000000E-03 0. -1.
<mgrwt>
<rscale>  0 0.90581003E+02</rscale>
<asrwt>0</asrwt>
<pdfrwt beam="1">  1        1 0.27196716E-01 0.90581003E+02</pdfrwt>
<pdfrwt beam="2">  1       -1 0.17851350E-02 0.90581003E+02</pdfrwt>
<totfact> 0.11768092E+05</totfact>
</mgrwt>
</event>
<event>
 5   1  0.1357339E+00  0.9160591E+02  0.7818608E-02  0.1299009E+00
         -1   -1    0    0    0  501 -0.00000000000E+00  0.00000000000E+00  0.80354537790E+01  0.80354551360E+01  0.46700000000E-02 0.  1.
          1   -1    0    0  501    0  0.00000000000E+00 -0.00000000000E+00 -0.26108179707E+03  0.26108179711E+03  0.46700000000E-02 0. -1.
         23    2    1    2    0    0  0.00000000000E+00  0.00000000000E+00 -0.25304634329E+03  0.26911725225E+03  0.91605914681E+02 0.  0.
        -11    1    3    3    0    0 -0.91328686844E+01 -0.39273277593E+02 -0.19035543029E+03  0.19457900571E+03  0.51100000000E-03 0. -1.
         11    1    3    3    0    0  0.91328686844E+01  0.39273277593E+02 -0.62690913002E+02  0.74538246535E+02  0.51100000000E-03 0.  1.
<mgrwt>
<rscale>  0 0.91605915E+02</rscale>
<asrwt>0</asrwt>
<pdfrwt beam="2">  1        1 0.40166424E-01 0.91605915E+02</pdfrwt>
<pdfrwt beam="1">  1       -1 0.12362240E-02 0.91605915E+02</pdfrwt>
<totfact> 0.12316612E+05</totfact>
</mgrwt>
</event>
<event>
 5   1  0.1357339E+00  0.9307722E+02  0.7818608E-02  0.1295566E+00
         -1   -1    0    0    0  501 -0.00000000000E+00  0.00000000000E+00  0.10224646220E+03  0.10224646231E+03  0.46700000000E-02 0.  1.
          1   -1    0    0  501    0  0.00000000000E+00 -0.00000000000E+00 -0.21182563471E+02  0.21182563986E+02  0.46700000000E-02 0. -1.
         23    2    1    2    0    0  0.00000000000E+00  0.00000000000E+00  0.81063898731E+02  0.12342902630E+03  0.93077219848E+02 0.  0.
        -11    1    3    3    0    0  0.17705960131E+02 -0.19840883069E+02  0.91178980894E+02  0.94977724874E+02  0.51100000000E-03 0.  1.
         11    1    3    3    0    0 -0.17705960131E+02  0.19840883069E+02 -0.10115082163E+02  0.28451301421E+02  0.51100000000E-03 0. -1.
<mgrwt>
<rscale>  0 0.93077220E+02</rscale>
<asrwt>0</asrwt>
<pdfrwt beam="2">  1        1 0.32588559E-02 0.93077220E+02</pdfrwt>
<pdfrwt beam="1">  1       -1 0.15730225E-01 0.93077220E+02</pdfrwt>
<totfact> 0.76833519E+04</totfact>
</mgrwt>
</event>
<event>
 5   1  0.1357339E+00  0.8977294E+02  0.7818608E-02  0.1303402E+00
         -1   -1    0    0    0  501 -0.00000000000E+00  0.00000000000E+00  0.78815321542E+01  0.78815335377E+01  0.46700000000E-02 0.  1.
          1   -1    0    0  501    0  0.00000000000E+00 -0.00000000000E+00 -0.25563493409E+03  0.25563493414E+03  0.46700000000E-02 0. -1.
         23    2    1    2    0    0  0.00000000000E+00  0.00000000000E+00 -0.24775340194E+03  0.26351646767E+03  0.89772938923E+02 0.  0.
        -11    1    3    3    0    0 -0.23745703145E+02 -0.27267897842E+02 -0.20194853385E+03  0.20515995466E+03  0.51100000000E-03 0. -1.
         11    1    3    3    0    0  0.23745703145E+02  0.27267897842E+02 -0.45804868090E+02  0.58356513018E+02  0.51100000000E-03 0.  1.
<mgrwt>
<rscale>  0 0.89772939E+02</rscale>
<asrwt>0</asrwt>
<pdfrwt beam="2">  1        1 0.39328445E-01 0.89772939E+02</pdfrwt>
<pdfrwt beam="1">  1       -1 0.12125437E-02 0.89772939E+02</pdfrwt>
<totfact> 0.12945549E+05</totfact>
</mgrwt>
</event>
<event>
 5   1  0.1357339E+00  0.9322279E+02  0.7818608E-02  0.1295230E+00
          1   -1    0    0  501    0  0.00000000000E+00  0.00000000000E+00  0.24129964268E+02  0.24129964720E+02  0.46700000000E-02 0. -1.
         -1   -1    0    0    0  501 -0.00000000000E+00 -0.00000000000E+00 -0.90038354416E+02  0.90038354537E+02  0.46700000000E-02 0.  1.
         23    2    1    2    0    0  0.00000000000E+00  0.00000000000E+00 -0.65908390148E+02  0.11416831926E+03  0.93222793512E+02 0.  0.
        -11    1    3    3    0    0 -0.92497727504E+01  0.37534593160E+02 -0.64848141145E+02  0.75496260767E+02  0.51100000000E-03 0.  1.
         11    1    3    3    0    0  0.92497727504E+01 -0.37534593160E+02 -0.10602490027E+01  0.38672058490E+02  0.51100000000E-03 0. -1.
<mgrwt>
<rscale>  0 0.93222794E+02</rscale>
<asrwt>0</asrwt>
<pdfrwt beam="1">  1        1 0.37123023E-02 0.93222794E+02</pdfrwt>
<pdfrwt beam="2">  1       -1 0.13852054E-01 0.93222794E+02</pdfrwt>
<totfact> 0.78335404E+04</totfact>
</mgrwt>
</event>
<event>
 5   1  0.1357339E+00  0.8995820E+02  0.7818608E-02  0.1302953E+00
          1   -1    0    0  501    0  0.00000000000E+00  0.00000000000E+00  0.23950169150E+03  0.23950169155E+03  0.46700000000E-02 0. -1.
         -1   -1    0    0    0  501 -0.00000000000E+00 -0.00000000000E+00 -0.84472025521E+01  0.84472038430E+01  0.46700000000E-02 0.  1.
         23    2    1    2    0    0  0.00000000000E+00  0.00000000000E+00  0.23105448895E+03  0.24794889539E+03  0.89958200635E+02 0.  0.
        -11    1    3    3    0    0 -0.29325366633E+02 -0.29222589491E+02  0.16399232522E+03  0.16913728032E+03  0.51100000000E-03 0. -1.
         11    1    3    3    0    0  0.29325366633E+02  0.29222589491E+02  0.67062163731E+02  0.78811615066E+02  0.51100000000E-03 0.  1.
<mgrwt>
<rscale>  0 0.89958201E+02</rscale>
<asrwt>0</asrwt>
<pdfrwt beam="1">  1        1 0.36846409E-01 0.89958201E+02</pdfrwt>
<pdfrwt beam="2">  1       -1 0.12995699E-02 0.89958201E+02</pdfrwt>
<totfact> 0.12712612E+05</totfact>
</mgrwt>
</event>
<event>
 5   1  0.1357339E+00  0.9066641E+02  0.7818608E-02  0.1301246E+00
          1   -1    0    0  501    0  0.00000000000E+00  0.00000000000E+00  0.10541869948E+03  0.10541869958E+03  0.46700000000E-02 0. -1.
         -1   -1    0    0    0  501 -0.00000000000E+00 -0.00000000000E+00 -0.19494637658E+02  0.19494638217E+02  0.46700000000E-02 0.  1.
         23    2    1    2    0    0  0.00000000000E+00  0.00000000000E+00  0.85924061818E+02  0.12491333780E+03  0.90666408113E+02 0.  0.
        -11    1    3    3    0    0  0.33453003385E+01 -0.40155647779E+02  0.71578677096E+02  0.82141183934E+02  0.51100000000E-03 0.  1.
         11    1    3    3    0    0 -0.33453003385E+01  0.40155647779E+02  0.14345384721E+02  0.42772153862E+02  0.51100000000E-03 0. -1.
<mgrwt>
<rscale>  0 0.90666408E+02</rscale>
<asrwt>0</asrwt>
<pdfrwt beam="1">  1        1 0.16218261E-01 0.90666408E+02</pdfrwt>
<pdfrwt beam="2">  1       -1 0.29991751E-02 0.90666408E+02</pdfrwt>
<totfact> 0.10699954E+05</totfact>
</mgrwt>
</event>
<event>
 5   1  0.1357339E+00  0.8842679E+02  0.7818608E-02  0.1306707E+00
         -1   -1    0    0    0  501 -0.00000000000E+00  0.00000000000E+00  0.24467170644E+02  0.24467171089E+02  0.46700000000E-02 0.  1.
          1   -1    0    0  501    0  0.00000000000E+00 -0.00000000000E+00 -0.79895812355E+02  0.79895812492E+02  0.46700000000E-02 0. -1.
         23    2    1    2    0    0  0.00000000000E+00  0.00000000000E+00 -0.55428641711E+02  0.10436298358E+03  0.88426794695E+02 0.  0.
        -11    1    3    3    0    0 -0.13634253550E+02 -0.47511255433E+01 -0.77035028294E+02  0.78376410024E+02  0.51100000000E-03 0. -1.
         11    1    3    3    0    0  0.13634253550E+02  0.47511255433E+01  0.21606386583E+02  0.25986573557E+02  0.51100000000E-03 0.  1.
<mgrwt>
<rscale>  0 0.88426795E+02</rscale>
<asrwt>0</asrwt>
<pdfrwt beam="2">  1        1 0.12291663E-01 0.88426795E+02</pdfrwt>
<pdfrwt beam="1">  1       -1 0.37641802E-02 0.88426795E+02</pdfrwt>
<totfact> 0.10952987E+05</totfact>
</mgrwt>
</event>
<event>
 5   1  0.1357339E+00  0.9158529E+02  0.7818608E-02  0.1299057E+00
          1   -1    0    0  501    0  0.00000000000E+00  0.00000000000E+00  0.11954156469E+03  0.11954156478E+03  0.46700000000E-02 0. -1.
         -1   -1    0    0    0  501 -0.00000000000E+00 -0.00000000000E+00 -0.17541734108E+02  0.17541734729E+02  0.46700000000E-02 0.  1.
         23    2    1    2    0    0  0.00000000000E+00  0.00000000000E+00  0.10199983058E+03  0.13708329951E+03  0.91585291209E+02 0.  0.
        -11    1    3    3    0    0  0.82692477928E+01 -0.43669417924E+02  0.34496713013E+02  0.56262080746E+02  0.51100000000E-03 0.  1.
         11    1    3    3    0    0 -0.82692477928E+01  0.43669417924E+02  0.67503117570E+02  0.80821218766E+02  0.51100000000E-03 0. -1.
<mgrwt>
<rscale>  0 0.91585291E+02</rscale>
<asrwt>0</asrwt>
<pdfrwt beam="1">  1        1 0.18391011E-01 0.91585291E+02</pdfrwt>
<pdfrwt beam="2">  1       -1 0.26987283E-02 0.91585291E+02</pdfrwt>
<totfact> 0.10636818E+05</totfact>
</mgrwt>
</event>
<event>
 5   1  0.1357339E+00  0.1057186E+03  0.7818608E-02  0.1268710E+00
         -1   -1    0    0    0  501 -0.00000000000E+00  0.00000000000E+00  0.18921340141E+02  0.18921340717E+02  0.46700000000E-02 0.  1.
          1   -1    0    0  501    0  0.00000000000E+00 -0.00000000000E+00 -0.14766966456E+03  0.14766966464E+03  0.46700000000E-02 0. -1.
         23    2    1    2    0    0  0.00000000000E+00  0.00000000000E+00 -0.12874832442E+03  0.16659100535E+03  0.10571864558E+03 0.  0.
        -11    1    3    3    0    0 -0.50483972703E+02 -0.15636355304E+02 -0.65934835463E+02  0.84501654628E+02  0.51100000000E-03 0.  1.
         11    1    3    3    0    0  0.50483972703E+02  0.15636355304E+02 -0.62813488960E+02  0.82089350726E+02  0.51100000000E-03 0. -1.
<mgrwt>
<rscale>  0 0.10571865E+03</rscale>
<asrwt>0</asrwt>
<pdfrwt beam="2">  1        1 0.22718409E-01 0.10571865E+03</pdfrwt>
<pdfrwt beam="1">  1       -1 0.29109756E-02 0.10571865E+03</pdfrwt>
<totfact> 0.74719568E+04</totfact>
</mgrwt>
</event>
<event>
 5   1  0.1357339E+00  0.9125370E+02  0.7818608E-02  0.1299844E+00
          1   -1    0    0  501    0  0.00000000000E+00  0.00000000000E+00  0.12210405025E+03  0.12210405034E+03  0.46700000000E-02 0. -1.
         -1   -1    0    0    0  501 -0.00000000000E+00 -0.00000000000E+00 -0.17049470446E+02  0.17049471086E+02  0.46700000000E-02 0.  1.
         23    2    1    2    0    0  0.00000000000E+00  0.00000000000E+00  0.10505457981E+03  0.13915352143E+03  0.91253700129E+02 0.  0.
        -11    1    3    3    0    0 -0.28205192753E+02  0.24146435447E+02  0.12089143483E+02  0.39047799342E+02  0.51100000000E-03 0.  1.
         11    1    3    3    0    0  0.28205192753E+02 -0.24146435447E+02  0.92965436324E+02  0.10010572209E+03  0.51100000000E-03 0. -1.
<mgrwt>
<rscale>  0 0.91253700E+02</rscale>
<asrwt>0</asrwt>
<pdfrwt beam="1">  1        1 0.18785238E-01 0.91253700E+02</pdfrwt>
<pdfrwt beam="2">  1       -1 0.26229955E-02 0.91253700E+02</pdfrwt>
<totfact> 0.10781869E+05</totfact>
</mgrwt>
</event>
<event>
 5   1  0.1357339E+00  0.9088062E+02  0.7818608E-02  0.1300733E+00
          1   -1    0    0  501    0  0.00000000000E+00  0.00000000000E+00  0.73571817135E+02  0.73571817283E+02  0.46700000000E-02 0. -1.
         -1   -1    0    0    0  501 -0.00000000000E+00 -0.00000000000E+00 -0.28065392292E+02  0.28065392680E+02  0.46700000000E-02 0.  1.
         23    2    1    2    0    0  0.00000000000E+00  0.00000000000E+00  0.45506424843E+02  0.10163720996E+03  0.90880623607E+02 0.  0.
        -11    1    3    3    0    0 -0.32250013300E+02  0.26361878415E+02  0.24430540479E+01  0.41725058475E+02  0.51100000000E-03 0.  1.
         11    1    3    3    0    0  0.32250013300E+02 -0.26361878415E+02  0.43063370795E+02  0.59912151488E+02  0.51100000000E-03 0. -1.
<mgrwt>
<rscale>  0 0.90880624E+02</rscale>
<asrwt>0</asrwt>
<pdfrwt beam="1">  1        1 0.11318741E-01 0.90880624E+02</pdfrwt>
<pdfrwt beam="2">  1       -1 0.43177528E-02 0.90880624E+02</pdfrwt>
<totfact> 0.10032540E+05</totfact>
</mgrwt>
</event>
<event>
 5   1  0.1357339E+00  0.9212181E+02  0.7818608E-02  0.1297793E+00
         -1   -1    0    0    0  501 -0.00000000000E+00  0.00000000000E+00  0.79405412106E+02  0.79405412243E+02  0.46700000000E-02 0.  1.
          1   -1    0    0  501    0  0.00000000000E+00 -0.00000000000E+00 -0.26718670054E+02  0.26718670462E+02  0.46700000000E-02 0. -1.
         23    2    1    2    0    0  0.00000000000E+00  0.00000000000E+00  0.52686742053E+02  0.10612408271E+03  0.92121811434E+02 0.  0.
        -11    1    3    3    0    0 -0.12839428245E+01 -0.14030975883E+02  0.76861971693E+02  0.78142686710E+02  0.51100000000E-03 0.  1.
         11    1    3    3    0    0  0.12839428245E+01  0.14030975883E+02 -0.24175229641E+02  0.27981395995E+02  0.51100000000E-03 0. -1.
<mgrwt>
<rscale>  0 0.92121811E+02</rscale>
<asrwt>0</asrwt>
<pdfrwt beam="2">  1        1 0.41105647E-02 0.92121811E+02</pdfrwt>
<pdfrwt beam="1">  1       -1 0.12216217E-01 0.92121811E+02</pdfrwt>
<totfact> 0.82547483E+04</totfact>
</mgrwt>
</event>
<event>
 5   1  0.1357339E+00  0.9132361E+02  0.7818608E-02  0.1299678E+00
          1   -1    0    0  501    0  0.00000000000E+00  0.00000000000E+00  0.23541209937E+03  0.23541209941E+03  0.46700000000E-02 0. -1.
         -1   -1    0    0    0  501 -0.00000000000E+00 -0.00000000000E+00 -0.88568104844E+01  0.88568117156E+01  0.46700000000E-02 0.  1.
         23    2    1    2    0    0  0.00000000000E+00  0.00000000000E+00  0.22655528888E+03  0.24426891113E+03  0.91323611533E+02 0.  0.
        -11    1    3    3    0    0  0.22680574907E+02 -0.33062707074E+02  0.17172283882E+03  0.17634138609E+03  0.51100000000E-03 0. -1.
         11    1    3    3    0    0 -0.22680574907E+02  0.33062707074E+02  0.54832450066E+02  0.67927525037E+02  0.51100000000E-03 0.  1.
<mgrwt>
<rscale>  0 0.91323612E+02</rscale>
<asrwt>0</asrwt>
<pdfrwt beam="1">  1        1 0.36217245E-01 0.91323612E+02</pdfrwt>
<pdfrwt beam="2">  1       -1 0.13625864E-02 0.91323612E+02</pdfrwt>
<totfact> 0.12170361E+05</totfact>
</mgrwt>
</event>
<event>
 5   1  0.1357339E+00  0.9092305E+02  0.7818608E-02  0.1300632E+00
          1   -1    0    0  501    0  0.00000000000E+00  0.00000000000E+00  0.77008869036E+02  0.77008869177E+02  0.46700000000E-02 0. -1.
         -1   -1    0    0    0  501 -0.00000000000E+00 -0.00000000000E+00 -0.26837821570E+02  0.26837821977E+02  0.46700000000E-02 0.  1.
         23    2    1    2    0    0  0.00000000000E+00  0.00000000000E+00  0.50171047465E+02  0.10384669115E+03  0.90923051312E+02 0.  0.
        -11    1    3    3    0    0 -0.16819110460E+02 -0.35192459326E+02 -0.15867329628E+01  0.39037282075E+02  0.51100000000E-03 0.  1.
         11    1    3    3    0    0  0.16819110460E+02  0.35192459326E+02  0.51757780428E+02  0.64809409079E+02  0.51100000000E-03 0. -1.
<mgrwt>
<rscale>  0 0.90923051E+02</rscale>
<asrwt>0</asrwt>
<pdfrwt beam="1">  1        1 0.11847518E-01 0.90923051E+02</pdfrwt>
<pdfrwt beam="2">  1       -1 0.41288957E-02 0.90923051E+02</pdfrwt>
<totfact> 0.10091235E+05</totfact>
</mgrwt>
</event>
<event>
 5   1  0.1357339E+00  0.8412876E+02  0.7818608E-02  0.1317727E+00
         -1   -1    0    0    0  501 -0.00000000000E+00  0.00000000000E+00  0.65803682213E+02  0.65803682378E+02  0.46700000000E-02 0.  1.
          1   -1    0    0  501    0  0.00000000000E+00 -0.00000000000E+00 -0.26889256099E+02  0.26889256504E+02  0.46700000000E-02 0. -1.
         23    2    1    2    0    0  0.00000000000E+00  0.00000000000E+00  0.38914426114E+02  0.92692938882E+02  0.84128760593E+02 0.  0.
        -11    1    3    3    0    0 -0.35067820769E+02  0.70277929764E+01  0.43853284271E+02  0.56588448196E+02  0.51100000000E-03 0.  1.
         11    1    3    3    0    0  0.35067820769E+02 -0.70277929764E+01 -0.49388581572E+01  0.36104490687E+02  0.51100000000E-03 0. -1.
<mgrwt>
<rscale>  0 0.84128761E+02</rscale>
<asrwt>0</asrwt>
<pdfrwt beam="2">  1        1 0.41368087E-02 0.84128761E+02</pdfrwt>
<pdfrwt beam="1">  1       -1 0.10123643E-01 0.84128761E+02</pdfrwt>
<totfact> 0.10722211E+05</totfact>
</mgrwt>
</event>
<event>
 5   1  0.1357339E+00  0.8977351E+02  0.7818608E-02  0.1303401E+00
         -1   -1    0    0    0  501 -0.00000000000E+00  0.00000000000E+00  0.84394157135E+02  0.84394157264E+02  0.46700000000E-02 0.  1.
          1   -1    0    0  501    0  0.00000000000E+00 -0.00000000000E+00 -0.23873937835E+02  0.23873938292E+02  0.46700000000E-02 0. -1.
         23    2    1    2    0    0  0.00000000000E+00  0.00000000000E+00  0.60520219300E+02  0.10826809556E+03  0.89773512637E+02 0.  0.
        -11    1    3    3    0    0 -0.16631428583E+02  0.15124824660E+02 -0.16595601137E+02  0.27942417846E+02  0.51100000000E-03 0. -1.
         11    1    3    3    0    0  0.16631428583E+02 -0.15124824660E+02  0.77115820437E+02  0.80325677710E+02  0.51100000000E-03 0.  1.
<mgrwt>
<rscale>  0 0.89773513E+02</rscale>
<asrwt>0</asrwt>
<pdfrwt beam="2">  1        1 0.36729135E-02 0.89773513E+02</pdfrwt>
<pdfrwt beam="1">  1       -1 0.12983717E-01 0.89773513E+02</pdfrwt>
<totfact> 0.87280299E+04</totfact>
</mgrwt>
</event>
<event>
 5   1  0.1357339E+00  0.8777487E+02  0.7818608E-02  0.1308331E+00
          1   -1    0    0  501    0  0.00000000000E+00  0.00000000000E+00  0.15854730077E+02  0.15854730765E+02  0.46700000000E-02 0. -1.
         -1   -1    0    0    0  501 -0.00000000000E+00 -0.00000000000E+00 -0.12148468400E+03  0.12148468409E+03  0.46700000000E-02 0.  1.
         23    2    1    2    0    0  0.00000000000E+00  0.00000000000E+00 -0.10562995393E+03  0.13733941486E+03  0.87774869451E+02 0.  0.
        -11    1    3    3    0    0 -0.12607474253E+02 -0.27494714959E+02 -0.10257073561E+03  0.10693766204E+03  0.51100000000E-03 0.  1.
         11    1    3    3    0    0  0.12607474253E+02  0.27494714959E+02 -0.30592183161E+01  0.30401752823E+02  0.51100000000E-03 0. -1.
<mgrwt>
<rscale>  0 0.87774869E+02</rscale>
<asrwt>0</asrwt>
<pdfrwt beam="1">  1        1 0.24391894E-02 0.87774869E+02</pdfrwt>
<pdfrwt beam="2">  1       -1 0.18689951E-01 0.87774869E+02</pdfrwt>
<totfact> 0.86412546E+04</totfact>
</mgrwt>
</event>
<event>
 5   1  0.1357339E+00  0.9167253E+02  0.7818608E-02  0.1298851E+00
          1   -1    0    0  501    0  0.00000000000E+00  0.00000000000E+00  0.32910129064E+02  0.32910129395E+02  0.46700000000E-02 0. -1.
         -1   -1    0    0    0  501 -0.00000000000E+00 -0.00000000000E+00 -0.63839411536E+02  0.63839411707E+02  0.46700000000E-02 0.  1.
         23    2    1    2    0    0  0.00000000000E+00  0.00000000000E+00 -0.30929282472E+02  0.96749541102E+02  0.91672532360E+02 0.  0.
        -11    1    3    3    0    0 -0.16134043981E+02  0.12379641534E+02 -0.58817601614E+02  0.62234019311E+02  0.51100000000E-03 0.  1.
         11    1    3    3    0    0  0.16134043981E+02 -0.12379641534E+02  0.27888319142E+02  0.34515521791E+02  0.51100000000E-03 0. -1.
<mgrwt>
<rscale>  0 0.91672532E+02</rscale>
<asrwt>0</asrwt>
<pdfrwt beam="1">  1        1 0.50630968E-02 0.91672532E+02</pdfrwt>
<pdfrwt beam="2">  1       -1 0.98214479E-02 0.91672532E+02</pdfrwt>
<totfact> 0.86619244E+04</totfact>
</mgrwt>
</event>
<event>
 5   1  0.1357339E+00  0.9231847E+02  0.7818608E-02  0.1297332E+00
         -1   -1    0    0    0  501 -0.00000000000E+00  0.00000000000E+00  0.17118921557E+02  0.17118922194E+02  0.46700000000E-02 0.  1.
          1   -1    0    0  501    0  0.00000000000E+00 -0.00000000000E+00 -0.12446313997E+03  0.12446314006E+03  0.46700000000E-02 0. -1.
         23    2    1    2    0    0  0.00000000000E+00  0.00000000000E+00 -0.10734421842E+03  0.14158206225E+03  0.92318465786E+02 0.  0.
        -11    1    3    3    0    0  0.89268709537E+01 -0.39305463974E+02 -0.19171771505E+02  0.44633679505E+02  0.51100000000E-03 0.  1.
         11    1    3    3    0    0 -0.89268709537E+01  0.39305463974E+02 -0.88172446910E+02  0.96948382749E+02  0.51100000000E-03 0. -1.
<mgrwt>
<rscale>  0 0.92318466E+02</rscale>
<asrwt>0</asrwt>
<pdfrwt beam="2">  1        1 0.19148175E-01 0.92318466E+02</pdfrwt>
<pdfrwt beam="1">  1       -1 0.26336804E-02 0.92318466E+02</pdfrwt>
<totfact> 0.10482832E+05</totfact>
</mgrwt>
</event>
<event>
 5   1  0.1357339E+00  0.8820546E+02  0.7818608E-02  0.1307257E+00
          1   -1    0    0  501    0  0.00000000000E+00  0.00000000000E+00  0.12278629531E+03  0.12278629540E+03  0.46700000000E-02 0. -1.
         -1   -1    0    0    0  501 -0.00000000000E+00 -0.00000000000E+00 -0.15840943228E+02  0.15840943916E+02  0.46700000000E-02 0.  1.
         23    2    1    2    0    0  0.00000000000E+00  0.00000000000E+00  0.10694535208E+03  0.13862723931E+03  0.88205459854E+02 0.  0.
        -11    1    3    3    0    0  0.29531516913E+02  0.27047006514E+02  0.82511879223E+02  0.91716199582E+02  0.51100000000E-03 0. -1.
         11    1    3    3    0    0 -0.29531516913E+02 -0.27047006514E+02  0.24433472856E+02  0.46911039731E+02  0.51100000000E-03 0.  1.
<mgrwt>
<rscale>  0 0.88205460E+02</rscale>
<asrwt>0</asrwt>
<pdfrwt beam="1">  1        1 0.18890199E-01 0.88205460E+02</pdfrwt>
<pdfrwt beam="2">  1       -1 0.24370683E-02 0.88205460E+02</pdfrwt>
<totfact> 0.11830533E+05</totfact>
</mgrwt>
</event>
<event>
 5   1  0.1357339E+00  0.9244386E+02  0.7818608E-02  0.1297039E+00
         -1   -1    0    0    0  501 -0.00000000000E+00  0.00000000000E+00  0.26897501702E+02  0.26897502107E+02  0.46700000000E-02 0.  1.
          1   -1    0    0  501    0  0.00000000000E+00 -0.00000000000E+00 -0.79429937348E+02  0.79429937485E+02  0.46700000000E-02 0. -1.
         23    2    1    2    0    0  0.00000000000E+00  0.00000000000E+00 -0.52532435646E+02  0.10632743959E+03  0.92443861967E+02 0.  0.
        -11    1    3    3    0    0  0.64156120802E+00 -0.30771349146E+02 -0.65929710964E+02  0.72759977441E+02  0.51100000000E-03 0. -1.
         11    1    3    3    0    0 -0.64156120802E+00  0.30771349146E+02  0.13397275319E+02  0.33567462152E+02  0.51100000000E-03 0.  1.
<mgrwt>
<rscale>  0 0.92443862E+02</rscale>
<asrwt>0</asrwt>
<pdfrwt beam="2">  1        1 0.12219990E-01 0.92443862E+02</pdfrwt>
<pdfrwt beam="1">  1       -1 0.41380773E-02 0.92443862E+02</pdfrwt>
<totfact> 0.96882171E+04</totfact>
</mgrwt>
</event>
<event>
 5   1  0.1357339E+00  0.9365193E+02  0.7818608E-02  0.1294241E+00
         -1   -1    0    0    0  501 -0.00000000000E+00  0.00000000000E+00  0.12290683922E+02  0.12290684809E+02  0.46700000000E-02 0.  1.
          1   -1    0    0  501    0  0.00000000000E+00 -0.00000000000E+00 -0.17840106005E+03  0.17840106011E+03  0.46700000000E-02 0. -1.
         23    2    1    2    0    0  0.00000000000E+00  0.00000000000E+00 -0.16611037613E+03  0.19069174492E+03  0.93651932832E+02 0.  0.
        -11    1    3    3    0    0  0.23405834912E+02  0.32705919672E+02 -0.34222593153E+02  0.52808107066E+02  0.51100000000E-03 0.  1.
         11    1    3    3    0    0 -0.23405834912E+02 -0.32705919672E+02 -0.13188778297E+03  0.13788363785E+03  0.51100000000E-03 0. -1.
<mgrwt>
<rscale>  0 0.93651933E+02</rscale>
<asrwt>0</asrwt>
<pdfrwt beam="2">  1        1 0.27446315E-01 0.93651933E+02</pdfrwt>
<pdfrwt beam="1">  1       -1 0.18908747E-02 0.93651933E+02</pdfrwt>
<totfact> 0.10776582E+05</totfact>
</mgrwt>
</event>
<event>
 5   1  0.1357339E+00  0.9190180E+02  0.7818608E-02  0.1298310E+00
          1   -1    0    0  501    0  0.00000000000E+00  0.00000000000E+00  0.29737387131E+03  0.29737387135E+03  0.46700000000E-02 0. -1.
         -1   -1    0    0    0  501 -0.00000000000E+00 -0.00000000000E+00 -0.71004389826E+01  0.71004405183E+01  0.46700000000E-02 0.  1.
         23    2    1    2    0    0  0.00000000000E+00  0.00000000000E+00  0.29027343233E+03  0.30447431186E+03  0.91901801236E+02 0.  0.
        -11    1    3    3    0    0 -0.41313551317E+02  0.16651679215E+02  0.18253113495E+03  0.18788747475E+03  0.51100000000E-03 0.  1.
         11    1    3    3    0    0  0.41313551317E+02 -0.16651679215E+02  0.10774229738E+03  0.11658683711E+03  0.51100000000E-03 0. -1.
<mgrwt>
<rscale>  0 0.91901801E+02</rscale>
<asrwt>0</asrwt>
<pdfrwt beam="1">  1        1 0.45749838E-01 0.91901801E+02</pdfrwt>
<pdfrwt beam="2">  1       -1 0.10923751E-02 0.91901801E+02</pdfrwt>
<totfact> 0.12523313E+05</totfact>
</mgrwt>
</event>
<event>
 5   1  0.1357339E+00  0.9128791E+02  0.7818608E-02  0.1299762E+00
         -1   -1    0    0    0  501 -0.00000000000E+00  0.00000000000E+00  0.10692703405E+02  0.10692704424E+02  0.46700000000E-02 0.  1.
          1   -1    0    0  501    0  0.00000000000E+00 -0.00000000000E+00 -0.19484037328E+03  0.19484037334E+03  0.46700000000E-02 0. -1.
         23    2    1    2    0    0  0.00000000000E+00  0.00000000000E+00 -0.18414766988E+03  0.20553307776E+03  0.91287905733E+02 0.  0.
        -11    1    3    3    0    0 -0.35859873730E+02  0.71736067071E+01 -0.30579960439E+02  0.47671009616E+02  0.51100000000E-03 0.  1.
         11    1    3    3    0    0  0.35859873730E+02 -0.71736067071E+01 -0.15356770944E+03  0.15786206814E+03  0.51100000000E-03 0. -1.
<mgrwt>
<rscale>  0 0.91287906E+02</rscale>
<asrwt>0</asrwt>
<pdfrwt beam="2">  1        1 0.29975439E-01 0.91287906E+02</pdfrwt>
<pdfrwt beam="1">  1       -1 0.16450315E-02 0.91287906E+02</pdfrwt>
<totfact> 0.11742365E+05</totfact>
</mgrwt>
</event>
<event>
 5   1  0.1357339E+00  0.9427462E+02  0.7818608E-02  0.1292818E+00
          1   -1    0    0  501    0  0.00000000000E+00  0.00000000000E+00  0.85406799883E+02  0.85406800010E+02  0.46700000000E-02 0. -1.
         -1   -1    0    0    0  501 -0.00000000000E+00 -0.00000000000E+00 -0.26015795069E+02  0.26015795488E+02  0.46700000000E-02 0.  1.
         23    2    1    2    0    0  0.00000000000E+00  0.00000000000E+00  0.59391004813E+02  0.11142259550E+03  0.94274616599E+02 0.  0.
        -11    1    3    3    0    0  0.20581294875E+02 -0.59409810466E+01 -0.19930545108E+02  0.29259384530E+02  0.51100000000E-03 0.  1.
         11    1    3    3    0    0 -0.20581294875E+02  0.59409810466E+01  0.79321549921E+02  0.82163210969E+02  0.51100000000E-03 0. -1.
<mgrwt>
<rscale>  0 0.94274617E+02</rscale>
<asrwt>0</asrwt>
<pdfrwt beam="1">  1        1 0.13139508E-01 0.94274617E+02</pdfrwt>
<pdfrwt beam="2">  1       -1 0.40024301E-02 0.94274617E+02</pdfrwt>
<totfact> 0.92868127E+04</totfact>
</mgrwt>
</event>
<event>
 5   1  0.1357339E+00  0.9308257E+02  0.7818608E-02  0.1295554E+00
          1   -1    0    0  501    0  0.00000000000E+00  0.00000000000E+00  0.22916667305E+02  0.22916667781E+02  0.46700000000E-02 0. -1.
         -1   -1    0    0    0  501 -0.00000000000E+00 -0.00000000000E+00 -0.94520341946E+02  0.94520342061E+02  0.46700000000E-02 0.  1.
         23    2    1    2    0    0  0.00000000000E+00  0.00000000000E+00 -0.71603674640E+02  0.11743700984E+03  0.93082571186E+02 0.  0.
        -11    1    3    3    0    0  0.13498100929E+02  0.44381533095E+02 -0.40551393632E+02  0.61614403627E+02  0.51100000000E-03 0.  1.
         11    1    3    3    0    0 -0.13498100929E+02 -0.44381533095E+02 -0.31052281009E+02  0.55822606215E+02  0.51100000000E-03 0. -1.
<mgrwt>
<rscale>  0 0.93082571E+02</rscale>
<asrwt>0</asrwt>
<pdfrwt beam="1">  1        1 0.35256412E-02 0.93082571E+02</pdfrwt>
<pdfrwt beam="2">  1       -1 0.14541591E-01 0.93082571E+02</pdfrwt>
<totfact> 0.77952057E+04</totfact>
</mgrwt>
</event>
<event>
 5   1  0.1357339E+00  0.9054271E+02  0.7818608E-02  0.1301543E+00
          1   -1    0    0  501    0  0.00000000000E+00  0.00000000000E+00  0.27500917785E+02  0.27500918181E+02  0.46700000000E-02 0. -1.
         -1   -1    0    0    0  501 -0.00000000000E+00 -0.00000000000E+00 -0.74524630762E+02  0.74524630908E+02  0.46700000000E-02 0.  1.
         23    2    1    2    0    0  0.00000000000E+00  0.00000000000E+00 -0.47023712977E+02  0.10202554909E+03  0.90542714145E+02 0.  0.
        -11    1    3    3    0    0  0.12372651986E+02  0.42572213534E+02 -0.13183137007E+02  0.46252253825E+02  0.51100000000E-03 0.  1.
         11    1    3    3    0    0 -0.12372651986E+02 -0.42572213534E+02 -0.33840575970E+02  0.55773295264E+02  0.51100000000E-03 0. -1.
<mgrwt>
<rscale>  0 0.90542714E+02</rscale>
<asrwt>0</asrwt>
<pdfrwt beam="1">  1        1 0.42309105E-02 0.90542714E+02</pdfrwt>
<pdfrwt beam="2">  1       -1 0.11465328E-01 0.90542714E+02</pdfrwt>
<totfact> 0.87198521E+04</totfact>
</mgrwt>
</event>
<event>
 5   1  0.1357339E+00  0.8991371E+02  0.7818608E-02  0.1303061E+00
          1   -1    0    0  501    0  0.00000000000E+00  0.00000000000E+00  0.55979571143E+02  0.55979571338E+02  0.46700000000E-02 0. -1.
         -1   -1    0    0    0  501 -0.00000000000E+00 -0.00000000000E+00 -0.36104576301E+02  0.36104576603E+02  0.46700000000E-02 0.  1.
         23    2    1    2    0    0  0.00000000000E+00  0.00000000000E+00  0.19874994842E+02  0.92084147941E+02  0.89913707976E+02 0.  0.
        -11    1    3    3    0    0  0.32891611376E+02  0.13860673381E+02 -0.18056224508E+02  0.40000045115E+02  0.51100000000E-03 0.  1.
         11    1    3    3    0    0 -0.32891611376E+02 -0.13860673381E+02  0.37931219350E+02  0.52084102826E+02  0.51100000000E-03 0. -1.
<mgrwt>
<rscale>  0 0.89913708E+02</rscale>
<asrwt>0</asrwt>
<pdfrwt beam="1">  1        1 0.86122417E-02 0.89913708E+02</pdfrwt>
<pdfrwt beam="2">  1       -1 0.55545503E-02 0.89913708E+02</pdfrwt>
<totfact> 0.99134248E+04</totfact>
</mgrwt>
</event>
<event>
 5   1  0.1357339E+00  0.9108503E+02  0.7818608E-02  0.1300245E+00
         -1   -1    0    0    0  501 -0.00000000000E+00  0.00000000000E+00  0.10622196663E+02  0.10622197690E+02  0.46700000000E-02 0.  1.
          1   -1    0    0  501    0  0.00000000000E+00 -0.00000000000E+00 -0.19526287316E+03  0.19526287322E+03  0.46700000000E-02 0. -1.
         23    2    1    2    0    0  0.00000000000E+00  0.00000000000E+00 -0.18464067650E+03  0.20588507091E+03  0.91085031727E+02 0.  0.
        -11    1    3    3    0    0  0.34536066107E+02  0.25409540453E+02 -0.57615427738E+02  0.71818675300E+02  0.51100000000E-03 0.  1.
         11    1    3    3    0    0 -0.34536066107E+02 -0.25409540453E+02 -0.12702524876E+03  0.13406639561E+03  0.51100000000E-03 0. -1.
<mgrwt>
<rscale>  0 0.91085032E+02</rscale>
<asrwt>0</asrwt>
<pdfrwt beam="2">  1        1 0.30040439E-01 0.91085032E+02</pdfrwt>
<pdfrwt beam="1">  1       -1 0.16341843E-02 0.91085032E+02</pdfrwt>
<totfact> 0.11817677E+05</totfact>
</mgrwt>
</event>
<event>
 5   1  0.1357339E+00  0.9138052E+02  0.7818608E-02  0.1299543E+00
          1   -1    0    0  501    0  0.00000000000E+00  0.00000000000E+00  0.25663513121E+02  0.25663513546E+02  0.46700000000E-02 0. -1.
         -1   -1    0    0    0  501 -0.00000000000E+00 -0.00000000000E+00 -0.81345046232E+02  0.81345046367E+02  0.46700000000E-02 0.  1.
         23    2    1    2    0    0  0.00000000000E+00  0.00000000000E+00 -0.55681533112E+02  0.10700855991E+03  0.91380516331E+02 0.  0.
        -11    1    3    3    0    0 -0.34864797609E+02 -0.27482879700E+02 -0.15188480750E+02  0.46920706907E+02  0.51100000000E-03 0.  1.
         11    1    3    3    0    0  0.34864797609E+02  0.27482879700E+02 -0.40493052362E+02  0.60087853005E+02  0.51100000000E-03 0. -1.
<mgrwt>
<rscale>  0 0.91380516E+02</rscale>
<asrwt>0</asrwt>
<pdfrwt beam="1">  1        1 0.39482329E-02 0.91380516E+02</pdfrwt>
<pdfrwt beam="2">  1       -1 0.12514622E-01 0.91380516E+02</pdfrwt>
<totfact> 0.83930038E+04</totfact>
</mgrwt>
</event>
<event>
 5   1  0.1357339E+00  0.8687411E+02  0.7818608E-02  0.1310603E+00
          1   -1    0    0  501    0  0.00000000000E+00  0.00000000000E+00  0.36071181598E+03  0.36071181601E+03  0.46700000000E-02 0. -1.
         -1   -1    0    0    0  501 -0.00000000000E+00 -0.00000000000E+00 -0.52307056084E+01  0.52307076931E+01  0.46700000000E-02 0.  1.
         23    2    1    2    0    0  0.00000000000E+00  0.00000000000E+00  0.35548111037E+03  0.36594252371E+03  0.86874109051E+02 0.  0.
        -11    1    3    3    0    0  0.11909903190E+02  0.41149436796E+02  0.14746571177E+03  0.15356190312E+03  0.51100000000E-03 0.  1.
         11    1    3    3    0    0 -0.11909903190E+02 -0.41149436796E+02  0.20801539861E+03  0.21238062059E+03  0.51100000000E-03 0. -1.
<mgrwt>
<rscale>  0 0.86874109E+02</rscale>
<asrwt>0</asrwt>
<pdfrwt beam="1">  1        1 0.55494146E-01 0.86874109E+02</pdfrwt>
<pdfrwt beam="2">  1       -1 0.80472380E-03 0.86874109E+02</pdfrwt>
<totfact> 0.15065610E+05</totfact>
</mgrwt>
</event>
<event>
 4   1  0.1357339E+00  0.1405473E+03  0.7818608E-02  0.1212594E+00
          1   -1    0    0  501    0  0.00000000000E+00  0.00000000000E+00  0.16380090716E+02  0.16380091381E+02  0.46700000000E-02 0. -1.
         -1   -1    0    0    0  501 -0.00000000000E+00 -0.00000000000E+00 -0.30148715975E+03  0.30148715979E+03  0.46700000000E-02 0.  1.
        -11    1    1    2    0    0 -0.13497026280E+02  0.56268103924E+02 -0.23273927748E+03  0.23982460366E+03  0.51100000000E-03 0.  1.
         11    1    1    2    0    0  0.13497026280E+02 -0.56268103924E+02 -0.52367791552E+02  0.78042647507E+02  0.51100000000E-03 0. -1.
<mgrwt>
<rscale>  0 0.14054732E+03</rscale>
<asrwt>0</asrwt>
<pdfrwt beam="1">  1        1 0.25200142E-02 0.14054732E+03</pdfrwt>
<pdfrwt beam="2">  1       -1 0.46382636E-01 0.14054732E+03</pdfrwt>
<totfact> 0.19210195E+04</totfact>
</mgrwt>
</event>
<event>
 5   1  0.1357339E+00  0.9026299E+02  0.7818608E-02  0.1302216E+00
         -1   -1    0    0    0  501 -0.00000000000E+00  0.00000000000E+00  0.13555797292E+03  0.13555797300E+03  0.46700000000E-02 0.  1.
          1   -1    0    0  501    0  0.00000000000E+00 -0.00000000000E+00 -0.15025687642E+02  0.15025688368E+02  0.46700000000E-02 0. -1.
         23    2    1    2    0    0  0.00000000000E+00  0.00000000000E+00  0.12053228528E+03  0.15058366137E+03  0.90262989520E+02 0.  0.
        -11    1    3    3    0    0 -0.18992512133E+02 -0.16646401122E+02 -0.21335163990E+01  0.25345020811E+02  0.51100000000E-03 0. -1.
         11    1    3    3    0    0  0.18992512133E+02  0.16646401122E+02  0.12266580168E+03  0.12523864056E+03  0.51100000000E-03 0.  1.
<mgrwt>
<rscale>  0 0.90262990E+02</rscale>
<asrwt>0</asrwt>
<pdfrwt beam="2">  1        1 0.23116443E-02 0.90262990E+02</pdfrwt>
<pdfrwt beam="1">  1       -1 0.20855073E-01 0.90262990E+02</pdfrwt>
<totfact> 0.78547859E+04</totfact>
</mgrwt>
</event>
<event>
 5   1  0.1357339E+00  0.9189798E+02  0.7818608E-02  0.1298319E+00
          1   -1    0    0  501    0  0.00000000000E+00  0.00000000000E+00  0.34508406300E+02  0.34508406616E+02  0.46700000000E-02 0. -1.
         -1   -1    0    0    0  501 -0.00000000000E+00 -0.00000000000E+00 -0.61182477929E+02  0.61182478107E+02  0.46700000000E-02 0.  1.
         23    2    1    2    0    0  0.00000000000E+00  0.00000000000E+00 -0.26674071629E+02  0.95690884723E+02  0.91897983231E+02 0.  0.
        -11    1    3    3    0    0 -0.38046625360E+01  0.39369244610E+02  0.11013994472E+02  0.41057532228E+02  0.51100000000E-03 0. -1.
         11    1    3    3    0    0  0.38046625360E+01 -0.39369244610E+02 -0.37688066101E+02  0.54633352495E+02  0.51100000000E-03 0.  1.
<mgrwt>
<rscale>  0 0.91897983E+02</rscale>
<asrwt>0</asrwt>
<pdfrwt beam="1">  1        1 0.53089856E-02 0.91897983E+02</pdfrwt>
<pdfrwt beam="2">  1       -1 0.94126889E-02 0.91897983E+02</pdfrwt>
<totfact> 0.86659258E+04</totfact>
</mgrwt>
</event>
<event>
 5   1  0.1357339E+00  0.9362930E+02  0.7818608E-02  0.1294293E+00
          1   -1    0    0  501    0  0.00000000000E+00  0.00000000000E+00  0.12464009486E+03  0.12464009495E+03  0.46700000000E-02 0. -1.
         -1   -1    0    0    0  501 -0.00000000000E+00 -0.00000000000E+00 -0.17583517131E+02  0.17583517751E+02  0.46700000000E-02 0.  1.
         23    2    1    2    0    0  0.00000000000E+00  0.00000000000E+00  0.10705657773E+03  0.14222361270E+03  0.93629296559E+02 0.  0.
        -11    1    3    3    0    0 -0.27794800079E+02 -0.37622102769E+02  0.56425480785E+02  0.73292621800E+02  0.51100000000E-03 0. -1.
         11    1    3    3    0    0  0.27794800079E+02  0.37622102769E+02  0.50631096944E+02  0.68930990899E+02  0.51100000000E-03 0.  1.
<mgrwt>
<rscale>  0 0.93629297E+02</rscale>
<asrwt>0</asrwt>
<pdfrwt beam="1">  1        1 0.19175400E-01 0.93629297E+02</pdfrwt>
<pdfrwt beam="2">  1       -1 0.27051565E-02 0.93629297E+02</pdfrwt>
<totfact> 0.10091222E+05</totfact>
</mgrwt>
</event>
<event>
 5   1  0.1357339E+00  0.8995274E+02  0.7818608E-02  0.1302966E+00
          1   -1    0    0  501    0  0.00000000000E+00  0.00000000000E+00  0.63469056872E+02  0.63469057044E+02  0.46700000000E-02 0. -1.
         -1   -1    0    0    0  501 -0.00000000000E+00 -0.00000000000E+00 -0.31871811728E+02  0.31871812070E+02  0.46700000000E-02 0.  1.
         23    2    1    2    0    0  0.00000000000E+00  0.00000000000E+00  0.31597245144E+02  0.95340869114E+02  0.89952739940E+02 0.  0.
        -11    1    3    3    0    0 -0.18865522775E+02  0.23020286731E+02 -0.19941094658E+02  0.35825812023E+02  0.51100000000E-03 0.  1.
         11    1    3    3    0    0  0.18865522775E+02 -0.23020286731E+02  0.51538339802E+02  0.59515057091E+02  0.51100000000E-03 0. -1.
<mgrwt>
<rscale>  0 0.89952740E+02</rscale>
<asrwt>0</asrwt>
<pdfrwt beam="1">  1        1 0.97644702E-02 0.89952740E+02</pdfrwt>
<pdfrwt beam="2">  1       -1 0.49033557E-02 0.89952740E+02</pdfrwt>
<totfact> 0.10089547E+05</totfact>
</mgrwt>
</event>
<event>
 5   1  0.1357339E+00  0.8778248E+02  0.7818608E-02  0.1308312E+00
         -1   -1    0    0    0  501 -0.00000000000E+00  0.00000000000E+00  0.36504293834E+02  0.36504294133E+02  0.46700000000E-02 0.  1.
          1   -1    0    0  501    0  0.00000000000E+00 -0.00000000000E+00 -0.52772996110E+02  0.52772996316E+02  0.46700000000E-02 0. -1.
         23    2    1    2    0    0  0.00000000000E+00  0.00000000000E+00 -0.16268702276E+02  0.89277290449E+02  0.87782480691E+02 0.  0.
        -11    1    3    3    0    0 -0.16752583740E+02 -0.39996854036E+02 -0.12332608054E+01  0.43381082597E+02  0.51100000000E-03 0.  1.
         11    1    3    3    0    0  0.16752583740E+02  0.39996854036E+02 -0.15035441470E+02  0.45896207853E+02  0.51100000000E-03 0. -1.
<mgrwt>
<rscale>  0 0.87782481E+02</rscale>
<asrwt>0</asrwt>
<pdfrwt beam="2">  1        1 0.81189225E-02 0.87782481E+02</pdfrwt>
<pdfrwt beam="1">  1       -1 0.56160452E-02 0.87782481E+02</pdfrwt>
<totfact> 0.10503215E+05</totfact>
</mgrwt>
</event>
<event>
 5   1  0.1357339E+00  0.8968731E+02  0.7818608E-02  0.1303611E+00
          1   -1    0    0  501    0  0.00000000000E+00  0.00000000000E+00  0.48877290003E+02  0.48877290226E+02  0.46700000000E-02 0. -1.
         -1   -1    0    0    0  501 -0.00000000000E+00 -0.00000000000E+00 -0.41142895727E+02  0.41142895992E+02  0.46700000000E-02 0.  1.
         23    2    1    2    0    0  0.00000000000E+00  0.00000000000E+00  0.77343942754E+01  0.90020186218E+02  0.89687307195E+02 0.  0.
        -11    1    3    3    0    0 -0.22827151012E+02  0.36439848298E+02  0.16642828750E+02  0.46107755491E+02  0.51100000000E-03 0.  1.
         11    1    3    3    0    0  0.22827151012E+02 -0.36439848298E+02 -0.89084344742E+01  0.43912430727E+02  0.51100000000E-03 0. -1.
<mgrwt>
<rscale>  0 0.89687307E+02</rscale>
<asrwt>0</asrwt>
<pdfrwt beam="1">  1        1 0.75195831E-02 0.89687307E+02</pdfrwt>
<pdfrwt beam="2">  1       -1 0.63296763E-02 0.89687307E+02</pdfrwt>
<totfact> 0.97842760E+04</totfact>
</mgrwt>
</event>
<event>
 5   1  0.1357339E+00  0.8650323E+02  0.7818608E-02  0.1311548E+00
         -1   -1    0    0    0  501 -0.00000000000E+00  0.00000000000E+00  0.70404021065E+01  0.70404036554E+01  0.46700000000E-02 0.  1.
          1   -1    0    0  501    0  0.00000000000E+00 -0.00000000000E+00 -0.26570953049E+03  0.26570953053E+03  0.46700000000E-02 0. -1.
         23    2    1    2    0    0  0.00000000000E+00  0.00000000000E+00 -0.25866912838E+03  0.27274993419E+03  0.86503228957E+02 0.  0.
        -11    1    3    3    0    0 -0.25559245214E+01 -0.38269087699E+02 -0.19236789414E+03  0.19615418048E+03  0.51100000000E-03 0. -1.
         11    1    3    3    0    0  0.25559245214E+01  0.38269087699E+02 -0.66301234245E+02  0.76595753708E+02  0.51100000000E-03 0.  1.
<mgrwt>
<rscale>  0 0.86503229E+02</rscale>
<asrwt>0</asrwt>
<pdfrwt beam="2">  1        1 0.40878382E-01 0.86503229E+02</pdfrwt>
<pdfrwt beam="1">  1       -1 0.10831391E-02 0.86503229E+02</pdfrwt>
<totfact> 0.14395440E+05</totfact>
</mgrwt>
</event>
<event>
 5   1  0.1357339E+00  0.9036834E+02  0.7818608E-02  0.1301962E+00
         -1   -1    0    0    0  501 -0.00000000000E+00  0.00000000000E+00  0.30064204694E+02  0.30064205057E+02  0.46700000000E-02 0.  1.
          1   -1    0    0  501    0  0.00000000000E+00 -0.00000000000E+00 -0.67908301147E+02  0.67908301308E+02  0.46700000000E-02 0. -1.
         23    2    1    2    0    0  0.00000000000E+00  0.00000000000E+00 -0.37844096453E+02  0.97972506365E+02  0.90368337193E+02 0.  0.
        -11    1    3    3    0    0 -0.12651034582E+02 -0.34928612526E+02  0.89629143435E+01  0.38215055708E+02  0.51100000000E-03 0.  1.
         11    1    3    3    0    0  0.12651034582E+02  0.34928612526E+02 -0.46807010796E+02  0.59757450657E+02  0.51100000000E-03 0. -1.
<mgrwt>
<rscale>  0 0.90368337E+02</rscale>
<asrwt>0</asrwt>
<pdfrwt beam="2">  1        1 0.10447431E-01 0.90368337E+02</pdfrwt>
<pdfrwt beam="1">  1       -1 0.46252623E-02 0.90368337E+02</pdfrwt>
<totfact> 0.10064888E+05</totfact>
</mgrwt>
</event>
<event>
 5   1  0.1357339E+00  0.9065715E+02  0.7818608E-02  0.1301268E+00
         -1   -1    0    0    0  501 -0.00000000000E+00  0.00000000000E+00  0.34955032913E+02  0.34955033225E+02  0.46700000000E-02 0.  1.
          1   -1    0    0  501    0  0.00000000000E+00 -0.00000000000E+00 -0.58780655648E+02  0.58780655834E+02  0.46700000000E-02 0. -1.
         23    2    1    2    0    0  0.00000000000E+00  0.00000000000E+00 -0.23825622736E+02  0.93735689058E+02  0.90657151425E+02 0.  0.
        -11    1    3    3    0    0  0.39505427628E+02  0.17643661307E+02  0.20629273106E+01  0.43315508375E+02  0.51100000000E-03 0. -1.
         11    1    3    3    0    0 -0.39505427628E+02 -0.17643661307E+02 -0.25888550046E+02  0.50420180684E+02  0.51100000000E-03 0.  1.
<mgrwt>
<rscale>  0 0.90657151E+02</rscale>
<asrwt>0</asrwt>
<pdfrwt beam="2">  1        1 0.90431778E-02 0.90657151E+02</pdfrwt>
<pdfrwt beam="1">  1       -1 0.53776974E-02 0.90657151E+02</pdfrwt>
<totfact> 0.97607817E+04</totfact>
</mgrwt>
</event>
<event>
 5   1  0.1357339E+00  0.8876430E+02  0.7818608E-02  0.1305872E+00
          1   -1    0    0  501    0  0.00000000000E+00  0.00000000000E+00  0.95186094325E+02  0.95186094440E+02  0.46700000000E-02 0. -1.
         -1   -1    0    0    0  501 -0.00000000000E+00 -0.00000000000E+00 -0.20693937954E+02  0.20693938481E+02  0.46700000000E-02 0.  1.
         23    2    1    2    0    0  0.00000000000E+00  0.00000000000E+00  0.74492156372E+02  0.11588003292E+03  0.88764298391E+02 0.  0.
        -11    1    3    3    0    0 -0.29802211112E+02  0.32716878529E+02  0.32875304181E+02  0.55130314284E+02  0.51100000000E-03 0. -1.
         11    1    3    3    0    0  0.29802211112E+02 -0.32716878529E+02  0.41616852191E+02  0.60749718636E+02  0.51100000000E-03 0.  1.
<mgrwt>
<rscale>  0 0.88764298E+02</rscale>
<asrwt>0</asrwt>
<pdfrwt beam="1">  1        1 0.14644014E-01 0.88764298E+02</pdfrwt>
<pdfrwt beam="2">  1       -1 0.31836829E-02 0.88764298E+02</pdfrwt>
<totfact> 0.11145174E+05</totfact>
</mgrwt>
</event>
<event>
 5   1  0.1357339E+00  0.9147793E+02  0.7818608E-02  0.1299312E+00
         -1   -1    0    0    0  501 -0.00000000000E+00  0.00000000000E+00  0.22297414817E+02  0.22297415306E+02  0.46700000000E-02 0.  1.
          1   -1    0    0  501    0  0.00000000000E+00 -0.00000000000E+00 -0.93824911765E+02  0.93824911881E+02  0.46700000000E-02 0. -1.
         23    2    1    2    0    0  0.00000000000E+00  0.00000000000E+00 -0.71527496948E+02  0.11612232719E+03  0.91477932048E+02 0.  0.
        -11    1    3    3    0    0  0.43390361061E+02  0.14223408535E+02 -0.32399417361E+02  0.55988847363E+02  0.51100000000E-03 0. -1.
         11    1    3    3    0    0 -0.43390361061E+02 -0.14223408535E+02 -0.39128079587E+02  0.60133479825E+02  0.51100000000E-03 0.  1.
<mgrwt>
<rscale>  0 0.91477932E+02</rscale>
<asrwt>0</asrwt>
<pdfrwt beam="2">  1        1 0.14434602E-01 0.91477932E+02</pdfrwt>
<pdfrwt beam="1">  1       -1 0.34303716E-02 0.91477932E+02</pdfrwt>
<totfact> 0.10243143E+05</totfact>
</mgrwt>
</event>
<event>
 5   1  0.1357339E+00  0.9481376E+02  0.7818608E-02  0.1291596E+00
         -1   -1    0    0    0  501 -0.00000000000E+00  0.00000000000E+00  0.65975364333E+01  0.65975380861E+01  0.46700000000E-02 0.  1.
          1   -1    0    0  501    0  0.00000000000E+00 -0.00000000000E+00 -0.34064412255E+03  0.34064412258E+03  0.46700000000E-02 0. -1.
         23    2    1    2    0    0  0.00000000000E+00  0.00000000000E+00 -0.33404658612E+03  0.34724166067E+03  0.94813760643E+02 0.  0.
        -11    1    3    3    0    0  0.15762206087E+02 -0.39713058730E+02 -0.24224329964E+03  0.24598250018E+03  0.51100000000E-03 0. -1.
         11    1    3    3    0    0 -0.15762206087E+02  0.39713058730E+02 -0.91803286480E+02  0.10125916049E+03  0.51100000000E-03 0.  1.
<mgrwt>
<rscale>  0 0.94813761E+02</rscale>
<asrwt>0</asrwt>
<pdfrwt beam="2">  1        1 0.52406775E-01 0.94813761E+02</pdfrwt>
<pdfrwt beam="1">  1       -1 0.10150060E-02 0.94813761E+02</pdfrwt>
<totfact> 0.11819639E+05</totfact>
</mgrwt>
</event>
<event>
 5   1  0.1357339E+00  0.8251017E+02  0.7818608E-02  0.1322075E+00
         -1   -1    0    0    0  501 -0.00000000000E+00  0.00000000000E+00  0.82458017086E+01  0.82458030311E+01  0.46700000000E-02 0.  1.
          1   -1    0    0  501    0  0.00000000000E+00 -0.00000000000E+00 -0.20640588919E+03  0.20640588924E+03  0.46700000000E-02 0. -1.
         23    2    1    2    0    0  0.00000000000E+00  0.00000000000E+00 -0.19816008748E+03  0.21465169227E+03  0.82510173466E+02 0.  0.
        -11    1    3    3    0    0  0.34431416430E+02 -0.21832871616E+02 -0.82670783138E+02  0.92177302550E+02  0.51100000000E-03 0.  1.
         11    1    3    3    0    0 -0.34431416430E+02  0.21832871616E+02 -0.11548930434E+03  0.12247438972E+03  0.51100000000E-03 0. -1.
<mgrwt>
<rscale>  0 0.82510173E+02</rscale>
<asrwt>0</asrwt>
<pdfrwt beam="2">  1        1 0.31754748E-01 0.82510173E+02</pdfrwt>
<pdfrwt beam="1">  1       -1 0.12685851E-02 0.82510173E+02</pdfrwt>
<totfact> 0.15545383E+05</totfact>
</mgrwt>
</event>
<event>
 5   1  0.1357339E+00  0.8927398E+02  0.7818608E-02  0.1304619E+00
         -1   -1    0    0    0  501 -0.00000000000E+00  0.00000000000E+00  0.24250905370E+02  0.24250905820E+02  0.46700000000E-02 0.  1.
          1   -1    0    0  501    0  0.00000000000E+00 -0.00000000000E+00 -0.82160272522E+02  0.82160272654E+02  0.46700000000E-02 0. -1.
         23    2    1    2    0    0  0.00000000000E+00  0.00000000000E+00 -0.57909367151E+02  0.10641117847E+03  0.89273983335E+02 0.  0.
        -11    1    3    3    0    0 -0.36202883808E+02 -0.31126329374E+01 -0.59856709969E+02  0.70022589272E+02  0.51100000000E-03 0. -1.
         11    1    3    3    0    0  0.36202883808E+02  0.31126329374E+01  0.19473428181E+01  0.36388589202E+02  0.51100000000E-03 0.  1.
<mgrwt>
<rscale>  0 0.89273983E+02</rscale>
<asrwt>0</asrwt>
<pdfrwt beam="2">  1        1 0.12640042E-01 0.89273983E+02</pdfrwt>
<pdfrwt beam="1">  1       -1 0.37309086E-02 0.89273983E+02</pdfrwt>
<totfact> 0.10718013E+05</totfact>
</mgrwt>
</event>
<event>
 5   1  0.1357339E+00  0.9009904E+02  0.7818608E-02  0.1302612E+00
          1   -1    0    0  501    0  0.00000000000E+00  0.00000000000E+00  0.14350911507E+03  0.14350911515E+03  0.46700000000E-02 0. -1.
         -1   -1    0    0    0  501 -0.00000000000E+00 -0.00000000000E+00 -0.14141674691E+02  0.14141675462E+02  0.46700000000E-02 0.  1.
         23    2    1    2    0    0  0.00000000000E+00  0.00000000000E+00  0.12936744038E+03  0.15765079061E+03  0.90099040779E+02 0.  0.
        -11    1    3    3    0    0 -0.26690509189E+01 -0.24092135476E+02 -0.17585141519E+01  0.24303234289E+02  0.51100000000E-03 0.  1.
         11    1    3    3    0    0  0.26690509189E+01  0.24092135476E+02  0.13112595453E+03  0.13334755632E+03  0.51100000000E-03 0. -1.
<mgrwt>
<rscale>  0 0.90099041E+02</rscale>
<asrwt>0</asrwt>
<pdfrwt beam="1">  1        1 0.22078325E-01 0.90099041E+02</pdfrwt>
<pdfrwt beam="2">  1       -1 0.21756423E-02 0.90099041E+02</pdfrwt>
<totfact> 0.11485363E+05</totfact>
</mgrwt>
</event>
<event>
 5   1  0.1357339E+00  0.9811125E+02  0.7818608E-02  0.1284319E+00
          1   -1    0    0  501    0  0.00000000000E+00  0.00000000000E+00  0.14799752361E+02  0.14799753098E+02  0.46700000000E-02 0. -1.
         -1   -1    0    0    0  501 -0.00000000000E+00 -0.00000000000E+00 -0.16260098070E+03  0.16260098077E+03  0.46700000000E-02 0.  1.
         23    2    1    2    0    0  0.00000000000E+00  0.00000000000E+00 -0.14780122834E+03  0.17740073387E+03  0.98111249496E+02 0.  0.
        -11    1    3    3    0    0  0.44641198038E+02  0.13552870828E+01 -0.37208753729E+02  0.58130583342E+02  0.51100000000E-03 0. -1.
         11    1    3    3    0    0 -0.44641198038E+02 -0.13552870828E+01 -0.11059247461E+03  0.11927015053E+03  0.51100000000E-03 0.  1.
<mgrwt>
<rscale>  0 0.98111249E+02</rscale>
<asrwt>0</asrwt>
<pdfrwt beam="1">  1        1 0.22768852E-02 0.98111249E+02</pdfrwt>
<pdfrwt beam="2">  1       -1 0.25015534E-01 0.98111249E+02</pdfrwt>
<totfact> 0.60601005E+04</totfact>
</mgrwt>
</event>
<event>
 5   1  0.1357339E+00  0.9127002E+02  0.7818608E-02  0.1299805E+00
          1   -1    0    0  501    0  0.00000000000E+00  0.00000000000E+00  0.75525077898E+02  0.75525078042E+02  0.46700000000E-02 0. -1.
         -1   -1    0    0    0  501 -0.00000000000E+00 -0.00000000000E+00 -0.27574341986E+02  0.27574342381E+02  0.46700000000E-02 0.  1.
         23    2    1    2    0    0  0.00000000000E+00  0.00000000000E+00  0.47950735913E+02  0.10309942042E+03  0.91270024746E+02 0.  0.
        -11    1    3    3    0    0  0.24363565025E+02 -0.18649078027E+02  0.62135132937E+02  0.69297519128E+02  0.51100000000E-03 0. -1.
         11    1    3    3    0    0 -0.24363565025E+02  0.18649078027E+02 -0.14184397024E+02  0.33801901295E+02  0.51100000000E-03 0.  1.
<mgrwt>
<rscale>  0 0.91270025E+02</rscale>
<asrwt>0</asrwt>
<pdfrwt beam="1">  1        1 0.11619243E-01 0.91270025E+02</pdfrwt>
<pdfrwt beam="2">  1       -1 0.42422066E-02 0.91270025E+02</pdfrwt>
<totfact> 0.99557632E+04</totfact>
</mgrwt>
</event>
<event>
 5   1  0.1357339E+00  0.9786794E+02  0.7818608E-02  0.1284844E+00
          1   -1    0    0  501    0  0.00000000000E+00  0.00000000000E+00  0.78050807294E+02  0.78050807434E+02  0.46700000000E-02 0. -1.
         -1   -1    0    0    0  501 -0.00000000000E+00 -0.00000000000E+00 -0.30679160948E+02  0.30679161304E+02  0.46700000000E-02 0.  1.
         23    2    1    2    0    0  0.00000000000E+00  0.00000000000E+00  0.47371646346E+02  0.10872996874E+03  0.97867937672E+02 0.  0.
        -11    1    3    3    0    0 -0.27629438497E+02 -0.39467160158E+02  0.33209946881E+02  0.58514469790E+02  0.51100000000E-03 0.  1.
         11    1    3    3    0    0  0.27629438497E+02  0.39467160158E+02  0.14161699465E+02  0.50215498948E+02  0.51100000000E-03 0. -1.
<mgrwt>
<rscale>  0 0.97867938E+02</rscale>
<asrwt>0</asrwt>
<pdfrwt beam="1">  1        1 0.12007816E-01 0.97867938E+02</pdfrwt>
<pdfrwt beam="2">  1       -1 0.47198710E-02 0.97867938E+02</pdfrwt>
<totfact> 0.82518267E+04</totfact>
</mgrwt>
</event>
<event>
 5   1  0.1357339E+00  0.9275149E+02  0.7818608E-02  0.1296322E+00
         -1   -1    0    0    0  501 -0.00000000000E+00  0.00000000000E+00  0.73805342648E+02  0.73805342796E+02  0.46700000000E-02 0.  1.
          1   -1    0    0  501    0  0.00000000000E+00 -0.00000000000E+00 -0.29140297917E+02  0.29140298291E+02  0.46700000000E-02 0. -1.
         23    2    1    2    0    0  0.00000000000E+00  0.00000000000E+00  0.44665044731E+02  0.10294564109E+03  0.92751489465E+02 0.  0.
        -11    1    3    3    0    0 -0.36060103915E+02 -0.17812234884E+02  0.47959216754E+02  0.62591479275E+02  0.51100000000E-03 0.  1.
         11    1    3    3    0    0  0.36060103915E+02  0.17812234884E+02 -0.32941720225E+01  0.40354161812E+02  0.51100000000E-03 0. -1.
<mgrwt>
<rscale>  0 0.92751489E+02</rscale>
<asrwt>0</asrwt>
<pdfrwt beam="2">  1        1 0.44831229E-02 0.92751489E+02</pdfrwt>
<pdfrwt beam="1">  1       -1 0.11354668E-01 0.92751489E+02</pdfrwt>
<totfact> 0.82120634E+04</totfact>
</mgrwt>
</event>
<event>
 5   1  0.1357339E+00  0.8668232E+02  0.7818608E-02  0.1311091E+00
         -1   -1    0    0    0  501 -0.00000000000E+00  0.00000000000E+00  0.62296127936E+01  0.62296145440E+01  0.46700000000E-02 0.  1.
          1   -1    0    0  501    0  0.00000000000E+00 -0.00000000000E+00 -0.30153656714E+03  0.30153656717E+03  0.46700000000E-02 0. -1.
         23    2    1    2    0    0  0.00000000000E+00  0.00000000000E+00 -0.29530695434E+03  0.30776618172E+03  0.86682324179E+02 0.  0.
        -11    1    3    3    0    0 -0.35263011740E+02 -0.24027188177E+02 -0.12069052494E+03  0.12801167361E+03  0.51100000000E-03 0.  1.
         11    1    3    3    0    0  0.35263011740E+02  0.24027188177E+02 -0.17461642940E+03  0.17975450811E+03  0.51100000000E-03 0. -1.
<mgrwt>
<rscale>  0 0.86682324E+02</rscale>
<asrwt>0</asrwt>
<pdfrwt beam="2">  1        1 0.46390230E-01 0.86682324E+02</pdfrwt>
<pdfrwt beam="1">  1       -1 0.95840234E-03 0.86682324E+02</pdfrwt>
<totfact> 0.14667541E+05</totfact>
</mgrwt>
</event>
<event>
 5   1  0.1357339E+00  0.9040558E+02  0.7818608E-02  0.1301872E+00
          1   -1    0    0  501    0  0.00000000000E+00  0.00000000000E+00  0.12978170225E+03  0.12978170233E+03  0.46700000000E-02 0. -1.
         -1   -1    0    0    0  501 -0.00000000000E+00 -0.00000000000E+00 -0.15744069299E+02  0.15744069992E+02  0.46700000000E-02 0.  1.
         23    2    1    2    0    0  0.00000000000E+00  0.00000000000E+00  0.11403763295E+03  0.14552577232E+03  0.90405578820E+02 0.  0.
        -11    1    3    3    0    0  0.21032036680E+02 -0.63715084717E+01  0.12060395510E+03  0.12258979024E+03  0.51100000000E-03 0. -1.
         11    1    3    3    0    0 -0.21032036680E+02  0.63715084717E+01 -0.65663221476E+01  0.22935982079E+02  0.51100000000E-03 0.  1.
<mgrwt>
<rscale>  0 0.90405579E+02</rscale>
<asrwt>0</asrwt>
<pdfrwt beam="1">  1        1 0.19966416E-01 0.90405579E+02</pdfrwt>
<pdfrwt beam="2">  1       -1 0.24221646E-02 0.90405579E+02</pdfrwt>
<totfact> 0.11177260E+05</totfact>
</mgrwt>
</event>
<event>
 5   1  0.1357339E+00  0.9476575E+02  0.7818608E-02  0.1291705E+00
         -1   -1    0    0    0  501 -0.00000000000E+00  0.00000000000E+00  0.40794847654E+02  0.40794847921E+02  0.46700000000E-02 0.  1.
          1   -1    0    0  501    0  0.00000000000E+00 -0.00000000000E+00 -0.55034817653E+02  0.55034817852E+02  0.46700000000E-02 0. -1.
         23    2    1    2    0    0  0.00000000000E+00  0.00000000000E+00 -0.14239969999E+02  0.95829665773E+02  0.94765753817E+02 0.  0.
        -11    1    3    3    0    0  0.16781183572E+01  0.28180860070E+02  0.31361944172E+02  0.42196546044E+02  0.51100000000E-03 0.  1.
         11    1    3    3    0    0 -0.16781183572E+01 -0.28180860070E+02 -0.45601914171E+02  0.53633119729E+02  0.51100000000E-03 0. -1.
<mgrwt>
<rscale>  0 0.94765754E+02</rscale>
<asrwt>0</asrwt>
<pdfrwt beam="2">  1        1 0.84668950E-02 0.94765754E+02</pdfrwt>
<pdfrwt beam="1">  1       -1 0.62761305E-02 0.94765754E+02</pdfrwt>
<totfact> 0.85396210E+04</totfact>
</mgrwt>
</event>
<event>
 5   1  0.1357339E+00  0.9334724E+02  0.7818608E-02  0.1294943E+00
         -1   -1    0    0    0  501 -0.00000000000E+00  0.00000000000E+00  0.79896973303E+02  0.79896973439E+02  0.46700000000E-02 0.  1.
          1   -1    0    0  501    0  0.00000000000E+00 -0.00000000000E+00 -0.27265445606E+02  0.27265446006E+02  0.46700000000E-02 0. -1.
         23    2    1    2    0    0  0.00000000000E+00  0.00000000000E+00  0.52631527697E+02  0.10716241945E+03  0.93347235812E+02 0.  0.
        -11    1    3    3    0    0  0.72745237880E+01  0.29290732682E+02 -0.14556196053E+02  0.33507440385E+02  0.51100000000E-03 0. -1.
         11    1    3    3    0    0 -0.72745237880E+01 -0.29290732682E+02  0.67187723750E+02  0.73654979060E+02  0.51100000000E-03 0.  1.
<mgrwt>
<rscale>  0 0.93347236E+02</rscale>
<asrwt>0</asrwt>
<pdfrwt beam="2">  1        1 0.41946839E-02 0.93347236E+02</pdfrwt>
<pdfrwt beam="1">  1       -1 0.12291842E-01 0.93347236E+02</pdfrwt>
<totfact> 0.79715024E+04</totfact>
</mgrwt>
</event>
<event>
 5   1  0.1357339E+00  0.9076585E+02  0.7818608E-02  0.1301008E+00
         -1   -1    0    0    0  501 -0.00000000000E+00  0.00000000000E+00  0.23440744146E+03  0.23440744151E+03  0.46700000000E-02 0.  1.
          1   -1    0    0  501    0  0.00000000000E+00 -0.00000000000E+00 -0.87864512686E+01  0.87864525097E+01  0.46700000000E-02 0. -1.
         23    2    1    2    0    0  0.00000000000E+00  0.00000000000E+00  0.22562099020E+03  0.24319389402E+03  0.90765846396E+02 0.  0.
        -11    1    3    3    0    0  0.47994279982E+01  0.39716980471E+02  0.55398690861E+02  0.68333652004E+02  0.51100000000E-03 0. -1.
         11    1    3    3    0    0 -0.47994279982E+01 -0.39716980471E+02  0.17022229933E+03  0.17486024202E+03  0.51100000000E-03 0.  1.
<mgrwt>
<rscale>  0 0.90765846E+02</rscale>
<asrwt>0</asrwt>
<pdfrwt beam="2">  1        1 0.13517618E-02 0.90765846E+02</pdfrwt>
<pdfrwt beam="1">  1       -1 0.36062684E-01 0.90765846E+02</pdfrwt>
<totfact> 0.66942403E+04</totfact>
</mgrwt>
</event>
<event>
 5   1  0.1357339E+00  0.8574458E+02  0.7818608E-02  0.1313497E+00
          1   -1    0    0  501    0  0.00000000000E+00  0.00000000000E+00  0.10622147678E+03  0.10622147689E+03  0.46700000000E-02 0. -1.
         -1   -1    0    0    0  501 -0.00000000000E+00 -0.00000000000E+00 -0.17303782487E+02  0.17303783117E+02  0.46700000000E-02 0.  1.
         23    2    1    2    0    0  0.00000000000E+00  0.00000000000E+00  0.88917694296E+02  0.12352526000E+03  0.85744582918E+02 0.  0.
        -11    1    3    3    0    0 -0.35160017730E+02 -0.24530053852E+02  0.44873850184E+02  0.62061363338E+02  0.51100000000E-03 0. -1.
         11    1    3    3    0    0  0.35160017730E+02  0.24530053852E+02  0.44043844112E+02  0.61463896664E+02  0.51100000000E-03 0.  1.
<mgrwt>
<rscale>  0 0.85744583E+02</rscale>
<asrwt>0</asrwt>
<pdfrwt beam="1">  1        1 0.16341765E-01 0.85744583E+02</pdfrwt>
<pdfrwt beam="2">  1       -1 0.26621205E-02 0.85744583E+02</pdfrwt>
<totfact> 0.12461258E+05</totfact>
</mgrwt>
</event>
<event>
 5   1  0.1357339E+00  0.9121886E+02  0.7818608E-02  0.1299927E+00
          1   -1    0    0  501    0  0.00000000000E+00  0.00000000000E+00  0.90970923166E+02  0.90970923286E+02  0.46700000000E-02 0. -1.
         -1   -1    0    0    0  501 -0.00000000000E+00 -0.00000000000E+00 -0.22866867158E+02  0.22866867635E+02  0.46700000000E-02 0.  1.
         23    2    1    2    0    0  0.00000000000E+00  0.00000000000E+00  0.68104056008E+02  0.11383779092E+03  0.91218858779E+02 0.  0.
        -11    1    3    3    0    0  0.44806385507E+02 -0.30250270460E+01  0.24110758202E+02  0.50971478615E+02  0.51100000000E-03 0. -1.
         11    1    3    3    0    0 -0.44806385507E+02  0.30250270460E+01  0.43993297806E+02  0.62866312306E+02  0.51100000000E-03 0.  1.
<mgrwt>
<rscale>  0 0.91218859E+02</rscale>
<asrwt>0</asrwt>
<pdfrwt beam="1">  1        1 0.13995527E-01 0.91218859E+02</pdfrwt>
<pdfrwt beam="2">  1       -1 0.35179796E-02 0.91218859E+02</pdfrwt>
<totfact> 0.10270982E+05</totfact>
</mgrwt>
</event>
<event>
 5   1  0.1357339E+00  0.9079267E+02  0.7818608E-02  0.1300943E+00
          1   -1    0    0  501    0  0.00000000000E+00  0.00000000000E+00  0.10616545030E+02  0.10616546057E+02  0.46700000000E-02 0. -1.
         -1   -1    0    0    0  501 -0.00000000000E+00 -0.00000000000E+00 -0.19411465297E+03  0.19411465303E+03  0.46700000000E-02 0.  1.
         23    2    1    2    0    0  0.00000000000E+00  0.00000000000E+00 -0.18349810794E+03  0.20473119908E+03  0.90792666338E+02 0.  0.
        -11    1    3    3    0    0  0.14374114202E+02  0.35997739412E+02 -0.38465140865E+02  0.54607869981E+02  0.51100000000E-03 0. -1.
         11    1    3    3    0    0 -0.14374114202E+02 -0.35997739412E+02 -0.14503296708E+03  0.15012332910E+03  0.51100000000E-03 0.  1.
<mgrwt>
<rscale>  0 0.90792666E+02</rscale>
<asrwt>0</asrwt>
<pdfrwt beam="1">  1        1 0.16333148E-02 0.90792666E+02</pdfrwt>
<pdfrwt beam="2">  1       -1 0.29863790E-01 0.90792666E+02</pdfrwt>
<totfact> 0.70787835E+04</totfact>
</mgrwt>
</event>
<event>
 5   1  0.1357339E+00  0.8873121E+02  0.7818608E-02  0.1305954E+00
          1   -1    0    0  501    0  0.00000000000E+00  0.00000000000E+00  0.83884995808E+02  0.83884995938E+02  0.46700000000E-02 0. -1.
         -1   -1    0    0    0  501 -0.00000000000E+00 -0.00000000000E+00 -0.23464347377E+02  0.23464347841E+02  0.46700000000E-02 0.  1.
         23    2    1    2    0    0  0.00000000000E+00  0.00000000000E+00  0.60420648431E+02  0.10734934378E+03  0.88731205632E+02 0.  0.
        -11    1    3    3    0    0 -0.21583700993E+02 -0.37454783796E+02  0.18136904449E+02  0.46879252138E+02  0.51100000000E-03 0. -1.
         11    1    3    3    0    0  0.21583700993E+02  0.37454783796E+02  0.42283743982E+02  0.60470091641E+02  0.51100000000E-03 0.  1.
<mgrwt>
<rscale>  0 0.88731206E+02</rscale>
<asrwt>0</asrwt>
<pdfrwt beam="1">  1        1 0.12905384E-01 0.88731206E+02</pdfrwt>
<pdfrwt beam="2">  1       -1 0.36098997E-02 0.88731206E+02</pdfrwt>
<totfact> 0.10933556E+05</totfact>
</mgrwt>
</event>
<event>
 5   1  0.1357339E+00  0.9146648E+02  0.7818608E-02  0.1299339E+00
          1   -1    0    0  501    0  0.00000000000E+00  0.00000000000E+00  0.32387939895E+02  0.32387940232E+02  0.46700000000E-02 0. -1.
         -1   -1    0    0    0  501 -0.00000000000E+00 -0.00000000000E+00 -0.64577414224E+02  0.64577414393E+02  0.46700000000E-02 0.  1.
         23    2    1    2    0    0  0.00000000000E+00  0.00000000000E+00 -0.32189474329E+02  0.96965354625E+02  0.91466484244E+02 0.  0.
        -11    1    3    3    0    0  0.27419258190E+02 -0.30838486325E+02 -0.36995527033E+02  0.55421087856E+02  0.51100000000E-03 0.  1.
         11    1    3    3    0    0 -0.27419258190E+02  0.30838486325E+02  0.48060527040E+01  0.41544266769E+02  0.51100000000E-03 0. -1.
<mgrwt>
<rscale>  0 0.91466484E+02</rscale>
<asrwt>0</asrwt>
<pdfrwt beam="1">  1        1 0.49827600E-02 0.91466484E+02</pdfrwt>
<pdfrwt beam="2">  1       -1 0.99349868E-02 0.91466484E+02</pdfrwt>
<totfact> 0.86958063E+04</totfact>
</mgrwt>
</event>
<event>
 5   1  0.1357339E+00  0.8912749E+02  0.7818608E-02  0.1304978E+00
         -1   -1    0    0    0  501 -0.00000000000E+00  0.00000000000E+00  0.11624008429E+02  0.11624009367E+02  0.46700000000E-02 0.  1.
          1   -1    0    0  501    0  0.00000000000E+00 -0.00000000000E+00 -0.17084701616E+03  0.17084701623E+03  0.46700000000E-02 0. -1.
         23    2    1    2    0    0  0.00000000000E+00  0.00000000000E+00 -0.15922300774E+03  0.18247102560E+03  0.89127487283E+02 0.  0.
        -11    1    3    3    0    0  0.35036537379E+00  0.26379999979E+02 -0.60822283215E+01  0.27074354219E+02  0.51100000000E-03 0.  1.
         11    1    3    3    0    0 -0.35036537379E+00 -0.26379999979E+02 -0.15314077941E+03  0.15539667138E+03  0.51100000000E-03 0. -1.
<mgrwt>
<rscale>  0 0.89127487E+02</rscale>
<asrwt>0</asrwt>
<pdfrwt beam="2">  1        1 0.26284155E-01 0.89127487E+02</pdfrwt>
<pdfrwt beam="1">  1       -1 0.17883092E-02 0.89127487E+02</pdfrwt>
<totfact> 0.12211269E+05</totfact>
</mgrwt>
</event>
<event>
 5   1  0.1357339E+00  0.9230351E+02  0.7818608E-02  0.1297367E+00
          1   -1    0    0  501    0  0.00000000000E+00  0.00000000000E+00  0.92494617588E+02  0.92494617705E+02  0.46700000000E-02 0. -1.
         -1   -1    0    0    0  501 -0.00000000000E+00 -0.00000000000E+00 -0.23028200616E+02  0.23028201089E+02  0.46700000000E-02 0.  1.
         23    2    1    2    0    0  0.00000000000E+00  0.00000000000E+00  0.69466416972E+02  0.11552281879E+03  0.92303513343E+02 0.  0.
        -11    1    3    3    0    0 -0.16735899612E+02 -0.36057351018E+02  0.64078390238E+02  0.75407313929E+02  0.51100000000E-03 0. -1.
         11    1    3    3    0    0  0.16735899612E+02  0.36057351018E+02  0.53880267339E+01  0.40115504866E+02  0.51100000000E-03 0.  1.
<mgrwt>
<rscale>  0 0.92303513E+02</rscale>
<asrwt>0</asrwt>
<pdfrwt beam="1">  1        1 0.14229941E-01 0.92303513E+02</pdfrwt>
<pdfrwt beam="2">  1       -1 0.35428001E-02 0.92303513E+02</pdfrwt>
<totfact> 0.99709310E+04</totfact>
</mgrwt>
</event>
<event>
 4   1  0.1357339E+00  0.4199377E+02  0.7818608E-02  0.1494032E+00
          1   -1    0    0  501    0  0.00000000000E+00  0.00000000000E+00  0.22393243453E+02  0.22393243940E+02  0.46700000000E-02 0. -1.
         -1   -1    0    0    0  501 -0.00000000000E+00 -0.00000000000E+00 -0.19687595087E+02  0.19687595641E+02  0.46700000000E-02 0.  1.
        -11    1    1    2    0    0 -0.16953971061E+02  0.36564970445E+01  0.13212143332E+02  0.21802931846E+02  0.51100000000E-03 0. -1.
         11    1    1    2    0    0  0.16953971061E+02 -0.36564970445E+01 -0.10506494966E+02  0.20277907735E+02  0.51100000000E-03 0.  1.
<mgrwt>
<rscale>  0 0.41993768E+02</rscale>
<asrwt>0</asrwt>
<pdfrwt beam="1">  1        1 0.34451145E-02 0.41993768E+02</pdfrwt>
<pdfrwt beam="2">  1       -1 0.30288609E-02 0.41993768E+02</pdfrwt>
<totfact> 0.67859218E+05</totfact>
</mgrwt>
</event>
<event>
 5   1  0.1357339E+00  0.9182648E+02  0.7818608E-02  0.1298488E+00
          1   -1    0    0  501    0  0.00000000000E+00  0.00000000000E+00  0.65911756956E+01  0.65911773500E+01  0.46700000000E-02 0. -1.
         -1   -1    0    0    0  501 -0.00000000000E+00 -0.00000000000E+00 -0.31982541227E+03  0.31982541230E+03  0.46700000000E-02 0.  1.
         23    2    1    2    0    0  0.00000000000E+00  0.00000000000E+00 -0.31323423657E+03  0.32641658965E+03  0.91826483321E+02 0.  0.
        -11    1    3    3    0    0  0.44381446260E+02  0.30046163095E+01 -0.19703548789E+03  0.20199436621E+03  0.51100000000E-03 0.  1.
         11    1    3    3    0    0 -0.44381446260E+02 -0.30046163095E+01 -0.11619874868E+03  0.12442222344E+03  0.51100000000E-03 0. -1.
<mgrwt>
<rscale>  0 0.91826483E+02</rscale>
<asrwt>0</asrwt>
<pdfrwt beam="1">  1        1 0.10140274E-02 0.91826483E+02</pdfrwt>
<pdfrwt beam="2">  1       -1 0.49203898E-01 0.91826483E+02</pdfrwt>
<totfact> 0.57951388E+04</totfact>
</mgrwt>
</event>
<event>
 5   1  0.1357339E+00  0.9112449E+02  0.7818608E-02  0.1300151E+00
          1   -1    0    0  501    0  0.00000000000E+00  0.00000000000E+00  0.24131664951E+03  0.24131664955E+03  0.46700000000E-02 0. -1.
         -1   -1    0    0    0  501 -0.00000000000E+00 -0.00000000000E+00 -0.86024648383E+01  0.86024661059E+01  0.46700000000E-02 0.  1.
         23    2    1    2    0    0  0.00000000000E+00  0.00000000000E+00  0.23271418467E+03  0.24991911566E+03  0.91124489713E+02 0.  0.
        -11    1    3    3    0    0  0.26470965471E+02  0.29308258712E+02  0.54042913665E+02  0.66935211655E+02  0.51100000000E-03 0.  1.
         11    1    3    3    0    0 -0.26470965471E+02 -0.29308258712E+02  0.17867127101E+03  0.18298390401E+03  0.51100000000E-03 0. -1.
<mgrwt>
<rscale>  0 0.91124490E+02</rscale>
<asrwt>0</asrwt>
<pdfrwt beam="1">  1        1 0.37125641E-01 0.91124490E+02</pdfrwt>
<pdfrwt beam="2">  1       -1 0.13234561E-02 0.91124490E+02</pdfrwt>
<totfact> 0.12300967E+05</totfact>
</mgrwt>
</event>
<event>
 5   1  0.1357339E+00  0.7212003E+02  0.7818608E-02  0.1353029E+00
          1   -1    0    0  501    0  0.00000000000E+00  0.00000000000E+00  0.48108808259E+02  0.48108808486E+02  0.46700000000E-02 0. -1.
         -1   -1    0    0    0  501 -0.00000000000E+00 -0.00000000000E+00 -0.27028826883E+02  0.27028827286E+02  0.46700000000E-02 0.  1.
         23    2    1    2    0    0  0.00000000000E+00  0.00000000000E+00  0.21079981377E+02  0.75137635772E+02  0.72120029774E+02 0.  0.
        -11    1    3    3    0    0 -0.18741340018E+02  0.39930765376E+01  0.42365513050E+02  0.46497518021E+02  0.51100000000E-03 0. -1.
         11    1    3    3    0    0  0.18741340018E+02 -0.39930765376E+01 -0.21285531673E+02  0.28640117751E+02  0.51100000000E-03 0.  1.
<mgrwt>
<rscale>  0 0.72120030E+02</rscale>
<asrwt>0</asrwt>
<pdfrwt beam="1">  1        1 0.74013551E-02 0.72120030E+02</pdfrwt>
<pdfrwt beam="2">  1       -1 0.41582811E-02 0.72120030E+02</pdfrwt>
<totfact> 0.17753332E+05</totfact>
</mgrwt>
</event>
<event>
 5   1  0.1357339E+00  0.9187380E+02  0.7818608E-02  0.1298376E+00
          1   -1    0    0  501    0  0.00000000000E+00  0.00000000000E+00  0.79201574633E+02  0.79201574771E+02  0.46700000000E-02 0.  1.
         -1   -1    0    0    0  501 -0.00000000000E+00 -0.00000000000E+00 -0.26643391523E+02  0.26643391932E+02  0.46700000000E-02 0. -1.
         23    2    1    2    0    0  0.00000000000E+00  0.00000000000E+00  0.52558183110E+02  0.10584496670E+03  0.91873795853E+02 0.  0.
        -11    1    3    3    0    0 -0.15262523226E+02 -0.46112157778E+01 -0.23353441937E+02  0.28277043282E+02  0.51100000000E-03 0. -1.
         11    1    3    3    0    0  0.15262523226E+02  0.46112157778E+01  0.75911625048E+02  0.77567923421E+02  0.51100000000E-03 0.  1.
<mgrwt>
<rscale>  0 0.91873796E+02</rscale>
<asrwt>0</asrwt>
<pdfrwt beam="1">  1        1 0.12184857E-01 0.91873796E+02</pdfrwt>
<pdfrwt beam="2">  1       -1 0.40989835E-02 0.91873796E+02</pdfrwt>
<totfact> 0.98500647E+04</totfact>
</mgrwt>
</event>
<event>
 5   1  0.1357339E+00  0.9105170E+02  0.7818608E-02  0.1300325E+00
         -1   -1    0    0    0  501 -0.00000000000E+00  0.00000000000E+00  0.33334861560E+03  0.33334861563E+03  0.46700000000E-02 0.  1.
          1   -1    0    0  501    0  0.00000000000E+00 -0.00000000000E+00 -0.62175231554E+01  0.62175249092E+01  0.46700000000E-02 0. -1.
         23    2    1    2    0    0  0.00000000000E+00  0.00000000000E+00  0.32713109244E+03  0.33956614054E+03  0.91051700470E+02 0.  0.
        -11    1    3    3    0    0 -0.30694818675E+02  0.32316728297E+02  0.12896861816E+03  0.13645309558E+03  0.51100000000E-03 0. -1.
         11    1    3    3    0    0  0.30694818675E+02 -0.32316728297E+02  0.19816247428E+03  0.20311304496E+03  0.51100000000E-03 0.  1.
<mgrwt>
<rscale>  0 0.91051700E+02</rscale>
<asrwt>0</asrwt>
<pdfrwt beam="2">  1        1 0.95654229E-03 0.91051700E+02</pdfrwt>
<pdfrwt beam="1">  1       -1 0.51284396E-01 0.91051700E+02</pdfrwt>
<totfact> 0.58224162E+04</totfact>
</mgrwt>
</event>
<event>
 5   1  0.1357339E+00  0.9223758E+02  0.7818608E-02  0.1297522E+00
          1   -1    0    0  501    0  0.00000000000E+00  0.00000000000E+00  0.85380528629E+02  0.85380528757E+02  0.46700000000E-02 0. -1.
         -1   -1    0    0    0  501 -0.00000000000E+00 -0.00000000000E+00 -0.24911330286E+02  0.24911330724E+02  0.46700000000E-02 0.  1.
         23    2    1    2    0    0  0.00000000000E+00  0.00000000000E+00  0.60469198343E+02  0.11029185948E+03  0.92237575421E+02 0.  0.
        -11    1    3    3    0    0 -0.71557387922E+01  0.39550279344E+02  0.31910254311E+01  0.40318876936E+02  0.51100000000E-03 0.  1.
         11    1    3    3    0    0  0.71557387922E+01 -0.39550279344E+02  0.57278172912E+02  0.69972982545E+02  0.51100000000E-03 0. -1.
<mgrwt>
<rscale>  0 0.92237575E+02</rscale>
<asrwt>0</asrwt>
<pdfrwt beam="1">  1        1 0.13135466E-01 0.92237575E+02</pdfrwt>
<pdfrwt beam="2">  1       -1 0.38325124E-02 0.92237575E+02</pdfrwt>
<totfact> 0.98612271E+04</totfact>
</mgrwt>
</event>
<event>
 5   1  0.1357339E+00  0.9805422E+02  0.7818608E-02  0.1284442E+00
         -1   -1    0    0    0  501 -0.00000000000E+00  0.00000000000E+00  0.86151698067E+01  0.86151710724E+01  0.46700000000E-02 0.  1.
          1   -1    0    0  501    0  0.00000000000E+00 -0.00000000000E+00 -0.27900287509E+03  0.27900287513E+03  0.46700000000E-02 0. -1.
         23    2    1    2    0    0  0.00000000000E+00  0.00000000000E+00 -0.27038770528E+03  0.28761804620E+03  0.98054216291E+02 0.  0.
        -11    1    3    3    0    0 -0.24557057821E+02 -0.36520753971E+02 -0.71816341671E+02  0.84228270140E+02  0.51100000000E-03 0.  1.
         11    1    3    3    0    0  0.24557057821E+02  0.36520753971E+02 -0.19857136361E+03  0.20338977606E+03  0.51100000000E-03 0. -1.
<mgrwt>
<rscale>  0 0.98054216E+02</rscale>
<asrwt>0</asrwt>
<pdfrwt beam="2">  1        1 0.42923512E-01 0.98054216E+02</pdfrwt>
<pdfrwt beam="1">  1       -1 0.13254111E-02 0.98054216E+02</pdfrwt>
<totfact> 0.10398326E+05</totfact>
</mgrwt>
</event>
<event>
 5   1  0.1357339E+00  0.9116207E+02  0.7818608E-02  0.1300062E+00
          1   -1    0    0  501    0  0.00000000000E+00  0.00000000000E+00  0.37730788085E+02  0.37730788374E+02  0.46700000000E-02 0.  1.
         -1   -1    0    0    0  501 -0.00000000000E+00 -0.00000000000E+00 -0.55064600710E+02  0.55064600908E+02  0.46700000000E-02 0. -1.
         23    2    1    2    0    0  0.00000000000E+00  0.00000000000E+00 -0.17333812625E+02  0.92795389281E+02  0.91162071125E+02 0.  0.
        -11    1    3    3    0    0  0.72161357212E+01 -0.44925482085E+02 -0.59243344795E+01  0.45885393042E+02  0.51100000000E-03 0. -1.
         11    1    3    3    0    0 -0.72161357212E+01  0.44925482085E+02 -0.11409478146E+02  0.46909996239E+02  0.51100000000E-03 0.  1.
<mgrwt>
<rscale>  0 0.91162071E+02</rscale>
<asrwt>0</asrwt>
<pdfrwt beam="1">  1        1 0.58047366E-02 0.91162071E+02</pdfrwt>
<pdfrwt beam="2">  1       -1 0.84714771E-02 0.91162071E+02</pdfrwt>
<totfact> 0.89900614E+04</totfact>
</mgrwt>
</event>
<event>
 5   1  0.1357339E+00  0.7919158E+02  0.7818608E-02  0.1331361E+00
         -1   -1    0    0    0  501 -0.00000000000E+00  0.00000000000E+00  0.10166279854E+03  0.10166279864E+03  0.46700000000E-02 0.  1.
          1   -1    0    0  501    0  0.00000000000E+00 -0.00000000000E+00 -0.15421830242E+02  0.15421830949E+02  0.46700000000E-02 0. -1.
         23    2    1    2    0    0  0.00000000000E+00  0.00000000000E+00  0.86240968295E+02  0.11708462959E+03  0.79191577042E+02 0.  0.
        -11    1    3    3    0    0  0.16828059404E+02 -0.16847921031E+02 -0.36522189139E+01  0.24090967802E+02  0.51100000000E-03 0. -1.
         11    1    3    3    0    0 -0.16828059404E+02  0.16847921031E+02  0.89893187209E+02  0.92993661790E+02  0.51100000000E-03 0.  1.
<mgrwt>
<rscale>  0 0.79191577E+02</rscale>
<asrwt>0</asrwt>
<pdfrwt beam="2">  1        1 0.23725893E-02 0.79191577E+02</pdfrwt>
<pdfrwt beam="1">  1       -1 0.15640431E-01 0.79191577E+02</pdfrwt>
<totfact> 0.11648907E+05</totfact>
</mgrwt>
</event>
<event>
 5   1  0.1357339E+00  0.9165165E+02  0.7818608E-02  0.1298901E+00
          1   -1    0    0  501    0  0.00000000000E+00  0.00000000000E+00  0.83951526714E+02  0.83951526844E+02  0.46700000000E-02 0. -1.
         -1   -1    0    0    0  501 -0.00000000000E+00 -0.00000000000E+00 -0.25014507767E+02  0.25014508203E+02  0.46700000000E-02 0.  1.
         23    2    1    2    0    0  0.00000000000E+00  0.00000000000E+00  0.58937018946E+02  0.10896603505E+03  0.91651648057E+02 0.  0.
        -11    1    3    3    0    0  0.28368254890E+02 -0.11217498562E+02 -0.11188495543E+02  0.32492654435E+02  0.51100000000E-03 0. -1.
         11    1    3    3    0    0 -0.28368254890E+02  0.11217498562E+02  0.70125514489E+02  0.76473380611E+02  0.51100000000E-03 0.  1.
<mgrwt>
<rscale>  0 0.91651648E+02</rscale>
<asrwt>0</asrwt>
<pdfrwt beam="1">  1        1 0.12915619E-01 0.91651648E+02</pdfrwt>
<pdfrwt beam="2">  1       -1 0.38483859E-02 0.91651648E+02</pdfrwt>
<totfact> 0.10008092E+05</totfact>
</mgrwt>
</event>
<event>
 5   1  0.1357339E+00  0.9172086E+02  0.7818608E-02  0.1298737E+00
          1   -1    0    0  501    0  0.00000000000E+00  0.00000000000E+00  0.16984699665E+02  0.16984700307E+02  0.46700000000E-02 0. -1.
         -1   -1    0    0    0  501 -0.00000000000E+00 -0.00000000000E+00 -0.12382785829E+03  0.12382785838E+03  0.46700000000E-02 0.  1.
         23    2    1    2    0    0  0.00000000000E+00  0.00000000000E+00 -0.10684315863E+03  0.14081255869E+03  0.91720859888E+02 0.  0.
        -11    1    3    3    0    0 -0.17805666973E+02 -0.23308870201E+02  0.70116446400E+00  0.29340021102E+02  0.51100000000E-03 0. -1.
         11    1    3    3    0    0  0.17805666973E+02  0.23308870201E+02 -0.10754432309E+03  0.11147253758E+03  0.51100000000E-03 0.  1.
<mgrwt>
<rscale>  0 0.91720860E+02</rscale>
<asrwt>0</asrwt>
<pdfrwt beam="1">  1        1 0.26130309E-02 0.91720860E+02</pdfrwt>
<pdfrwt beam="2">  1       -1 0.19050439E-01 0.91720860E+02</pdfrwt>
<totfact> 0.76830382E+04</totfact>
</mgrwt>
</event>
<event>
 5   1  0.1357339E+00  0.9595496E+02  0.7818608E-02  0.1289040E+00
          1   -1    0    0  501    0  0.00000000000E+00  0.00000000000E+00  0.14756285079E+03  0.14756285086E+03  0.46700000000E-02 0. -1.
         -1   -1    0    0    0  501 -0.00000000000E+00 -0.00000000000E+00 -0.15599037787E+02  0.15599038486E+02  0.46700000000E-02 0.  1.
         23    2    1    2    0    0  0.00000000000E+00  0.00000000000E+00  0.13196381300E+03  0.16316188935E+03  0.95954959193E+02 0.  0.
        -11    1    3    3    0    0 -0.37379934506E+02 -0.13445449330E+01  0.14891405799E+02  0.40259424632E+02  0.51100000000E-03 0.  1.
         11    1    3    3    0    0  0.37379934506E+02  0.13445449330E+01  0.11707240720E+03  0.12290246472E+03  0.51100000000E-03 0. -1.
<mgrwt>
<rscale>  0 0.95954959E+02</rscale>
<asrwt>0</asrwt>
<pdfrwt beam="1">  1        1 0.22701977E-01 0.95954959E+02</pdfrwt>
<pdfrwt beam="2">  1       -1 0.23998520E-02 0.95954959E+02</pdfrwt>
<totfact> 0.97349881E+04</totfact>
</mgrwt>
</event>
<event>
 5   1  0.1357339E+00  0.9106968E+02  0.7818608E-02  0.1300282E+00
          1   -1    0    0  501    0  0.00000000000E+00  0.00000000000E+00  0.19904655203E+03  0.19904655208E+03  0.46700000000E-02 0. -1.
         -1   -1    0    0    0  501 -0.00000000000E+00 -0.00000000000E+00 -0.10416767528E+02  0.10416768575E+02  0.46700000000E-02 0.  1.
         23    2    1    2    0    0  0.00000000000E+00  0.00000000000E+00  0.18862978450E+03  0.20946332066E+03  0.91069682663E+02 0.  0.
        -11    1    3    3    0    0 -0.17848235291E+02  0.27626556844E+02  0.21886270330E+02  0.39506897818E+02  0.51100000000E-03 0.  1.
         11    1    3    3    0    0  0.17848235291E+02 -0.27626556844E+02  0.16674351417E+03  0.16995642284E+03  0.51100000000E-03 0. -1.
<mgrwt>
<rscale>  0 0.91069683E+02</rscale>
<asrwt>0</asrwt>
<pdfrwt beam="1">  1        1 0.30622546E-01 0.91069683E+02</pdfrwt>
<pdfrwt beam="2">  1       -1 0.16025797E-02 0.91069683E+02</pdfrwt>
<totfact> 0.11867034E+05</totfact>
</mgrwt>
</event>
<event>
 5   1  0.1357339E+00  0.9282246E+02  0.7818608E-02  0.1296157E+00
         -1   -1    0    0    0  501 -0.00000000000E+00  0.00000000000E+00  0.50357391238E+02  0.50357391455E+02  0.46700000000E-02 0.  1.
          1   -1    0    0  501    0  0.00000000000E+00 -0.00000000000E+00 -0.42774301844E+02  0.42774302099E+02  0.46700000000E-02 0. -1.
         23    2    1    2    0    0  0.00000000000E+00  0.00000000000E+00  0.75830893940E+01  0.93131693554E+02  0.92822460103E+02 0.  0.
        -11    1    3    3    0    0 -0.16260455886E+02  0.43460899010E+02  0.46605167660E+01  0.46636601347E+02  0.51100000000E-03 0. -1.
         11    1    3    3    0    0  0.16260455886E+02 -0.43460899010E+02  0.29225726280E+01  0.46495092208E+02  0.51100000000E-03 0.  1.
<mgrwt>
<rscale>  0 0.92822460E+02</rscale>
<asrwt>0</asrwt>
<pdfrwt beam="2">  1        1 0.65806618E-02 0.92822460E+02</pdfrwt>
<pdfrwt beam="1">  1       -1 0.77472910E-02 0.92822460E+02</pdfrwt>
<totfact> 0.87079908E+04</totfact>
</mgrwt>
</event>
<event>
 5   1  0.1357339E+00  0.9324972E+02  0.7818608E-02  0.1295168E+00
         -1   -1    0    0    0  501 -0.00000000000E+00  0.00000000000E+00  0.17223134223E+02  0.17223134856E+02  0.46700000000E-02 0.  1.
          1   -1    0    0  501    0  0.00000000000E+00 -0.00000000000E+00 -0.12621846678E+03  0.12621846686E+03  0.46700000000E-02 0. -1.
         23    2    1    2    0    0  0.00000000000E+00  0.00000000000E+00 -0.10899533255E+03  0.14344160172E+03  0.93249721637E+02 0.  0.
        -11    1    3    3    0    0  0.38333586638E+02 -0.16632829498E+02 -0.22682875547E+02  0.47546058984E+02  0.51100000000E-03 0.  1.
         11    1    3    3    0    0 -0.38333586638E+02  0.16632829498E+02 -0.86312457008E+02  0.95895542736E+02  0.51100000000E-03 0. -1.
<mgrwt>
<rscale>  0 0.93249722E+02</rscale>
<asrwt>0</asrwt>
<pdfrwt beam="2">  1        1 0.19418225E-01 0.93249722E+02</pdfrwt>
<pdfrwt beam="1">  1       -1 0.26497131E-02 0.93249722E+02</pdfrwt>
<totfact> 0.10226190E+05</totfact>
</mgrwt>
</event>
<event>
 5   1  0.1357339E+00  0.8996831E+02  0.7818608E-02  0.1302928E+00
         -1   -1    0    0    0  501 -0.00000000000E+00  0.00000000000E+00  0.25473445228E+02  0.25473445656E+02  0.46700000000E-02 0.  1.
          1   -1    0    0  501    0  0.00000000000E+00 -0.00000000000E+00 -0.79438572851E+02  0.79438572988E+02  0.46700000000E-02 0. -1.
         23    2    1    2    0    0  0.00000000000E+00  0.00000000000E+00 -0.53965127623E+02  0.10491201864E+03  0.89968309179E+02 0.  0.
        -11    1    3    3    0    0 -0.67758500505E+01  0.42127071699E+02 -0.10369352467E+02  0.43910429111E+02  0.51100000000E-03 0.  1.
         11    1    3    3    0    0  0.67758500505E+01 -0.42127071699E+02 -0.43595775156E+02  0.61001589533E+02  0.51100000000E-03 0. -1.
<mgrwt>
<rscale>  0 0.89968309E+02</rscale>
<asrwt>0</asrwt>
<pdfrwt beam="2">  1        1 0.12221319E-01 0.89968309E+02</pdfrwt>
<pdfrwt beam="1">  1       -1 0.39189917E-02 0.89968309E+02</pdfrwt>
<totfact> 0.10438079E+05</totfact>
</mgrwt>
</event>
<event>
 5   1  0.1357339E+00  0.9426405E+02  0.7818608E-02  0.1292842E+00
          1   -1    0    0  501    0  0.00000000000E+00  0.00000000000E+00  0.20702000754E+02  0.20702001281E+02  0.46700000000E-02 0. -1.
         -1   -1    0    0    0  501 -0.00000000000E+00 -0.00000000000E+00 -0.10730498674E+03  0.10730498684E+03  0.46700000000E-02 0.  1.
         23    2    1    2    0    0  0.00000000000E+00  0.00000000000E+00 -0.86602985985E+02  0.12800698812E+03  0.94264053735E+02 0.  0.
        -11    1    3    3    0    0 -0.19830416717E+02 -0.82001063369E+01 -0.10028641301E+03  0.10255657856E+03  0.51100000000E-03 0.  1.
         11    1    3    3    0    0  0.19830416717E+02  0.82001063369E+01  0.13683427030E+02  0.25450409558E+02  0.51100000000E-03 0. -1.
<mgrwt>
<rscale>  0 0.94264054E+02</rscale>
<asrwt>0</asrwt>
<pdfrwt beam="1">  1        1 0.31849233E-02 0.94264054E+02</pdfrwt>
<pdfrwt beam="2">  1       -1 0.16508459E-01 0.94264054E+02</pdfrwt>
<totfact> 0.73674529E+04</totfact>
</mgrwt>
</event>
<event>
 5   1  0.1357339E+00  0.9182442E+02  0.7818608E-02  0.1298493E+00
          1   -1    0    0  501    0  0.00000000000E+00  0.00000000000E+00  0.15001951242E+03  0.15001951249E+03  0.46700000000E-02 0. -1.
         -1   -1    0    0    0  501 -0.00000000000E+00 -0.00000000000E+00 -0.14051044462E+02  0.14051045238E+02  0.46700000000E-02 0.  1.
         23    2    1    2    0    0  0.00000000000E+00  0.00000000000E+00  0.13596846795E+03  0.16407055773E+03  0.91824417423E+02 0.  0.
        -11    1    3    3    0    0 -0.17634550200E+02 -0.17582726431E+02 -0.93571330956E+00  0.24919975705E+02  0.51100000000E-03 0.  1.
         11    1    3    3    0    0  0.17634550200E+02  0.17582726431E+02  0.13690418126E+03  0.13915058202E+03  0.51100000000E-03 0. -1.
<mgrwt>
<rscale>  0 0.91824417E+02</rscale>
<asrwt>0</asrwt>
<pdfrwt beam="1">  1        1 0.23079924E-01 0.91824417E+02</pdfrwt>
<pdfrwt beam="2">  1       -1 0.21616993E-02 0.91824417E+02</pdfrwt>
<totfact> 0.11001200E+05</totfact>
</mgrwt>
</event>
<event>
 5   1  0.1357339E+00  0.9120860E+02  0.7818608E-02  0.1299951E+00
          1   -1    0    0  501    0  0.00000000000E+00  0.00000000000E+00  0.29003784049E+02  0.29003784425E+02  0.46700000000E-02 0. -1.
         -1   -1    0    0    0  501 -0.00000000000E+00 -0.00000000000E+00 -0.71706235010E+02  0.71706235162E+02  0.46700000000E-02 0.  1.
         23    2    1    2    0    0  0.00000000000E+00  0.00000000000E+00 -0.42702450962E+02  0.10071001959E+03  0.91208600072E+02 0.  0.
        -11    1    3    3    0    0 -0.47490480112E+01  0.38787653089E+02  0.46077878124E+01  0.39348026608E+02  0.51100000000E-03 0.  1.
         11    1    3    3    0    0  0.47490480112E+01 -0.38787653089E+02 -0.47310238774E+02  0.61361992979E+02  0.51100000000E-03 0. -1.
<mgrwt>
<rscale>  0 0.91208600E+02</rscale>
<asrwt>0</asrwt>
<pdfrwt beam="1">  1        1 0.44621207E-02 0.91208600E+02</pdfrwt>
<pdfrwt beam="2">  1       -1 0.11031728E-01 0.91208600E+02</pdfrwt>
<totfact> 0.86124990E+04</totfact>
</mgrwt>
</event>
<event>
 5   1  0.1357339E+00  0.9132908E+02  0.7818608E-02  0.1299665E+00
         -1   -1    0    0    0  501 -0.00000000000E+00  0.00000000000E+00  0.14726305231E+02  0.14726305972E+02  0.46700000000E-02 0.  1.
          1   -1    0    0  501    0  0.00000000000E+00 -0.00000000000E+00 -0.14160034885E+03  0.14160034893E+03  0.46700000000E-02 0. -1.
         23    2    1    2    0    0  0.00000000000E+00  0.00000000000E+00 -0.12687404362E+03  0.15632665490E+03  0.91329075808E+02 0.  0.
        -11    1    3    3    0    0 -0.44224197118E+01 -0.23920837329E+02  0.27121659777E+01  0.24476929938E+02  0.51100000000E-03 0.  1.
         11    1    3    3    0    0  0.44224197118E+01  0.23920837329E+02 -0.12958620960E+03  0.13184972496E+03  0.51100000000E-03 0. -1.
<mgrwt>
<rscale>  0 0.91329076E+02</rscale>
<asrwt>0</asrwt>
<pdfrwt beam="2">  1        1 0.21784668E-01 0.91329076E+02</pdfrwt>
<pdfrwt beam="1">  1       -1 0.22655856E-02 0.91329076E+02</pdfrwt>
<totfact> 0.11045900E+05</totfact>
</mgrwt>
</event>
<event>
 5   1  0.1357339E+00  0.8783231E+02  0.7818608E-02  0.1308188E+00
          1   -1    0    0  501    0  0.00000000000E+00  0.00000000000E+00  0.56675739288E+01  0.56675758528E+01  0.46700000000E-02 0. -1.
         -1   -1    0    0    0  501 -0.00000000000E+00 -0.00000000000E+00 -0.34029171647E+03  0.34029171650E+03  0.46700000000E-02 0.  1.
         23    2    1    2    0    0  0.00000000000E+00  0.00000000000E+00 -0.33462414254E+03  0.34595929235E+03  0.87832312933E+02 0.  0.
        -11    1    3    3    0    0 -0.16262696435E+02 -0.38667256976E+02 -0.11610736895E+03  0.12345263538E+03  0.51100000000E-03 0. -1.
         11    1    3    3    0    0  0.16262696435E+02  0.38667256976E+02 -0.21851677359E+03  0.22250665698E+03  0.51100000000E-03 0.  1.
<mgrwt>
<rscale>  0 0.87832313E+02</rscale>
<asrwt>0</asrwt>
<pdfrwt beam="1">  1        1 0.87193487E-03 0.87832313E+02</pdfrwt>
<pdfrwt beam="2">  1       -1 0.52352556E-01 0.87832313E+02</pdfrwt>
<totfact> 0.63395767E+04</totfact>
</mgrwt>
</event>
<event>
 5   1  0.1357339E+00  0.9425158E+02  0.7818608E-02  0.1292871E+00
         -1   -1    0    0    0  501 -0.00000000000E+00  0.00000000000E+00  0.15457356740E+02  0.15457357445E+02  0.46700000000E-02 0.  1.
          1   -1    0    0  501    0  0.00000000000E+00 -0.00000000000E+00 -0.14367527125E+03  0.14367527132E+03  0.46700000000E-02 0. -1.
         23    2    1    2    0    0  0.00000000000E+00  0.00000000000E+00 -0.12821791451E+03  0.15913262877E+03  0.94251577909E+02 0.  0.
        -11    1    3    3    0    0 -0.33524402392E+02  0.20746674656E+02 -0.20519603343E+02  0.44445069317E+02  0.51100000000E-03 0. -1.
         11    1    3    3    0    0  0.33524402392E+02 -0.20746674656E+02 -0.10769831117E+03  0.11468755945E+03  0.51100000000E-03 0.  1.
<mgrwt>
<rscale>  0 0.94251578E+02</rscale>
<asrwt>0</asrwt>
<pdfrwt beam="2">  1        1 0.22103887E-01 0.94251578E+02</pdfrwt>
<pdfrwt beam="1">  1       -1 0.23780550E-02 0.94251578E+02</pdfrwt>
<totfact> 0.10169617E+05</totfact>
</mgrwt>
</event>
<event>
 5   1  0.1357339E+00  0.9209193E+02  0.7818608E-02  0.1297863E+00
          1   -1    0    0  501    0  0.00000000000E+00  0.00000000000E+00  0.10177711194E+02  0.10177712265E+02  0.46700000000E-02 0. -1.
         -1   -1    0    0    0  501 -0.00000000000E+00 -0.00000000000E+00 -0.20832096979E+03  0.20832096984E+03  0.46700000000E-02 0.  1.
         23    2    1    2    0    0  0.00000000000E+00  0.00000000000E+00 -0.19814325860E+03  0.21849868211E+03  0.92091927744E+02 0.  0.
        -11    1    3    3    0    0 -0.40094246315E+02 -0.14354185847E+02 -0.14061878926E+03  0.14692595119E+03  0.51100000000E-03 0.  1.
         11    1    3    3    0    0  0.40094246315E+02  0.14354185847E+02 -0.57524469336E+02  0.71572730921E+02  0.51100000000E-03 0. -1.
<mgrwt>
<rscale>  0 0.92091928E+02</rscale>
<asrwt>0</asrwt>
<pdfrwt beam="1">  1        1 0.15658020E-02 0.92091928E+02</pdfrwt>
<pdfrwt beam="2">  1       -1 0.32049377E-01 0.92091928E+02</pdfrwt>
<totfact> 0.66842860E+04</totfact>
</mgrwt>
</event>
<event>
 5   1  0.1357339E+00  0.9134193E+02  0.7818608E-02  0.1299634E+00
          1   -1    0    0  501    0  0.00000000000E+00  0.00000000000E+00  0.33816963803E+03  0.33816963806E+03  0.46700000000E-02 0. -1.
         -1   -1    0    0    0  501 -0.00000000000E+00 -0.00000000000E+00 -0.61680195796E+01  0.61680213475E+01  0.46700000000E-02 0.  1.
         23    2    1    2    0    0  0.00000000000E+00  0.00000000000E+00  0.33200161845E+03  0.34433765941E+03  0.91341934696E+02 0.  0.
        -11    1    3    3    0    0 -0.99042188477E+01  0.44216006231E+02  0.18755401198E+03  0.19294987994E+03  0.51100000000E-03 0. -1.
         11    1    3    3    0    0  0.99042188477E+01 -0.44216006231E+02  0.14444760646E+03  0.15138777947E+03  0.51100000000E-03 0.  1.
<mgrwt>
<rscale>  0 0.91341935E+02</rscale>
<asrwt>0</asrwt>
<pdfrwt beam="1">  1        1 0.52026110E-01 0.91341935E+02</pdfrwt>
<pdfrwt beam="2">  1       -1 0.94892601E-03 0.91341935E+02</pdfrwt>
<totfact> 0.13038854E+05</totfact>
</mgrwt>
</event>
<event>
 5   1  0.1357339E+00  0.9159732E+02  0.7818608E-02  0.1299029E+00
         -1   -1    0    0    0  501 -0.00000000000E+00  0.00000000000E+00  0.43712099221E+02  0.43712099471E+02  0.46700000000E-02 0.  1.
          1   -1    0    0  501    0  0.00000000000E+00 -0.00000000000E+00 -0.47984822278E+02  0.47984822505E+02  0.46700000000E-02 0. -1.
         23    2    1    2    0    0  0.00000000000E+00  0.00000000000E+00 -0.42727230564E+01  0.91696921976E+02  0.91597321672E+02 0.  0.
        -11    1    3    3    0    0 -0.40618786403E+02 -0.16132913828E+02  0.11566495816E+02  0.45209960663E+02  0.51100000000E-03 0.  1.
         11    1    3    3    0    0  0.40618786403E+02  0.16132913828E+02 -0.15839218872E+02  0.46486961313E+02  0.51100000000E-03 0. -1.
<mgrwt>
<rscale>  0 0.91597322E+02</rscale>
<asrwt>0</asrwt>
<pdfrwt beam="2">  1        1 0.73822804E-02 0.91597322E+02</pdfrwt>
<pdfrwt beam="1">  1       -1 0.67249384E-02 0.91597322E+02</pdfrwt>
<totfact> 0.91992104E+04</totfact>
</mgrwt>
</event>
<event>
 5   1  0.1357339E+00  0.9106572E+02  0.7818608E-02  0.1300291E+00
         -1   -1    0    0    0  501 -0.00000000000E+00  0.00000000000E+00  0.94688594500E+02  0.94688594615E+02  0.46700000000E-02 0.  1.
          1   -1    0    0  501    0  0.00000000000E+00 -0.00000000000E+00 -0.21895366184E+02  0.21895366682E+02  0.46700000000E-02 0. -1.
         23    2    1    2    0    0  0.00000000000E+00  0.00000000000E+00  0.72793228315E+02  0.11658396130E+03  0.91065723207E+02 0.  0.
        -11    1    3    3    0    0  0.16230495575E+02 -0.37403171554E+02  0.62344808902E+02  0.74493633461E+02  0.51100000000E-03 0.  1.
         11    1    3    3    0    0 -0.16230495575E+02  0.37403171554E+02  0.10448419413E+02  0.42090327836E+02  0.51100000000E-03 0. -1.
<mgrwt>
<rscale>  0 0.91065723E+02</rscale>
<asrwt>0</asrwt>
<pdfrwt beam="2">  1        1 0.33685179E-02 0.91065723E+02</pdfrwt>
<pdfrwt beam="1">  1       -1 0.14567476E-01 0.91065723E+02</pdfrwt>
<totfact> 0.82448585E+04</totfact>
</mgrwt>
</event>
<event>
 5   1  0.1357339E+00  0.8941798E+02  0.7818608E-02  0.1304267E+00
         -1   -1    0    0    0  501 -0.00000000000E+00  0.00000000000E+00  0.22346122453E+02  0.22346122941E+02  0.46700000000E-02 0.  1.
          1   -1    0    0  501    0  0.00000000000E+00 -0.00000000000E+00 -0.89451476031E+02  0.89451476153E+02  0.46700000000E-02 0. -1.
         23    2    1    2    0    0  0.00000000000E+00  0.00000000000E+00 -0.67105353578E+02  0.11179759909E+03  0.89417977411E+02 0.  0.
        -11    1    3    3    0    0  0.16881007004E+02 -0.38543955854E+02 -0.52443456376E+02  0.67237794783E+02  0.51100000000E-03 0. -1.
         11    1    3    3    0    0 -0.16881007004E+02  0.38543955854E+02 -0.14661897202E+02  0.44559804310E+02  0.51100000000E-03 0.  1.
<mgrwt>
<rscale>  0 0.89417977E+02</rscale>
<asrwt>0</asrwt>
<pdfrwt beam="2">  1        1 0.13761765E-01 0.89417977E+02</pdfrwt>
<pdfrwt beam="1">  1       -1 0.34378651E-02 0.89417977E+02</pdfrwt>
<totfact> 0.10815889E+05</totfact>
</mgrwt>
</event>
<event>
 5   1  0.1357339E+00  0.8969281E+02  0.7818608E-02  0.1303597E+00
          1   -1    0    0  501    0  0.00000000000E+00  0.00000000000E+00  0.82551810282E+02  0.82551810414E+02  0.46700000000E-02 0. -1.
         -1   -1    0    0    0  501 -0.00000000000E+00 -0.00000000000E+00 -0.24362879742E+02  0.24362880190E+02  0.46700000000E-02 0.  1.
         23    2    1    2    0    0  0.00000000000E+00  0.00000000000E+00  0.58188930540E+02  0.10691469060E+03  0.89692805896E+02 0.  0.
        -11    1    3    3    0    0  0.15564511294E+01  0.21492947186E+02  0.75975926744E+02  0.78972848269E+02  0.51100000000E-03 0. -1.
         11    1    3    3    0    0 -0.15564511294E+01 -0.21492947186E+02 -0.17786996204E+02  0.27941842335E+02  0.51100000000E-03 0.  1.
<mgrwt>
<rscale>  0 0.89692806E+02</rscale>
<asrwt>0</asrwt>
<pdfrwt beam="1">  1        1 0.12700279E-01 0.89692806E+02</pdfrwt>
<pdfrwt beam="2">  1       -1 0.37481354E-02 0.89692806E+02</pdfrwt>
<totfact> 0.10589708E+05</totfact>
</mgrwt>
</event>
<event>
 5   1  0.1357339E+00  0.9067432E+02  0.7818608E-02  0.1301227E+00
          1   -1    0    0  501    0  0.00000000000E+00  0.00000000000E+00  0.12705044538E+03  0.12705044547E+03  0.46700000000E-02 0. -1.
         -1   -1    0    0    0  501 -0.00000000000E+00 -0.00000000000E+00 -0.16178283680E+02  0.16178284354E+02  0.46700000000E-02 0.  1.
         23    2    1    2    0    0  0.00000000000E+00  0.00000000000E+00  0.11087216170E+03  0.14322872982E+03  0.90674322750E+02 0.  0.
        -11    1    3    3    0    0  0.30165907023E+02  0.27724721237E+02  0.86098791007E+02  0.95350112361E+02  0.51100000000E-03 0. -1.
         11    1    3    3    0    0 -0.30165907023E+02 -0.27724721237E+02  0.24773370697E+02  0.47878617463E+02  0.51100000000E-03 0.  1.
<mgrwt>
<rscale>  0 0.90674323E+02</rscale>
<asrwt>0</asrwt>
<pdfrwt beam="1">  1        1 0.19546222E-01 0.90674323E+02</pdfrwt>
<pdfrwt beam="2">  1       -1 0.24889668E-02 0.90674323E+02</pdfrwt>
<totfact> 0.11046317E+05</totfact>
</mgrwt>
</event>
<event>
 5   1  0.1357339E+00  0.9053374E+02  0.7818608E-02  0.1301564E+00
         -1   -1    0    0    0  501 -0.00000000000E+00  0.00000000000E+00  0.25527494427E+02  0.25527494854E+02  0.46700000000E-02 0.  1.
          1   -1    0    0  501    0  0.00000000000E+00 -0.00000000000E+00 -0.80269901043E+02  0.80269901179E+02  0.46700000000E-02 0. -1.
         23    2    1    2    0    0  0.00000000000E+00  0.00000000000E+00 -0.54742406616E+02  0.10579739603E+03  0.90533739154E+02 0.  0.
        -11    1    3    3    0    0  0.33360018728E+02  0.17557081886E+02 -0.56654919648E+02  0.68050877250E+02  0.51100000000E-03 0. -1.
         11    1    3    3    0    0 -0.33360018728E+02 -0.17557081886E+02  0.19125130324E+01  0.37746518783E+02  0.51100000000E-03 0.  1.
<mgrwt>
<rscale>  0 0.90533739E+02</rscale>
<asrwt>0</asrwt>
<pdfrwt beam="2">  1        1 0.12349215E-01 0.90533739E+02</pdfrwt>
<pdfrwt beam="1">  1       -1 0.39273069E-02 0.90533739E+02</pdfrwt>
<totfact> 0.10277295E+05</totfact>
</mgrwt>
</event>
<event>
 5   1  0.1357339E+00  0.9052522E+02  0.7818608E-02  0.1301585E+00
         -1   -1    0    0    0  501 -0.00000000000E+00  0.00000000000E+00  0.53627311767E+01  0.53627332101E+01  0.46700000000E-02 0.  1.
          1   -1    0    0  501    0  0.00000000000E+00 -0.00000000000E+00 -0.38202613320E+03  0.38202613323E+03  0.46700000000E-02 0. -1.
         23    2    1    2    0    0  0.00000000000E+00  0.00000000000E+00 -0.37666340203E+03  0.38738886644E+03  0.90525219784E+02 0.  0.
        -11    1    3    3    0    0  0.20314660048E+02  0.39277560545E+02 -0.14699850371E+03  0.15350560989E+03  0.51100000000E-03 0.  1.
         11    1    3    3    0    0 -0.20314660048E+02 -0.39277560545E+02 -0.22966489832E+03  0.23388325655E+03  0.51100000000E-03 0. -1.
<mgrwt>
<rscale>  0 0.90525220E+02</rscale>
<asrwt>0</asrwt>
<pdfrwt beam="2">  1        1 0.58773230E-01 0.90525220E+02</pdfrwt>
<pdfrwt beam="1">  1       -1 0.82503602E-03 0.90525220E+02</pdfrwt>
<totfact> 0.13643276E+05</totfact>
</mgrwt>
</event>
<event>
 5   1  0.1357339E+00  0.9042835E+02  0.7818608E-02  0.1301818E+00
          1   -1    0    0  501    0  0.00000000000E+00  0.00000000000E+00  0.87128848484E+01  0.87128860999E+01  0.46700000000E-02 0. -1.
         -1   -1    0    0    0  501 -0.00000000000E+00 -0.00000000000E+00 -0.23463196223E+03  0.23463196227E+03  0.46700000000E-02 0.  1.
         23    2    1    2    0    0  0.00000000000E+00  0.00000000000E+00 -0.22591907738E+03  0.24334484837E+03  0.90428345701E+02 0.  0.
        -11    1    3    3    0    0 -0.18376914124E+02 -0.36206006447E+02 -0.59426720870E+02  0.71973057662E+02  0.51100000000E-03 0. -1.
         11    1    3    3    0    0  0.18376914124E+02  0.36206006447E+02 -0.16649235651E+03  0.17137179071E+03  0.51100000000E-03 0.  1.
<mgrwt>
<rscale>  0 0.90428346E+02</rscale>
<asrwt>0</asrwt>
<pdfrwt beam="1">  1        1 0.13404441E-02 0.90428346E+02</pdfrwt>
<pdfrwt beam="2">  1       -1 0.36097220E-01 0.90428346E+02</pdfrwt>
<totfact> 0.67574720E+04</totfact>
</mgrwt>
</event>
<event>
 5   1  0.1357339E+00  0.9240887E+02  0.7818608E-02  0.1297121E+00
         -1   -1    0    0    0  501 -0.00000000000E+00  0.00000000000E+00  0.73302690424E+02  0.73302690573E+02  0.46700000000E-02 0.  1.
          1   -1    0    0  501    0  0.00000000000E+00 -0.00000000000E+00 -0.29123758394E+02  0.29123758769E+02  0.46700000000E-02 0. -1.
         23    2    1    2    0    0  0.00000000000E+00  0.00000000000E+00  0.44178932030E+02  0.10242644934E+03  0.92408871270E+02 0.  0.
        -11    1    3    3    0    0  0.41636270469E+02 -0.61669004343E+01  0.96453005929E+00  0.42101543892E+02  0.51100000000E-03 0.  1.
         11    1    3    3    0    0 -0.41636270469E+02  0.61669004343E+01  0.43214401970E+02  0.60324905449E+02  0.51100000000E-03 0. -1.
<mgrwt>
<rscale>  0 0.92408871E+02</rscale>
<asrwt>0</asrwt>
<pdfrwt beam="2">  1        1 0.44805783E-02 0.92408871E+02</pdfrwt>
<pdfrwt beam="1">  1       -1 0.11277337E-01 0.92408871E+02</pdfrwt>
<totfact> 0.82995073E+04</totfact>
</mgrwt>
</event>
<event>
 5   1  0.1357339E+00  0.9088350E+02  0.7818608E-02  0.1300726E+00
          1   -1    0    0  501    0  0.00000000000E+00  0.00000000000E+00  0.73715351459E+02  0.73715351607E+02  0.46700000000E-02 0. -1.
         -1   -1    0    0    0  501 -0.00000000000E+00 -0.00000000000E+00 -0.28012518708E+02  0.28012519097E+02  0.46700000000E-02 0.  1.
         23    2    1    2    0    0  0.00000000000E+00  0.00000000000E+00  0.45702832751E+02  0.10172787070E+03  0.90883501014E+02 0.  0.
        -11    1    3    3    0    0  0.31250569561E+02  0.55235964821E+01 -0.13553984390E+02  0.34508241176E+02  0.51100000000E-03 0. -1.
         11    1    3    3    0    0 -0.31250569561E+02 -0.55235964821E+01  0.59256817140E+02  0.67219629528E+02  0.51100000000E-03 0.  1.
<mgrwt>
<rscale>  0 0.90883501E+02</rscale>
<asrwt>0</asrwt>
<pdfrwt beam="1">  1        1 0.11340823E-01 0.90883501E+02</pdfrwt>
<pdfrwt beam="2">  1       -1 0.43096184E-02 0.90883501E+02</pdfrwt>
<totfact> 0.10034704E+05</totfact>
</mgrwt>
</event>
<event>
 5   1  0.1357339E+00  0.8381024E+02  0.7818608E-02  0.1318574E+00
          1   -1    0    0  501    0  0.00000000000E+00  0.00000000000E+00  0.33934560386E+02  0.33934560708E+02  0.46700000000E-02 0. -1.
         -1   -1    0    0    0  501 -0.00000000000E+00 -0.00000000000E+00 -0.51747802153E+02  0.51747802364E+02  0.46700000000E-02 0.  1.
         23    2    1    2    0    0  0.00000000000E+00  0.00000000000E+00 -0.17813241767E+02  0.85682363071E+02  0.83810236602E+02 0.  0.
        -11    1    3    3    0    0  0.17265124413E+02 -0.33644737226E+02  0.95517723441E+01  0.39003707762E+02  0.51100000000E-03 0. -1.
         11    1    3    3    0    0 -0.17265124413E+02  0.33644737226E+02 -0.27365014111E+02  0.46678655310E+02  0.51100000000E-03 0.  1.
<mgrwt>
<rscale>  0 0.83810237E+02</rscale>
<asrwt>0</asrwt>
<pdfrwt beam="1">  1        1 0.52207016E-02 0.83810237E+02</pdfrwt>
<pdfrwt beam="2">  1       -1 0.79612004E-02 0.83810237E+02</pdfrwt>
<totfact> 0.11216077E+05</totfact>
</mgrwt>
</event>
<event>
 5   1  0.1357339E+00  0.9273965E+02  0.7818608E-02  0.1296350E+00
          1   -1    0    0  501    0  0.00000000000E+00  0.00000000000E+00  0.21043424392E+02  0.21043424910E+02  0.46700000000E-02 0. -1.
         -1   -1    0    0    0  501 -0.00000000000E+00 -0.00000000000E+00 -0.10217730917E+03  0.10217730927E+03  0.46700000000E-02 0.  1.
         23    2    1    2    0    0  0.00000000000E+00  0.00000000000E+00 -0.81133884775E+02  0.12322073418E+03  0.92739646723E+02 0.  0.
        -11    1    3    3    0    0  0.34496460638E+01  0.34156079801E+02  0.84896446550E+00  0.34340334685E+02  0.51100000000E-03 0.  1.
         11    1    3    3    0    0 -0.34496460638E+01 -0.34156079801E+02 -0.81982849240E+02  0.88880399499E+02  0.51100000000E-03 0. -1.
<mgrwt>
<rscale>  0 0.92739647E+02</rscale>
<asrwt>0</asrwt>
<pdfrwt beam="1">  1        1 0.32374500E-02 0.92739647E+02</pdfrwt>
<pdfrwt beam="2">  1       -1 0.15719586E-01 0.92739647E+02</pdfrwt>
<totfact> 0.77567187E+04</totfact>
</mgrwt>
</event>
<event>
 5   1  0.1357339E+00  0.7707913E+02  0.7818608E-02  0.1337551E+00
         -1   -1    0    0    0  501 -0.00000000000E+00  0.00000000000E+00  0.43639433496E+01  0.43639458484E+01  0.46700000000E-02 0.  1.
          1   -1    0    0  501    0  0.00000000000E+00 -0.00000000000E+00 -0.34035675067E+03  0.34035675070E+03  0.46700000000E-02 0. -1.
         23    2    1    2    0    0  0.00000000000E+00  0.00000000000E+00 -0.33599280732E+03  0.34472069655E+03  0.77079128557E+02 0.  0.
        -11    1    3    3    0    0 -0.25448772381E+02 -0.28012130494E+02 -0.20054862065E+03  0.20408838457E+03  0.51100000000E-03 0. -1.
         11    1    3    3    0    0  0.25448772381E+02  0.28012130494E+02 -0.13544418667E+03  0.14063231198E+03  0.51100000000E-03 0.  1.
<mgrwt>
<rscale>  0 0.77079129E+02</rscale>
<asrwt>0</asrwt>
<pdfrwt beam="2">  1        1 0.52362557E-01 0.77079129E+02</pdfrwt>
<pdfrwt beam="1">  1       -1 0.67137636E-03 0.77079129E+02</pdfrwt>
<totfact> 0.20426272E+05</totfact>
</mgrwt>
</event>
<event>
 5   1  0.1357339E+00  0.7283714E+02  0.7818608E-02  0.1350703E+00
          1   -1    0    0  501    0  0.00000000000E+00  0.00000000000E+00  0.43016381362E+02  0.43016381615E+02  0.46700000000E-02 0. -1.
         -1   -1    0    0    0  501 -0.00000000000E+00 -0.00000000000E+00 -0.30832726960E+02  0.30832727314E+02  0.46700000000E-02 0.  1.
         23    2    1    2    0    0  0.00000000000E+00  0.00000000000E+00  0.12183654402E+02  0.73849108929E+02  0.72837143375E+02 0.  0.
        -11    1    3    3    0    0 -0.27509532671E+02 -0.14898037470E+02  0.24994524379E+02  0.40043128717E+02  0.51100000000E-03 0. -1.
         11    1    3    3    0    0  0.27509532671E+02  0.14898037470E+02 -0.12810869978E+02  0.33805980212E+02  0.51100000000E-03 0.  1.
<mgrwt>
<rscale>  0 0.72837143E+02</rscale>
<asrwt>0</asrwt>
<pdfrwt beam="1">  1        1 0.66179049E-02 0.72837143E+02</pdfrwt>
<pdfrwt beam="2">  1       -1 0.47434965E-02 0.72837143E+02</pdfrwt>
<totfact> 0.17045694E+05</totfact>
</mgrwt>
</event>
<event>
 5   1  0.1357339E+00  0.9165736E+02  0.7818608E-02  0.1298887E+00
          1   -1    0    0  501    0  0.00000000000E+00  0.00000000000E+00  0.14342480451E+02  0.14342481211E+02  0.46700000000E-02 0. -1.
         -1   -1    0    0    0  501 -0.00000000000E+00 -0.00000000000E+00 -0.14643686616E+03  0.14643686623E+03  0.46700000000E-02 0.  1.
         23    2    1    2    0    0  0.00000000000E+00  0.00000000000E+00 -0.13209438571E+03  0.16077934745E+03  0.91657361021E+02 0.  0.
        -11    1    3    3    0    0 -0.18797512660E+02 -0.35032520253E+02 -0.26060464617E+02  0.47537056848E+02  0.51100000000E-03 0. -1.
         11    1    3    3    0    0  0.18797512660E+02  0.35032520253E+02 -0.10603392109E+03  0.11324229060E+03  0.51100000000E-03 0.  1.
<mgrwt>
<rscale>  0 0.91657361E+02</rscale>
<asrwt>0</asrwt>
<pdfrwt beam="1">  1        1 0.22065356E-02 0.91657361E+02</pdfrwt>
<pdfrwt beam="2">  1       -1 0.22528748E-01 0.91657361E+02</pdfrwt>
<totfact> 0.74187655E+04</totfact>
</mgrwt>
</event>
<event>
 5   1  0.1357339E+00  0.8255326E+02  0.7818608E-02  0.1321958E+00
         -1   -1    0    0    0  501 -0.00000000000E+00  0.00000000000E+00  0.29732124765E+03  0.29732124768E+03  0.46700000000E-02 0.  1.
          1   -1    0    0  501    0  0.00000000000E+00 -0.00000000000E+00 -0.57303665219E+01  0.57303684248E+01  0.46700000000E-02 0. -1.
         23    2    1    2    0    0  0.00000000000E+00  0.00000000000E+00  0.29159088113E+03  0.30305161611E+03  0.82553255966E+02 0.  0.
        -11    1    3    3    0    0 -0.39373834356E+02 -0.12181746227E+02  0.15405820673E+03  0.15947609487E+03  0.51100000000E-03 0.  1.
         11    1    3    3    0    0  0.39373834356E+02  0.12181746227E+02  0.13753267439E+03  0.14357552124E+03  0.51100000000E-03 0. -1.
<mgrwt>
<rscale>  0 0.82553256E+02</rscale>
<asrwt>0</asrwt>
<pdfrwt beam="2">  1        1 0.88159498E-03 0.82553256E+02</pdfrwt>
<pdfrwt beam="1">  1       -1 0.45741731E-01 0.82553256E+02</pdfrwt>
<totfact> 0.78758789E+04</totfact>
</mgrwt>
</event>
<event>
 5   1  0.1357339E+00  0.9292436E+02  0.7818608E-02  0.1295921E+00
         -1   -1    0    0    0  501 -0.00000000000E+00  0.00000000000E+00  0.44918407866E+02  0.44918408108E+02  0.46700000000E-02 0.  1.
          1   -1    0    0  501    0  0.00000000000E+00 -0.00000000000E+00 -0.48059010179E+02  0.48059010406E+02  0.46700000000E-02 0. -1.
         23    2    1    2    0    0  0.00000000000E+00  0.00000000000E+00 -0.31406023139E+01  0.92977418515E+02  0.92924361557E+02 0.  0.
        -11    1    3    3    0    0  0.97563541640E+01  0.32171602561E+02  0.30518803607E+02  0.45404799656E+02  0.51100000000E-03 0.  1.
         11    1    3    3    0    0 -0.97563541640E+01 -0.32171602561E+02 -0.33659405921E+02  0.47572618859E+02  0.51100000000E-03 0. -1.
<mgrwt>
<rscale>  0 0.92924362E+02</rscale>
<asrwt>0</asrwt>
<pdfrwt beam="2">  1        1 0.73936940E-02 0.92924362E+02</pdfrwt>
<pdfrwt beam="1">  1       -1 0.69105243E-02 0.92924362E+02</pdfrwt>
<totfact> 0.88371010E+04</totfact>
</mgrwt>
</event>
<event>
 5   1  0.1357339E+00  0.9386572E+02  0.7818608E-02  0.1293751E+00
          1   -1    0    0  501    0  0.00000000000E+00  0.00000000000E+00  0.25638934402E+02  0.25638934828E+02  0.46700000000E-02 0. -1.
         -1   -1    0    0    0  501 -0.00000000000E+00 -0.00000000000E+00 -0.85912046132E+02  0.85912046259E+02  0.46700000000E-02 0.  1.
         23    2    1    2    0    0  0.00000000000E+00  0.00000000000E+00 -0.60273111729E+02  0.11155098109E+03  0.93865719961E+02 0.  0.
        -11    1    3    3    0    0 -0.15658707180E+02  0.44206882781E+02 -0.27994201297E+02  0.54617935720E+02  0.51100000000E-03 0. -1.
         11    1    3    3    0    0  0.15658707180E+02 -0.44206882781E+02 -0.32278910432E+02  0.56933045367E+02  0.51100000000E-03 0.  1.
<mgrwt>
<rscale>  0 0.93865720E+02</rscale>
<asrwt>0</asrwt>
<pdfrwt beam="1">  1        1 0.39444515E-02 0.93865720E+02</pdfrwt>
<pdfrwt beam="2">  1       -1 0.13217238E-01 0.93865720E+02</pdfrwt>
<totfact> 0.77607163E+04</totfact>
</mgrwt>
</event>
<event>
 5   1  0.1357339E+00  0.9077028E+02  0.7818608E-02  0.1300997E+00
          1   -1    0    0  501    0  0.00000000000E+00  0.00000000000E+00  0.26751786638E+02  0.26751787046E+02  0.46700000000E-02 0. -1.
         -1   -1    0    0    0  501 -0.00000000000E+00 -0.00000000000E+00 -0.76997135742E+02  0.76997135884E+02  0.46700000000E-02 0.  1.
         23    2    1    2    0    0  0.00000000000E+00  0.00000000000E+00 -0.50245349104E+02  0.10374892293E+03  0.90770280943E+02 0.  0.
        -11    1    3    3    0    0 -0.16720611046E+02  0.41288271004E+02 -0.15190496242E+02  0.47064331851E+02  0.51100000000E-03 0. -1.
         11    1    3    3    0    0  0.16720611046E+02 -0.41288271004E+02 -0.35054852862E+02  0.56684591078E+02  0.51100000000E-03 0.  1.
<mgrwt>
<rscale>  0 0.90770281E+02</rscale>
<asrwt>0</asrwt>
<pdfrwt beam="1">  1        1 0.41156596E-02 0.90770281E+02</pdfrwt>
<pdfrwt beam="2">  1       -1 0.11845713E-01 0.90770281E+02</pdfrwt>
<totfact> 0.86174987E+04</totfact>
</mgrwt>
</event>
<event>
 5   1  0.1357339E+00  0.9046884E+02  0.7818608E-02  0.1301720E+00
          1   -1    0    0  501    0  0.00000000000E+00  0.00000000000E+00  0.41886085052E+02  0.41886085313E+02  0.46700000000E-02 0. -1.
         -1   -1    0    0    0  501 -0.00000000000E+00 -0.00000000000E+00 -0.48850415922E+02  0.48850416145E+02  0.46700000000E-02 0.  1.
         23    2    1    2    0    0  0.00000000000E+00  0.00000000000E+00 -0.69643308692E+01  0.90736501458E+02  0.90468838792E+02 0.  0.
        -11    1    3    3    0    0  0.26129064549E+02 -0.20415314566E+02  0.27376372925E+02  0.42999754392E+02  0.51100000000E-03 0. -1.
         11    1    3    3    0    0 -0.26129064549E+02  0.20415314566E+02 -0.34340703794E+02  0.47736747065E+02  0.51100000000E-03 0.  1.
<mgrwt>
<rscale>  0 0.90468839E+02</rscale>
<asrwt>0</asrwt>
<pdfrwt beam="1">  1        1 0.64440131E-02 0.90468839E+02</pdfrwt>
<pdfrwt beam="2">  1       -1 0.75154486E-02 0.90468839E+02</pdfrwt>
<totfact> 0.93324548E+04</totfact>
</mgrwt>
</event>
<event>
 5   1  0.1357339E+00  0.9023801E+02  0.7818608E-02  0.1302276E+00
          1   -1    0    0  501    0  0.00000000000E+00  0.00000000000E+00  0.52603572056E+02  0.52603572263E+02  0.46700000000E-02 0. -1.
         -1   -1    0    0    0  501 -0.00000000000E+00 -0.00000000000E+00 -0.38699356523E+02  0.38699356805E+02  0.46700000000E-02 0.  1.
         23    2    1    2    0    0  0.00000000000E+00  0.00000000000E+00  0.13904215533E+02  0.91302929067E+02  0.90238005556E+02 0.  0.
        -11    1    3    3    0    0  0.11950447206E+02  0.20343151334E+02  0.45864614355E+02  0.51577319093E+02  0.51100000000E-03 0. -1.
         11    1    3    3    0    0 -0.11950447206E+02 -0.20343151334E+02 -0.31960398823E+02  0.39725609974E+02  0.51100000000E-03 0.  1.
<mgrwt>
<rscale>  0 0.90238006E+02</rscale>
<asrwt>0</asrwt>
<pdfrwt beam="1">  1        1 0.80928572E-02 0.90238006E+02</pdfrwt>
<pdfrwt beam="2">  1       -1 0.59537472E-02 0.90238006E+02</pdfrwt>
<totfact> 0.97243592E+04</totfact>
</mgrwt>
</event>
<event>
 5   1  0.1357339E+00  0.9200336E+02  0.7818608E-02  0.1298072E+00
          1   -1    0    0  501    0  0.00000000000E+00  0.00000000000E+00  0.74583397632E+02  0.74583397778E+02  0.46700000000E-02 0. -1.
         -1   -1    0    0    0  501 -0.00000000000E+00 -0.00000000000E+00 -0.28372996084E+02  0.28372996468E+02  0.46700000000E-02 0.  1.
         23    2    1    2    0    0  0.00000000000E+00  0.00000000000E+00  0.46210401548E+02  0.10295639425E+03  0.92003358118E+02 0.  0.
        -11    1    3    3    0    0  0.42537134356E+02  0.16433103027E+02  0.16325953057E+02  0.48435435559E+02  0.51100000000E-03 0.  1.
         11    1    3    3    0    0 -0.42537134356E+02 -0.16433103027E+02  0.29884448491E+02  0.54520958687E+02  0.51100000000E-03 0. -1.
<mgrwt>
<rscale>  0 0.92003358E+02</rscale>
<asrwt>0</asrwt>
<pdfrwt beam="1">  1        1 0.11474369E-01 0.92003358E+02</pdfrwt>
<pdfrwt beam="2">  1       -1 0.43650763E-02 0.92003358E+02</pdfrwt>
<totfact> 0.97194873E+04</totfact>
</mgrwt>
</event>
<event>
 5   1  0.1357339E+00  0.9199463E+02  0.7818608E-02  0.1298092E+00
          1   -1    0    0  501    0  0.00000000000E+00  0.00000000000E+00  0.16022376849E+02  0.16022377530E+02  0.46700000000E-02 0. -1.
         -1   -1    0    0    0  501 -0.00000000000E+00 -0.00000000000E+00 -0.13204986679E+03  0.13204986688E+03  0.46700000000E-02 0.  1.
         23    2    1    2    0    0  0.00000000000E+00  0.00000000000E+00 -0.11602748995E+03  0.14807224441E+03  0.91994625607E+02 0.  0.
        -11    1    3    3    0    0 -0.29579121520E+02 -0.18562930694E+02 -0.10620018123E+03  0.11179438859E+03  0.51100000000E-03 0.  1.
         11    1    3    3    0    0  0.29579121520E+02  0.18562930694E+02 -0.98273087110E+01  0.36277855816E+02  0.51100000000E-03 0. -1.
<mgrwt>
<rscale>  0 0.91994626E+02</rscale>
<asrwt>0</asrwt>
<pdfrwt beam="1">  1        1 0.24649812E-02 0.91994626E+02</pdfrwt>
<pdfrwt beam="2">  1       -1 0.20315363E-01 0.91994626E+02</pdfrwt>
<totfact> 0.75203467E+04</totfact>
</mgrwt>
</event>
<event>
 5   1  0.1357339E+00  0.9002043E+02  0.7818608E-02  0.1302802E+00
         -1   -1    0    0    0  501 -0.00000000000E+00  0.00000000000E+00  0.33562338585E+02  0.33562338910E+02  0.46700000000E-02 0.  1.
          1   -1    0    0  501    0  0.00000000000E+00 -0.00000000000E+00 -0.60362882944E+02  0.60362883125E+02  0.46700000000E-02 0. -1.
         23    2    1    2    0    0  0.00000000000E+00  0.00000000000E+00 -0.26800544359E+02  0.93925222035E+02  0.90020431883E+02 0.  0.
        -11    1    3    3    0    0  0.29317585131E+02 -0.12894805524E+02 -0.46396765452E+02  0.56377802832E+02  0.51100000000E-03 0. -1.
         11    1    3    3    0    0 -0.29317585131E+02  0.12894805524E+02  0.19596221093E+02  0.37547419204E+02  0.51100000000E-03 0.  1.
<mgrwt>
<rscale>  0 0.90020432E+02</rscale>
<asrwt>0</asrwt>
<pdfrwt beam="2">  1        1 0.92865974E-02 0.90020432E+02</pdfrwt>
<pdfrwt beam="1">  1       -1 0.51634367E-02 0.90020432E+02</pdfrwt>
<totfact> 0.99928753E+04</totfact>
</mgrwt>
</event>
<event>
 5   1  0.1357339E+00  0.8412145E+02  0.7818608E-02  0.1317746E+00
         -1   -1    0    0    0  501 -0.00000000000E+00  0.00000000000E+00  0.13587579622E+02  0.13587580425E+02  0.46700000000E-02 0.  1.
          1   -1    0    0  501    0  0.00000000000E+00 -0.00000000000E+00 -0.13020011545E+03  0.13020011553E+03  0.46700000000E-02 0. -1.
         23    2    1    2    0    0  0.00000000000E+00  0.00000000000E+00 -0.11661253583E+03  0.14378769596E+03  0.84121447900E+02 0.  0.
        -11    1    3    3    0    0 -0.41659071783E+02  0.47788460615E+00 -0.48428147229E+02  0.63882643025E+02  0.51100000000E-03 0.  1.
         11    1    3    3    0    0  0.41659071783E+02 -0.47788460615E+00 -0.68184388596E+02  0.79905052932E+02  0.51100000000E-03 0. -1.
<mgrwt>
<rscale>  0 0.84121448E+02</rscale>
<asrwt>0</asrwt>
<pdfrwt beam="2">  1        1 0.20030786E-01 0.84121448E+02</pdfrwt>
<pdfrwt beam="1">  1       -1 0.20903970E-02 0.84121448E+02</pdfrwt>
<totfact> 0.13575672E+05</totfact>
</mgrwt>
</event>
<event>
 5   1  0.1357339E+00  0.9716974E+02  0.7818608E-02  0.1286363E+00
          1   -1    0    0  501    0  0.00000000000E+00  0.00000000000E+00  0.34330392652E+03  0.34330392656E+03  0.46700000000E-02 0. -1.
         -1   -1    0    0    0  501 -0.00000000000E+00 -0.00000000000E+00 -0.68758006159E+01  0.68758022019E+01  0.46700000000E-02 0.  1.
         23    2    1    2    0    0  0.00000000000E+00  0.00000000000E+00  0.33642812591E+03  0.35017972876E+03  0.97169740819E+02 0.  0.
        -11    1    3    3    0    0  0.15028221139E+02  0.40850239319E+02  0.24600094834E+03  0.24982204880E+03  0.51100000000E-03 0.  1.
         11    1    3    3    0    0 -0.15028221139E+02 -0.40850239319E+02  0.90427177568E+02  0.10035767996E+03  0.51100000000E-03 0. -1.
<mgrwt>
<rscale>  0 0.97169741E+02</rscale>
<asrwt>0</asrwt>
<pdfrwt beam="1">  1        1 0.52815982E-01 0.97169741E+02</pdfrwt>
<pdfrwt beam="2">  1       -1 0.10578158E-02 0.97169741E+02</pdfrwt>
<totfact> 0.11084248E+05</totfact>
</mgrwt>
</event>
<event>
 5   1  0.1357339E+00  0.9139842E+02  0.7818608E-02  0.1299500E+00
          1   -1    0    0  501    0  0.00000000000E+00  0.00000000000E+00  0.20297471137E+02  0.20297471674E+02  0.46700000000E-02 0. -1.
         -1   -1    0    0    0  501 -0.00000000000E+00 -0.00000000000E+00 -0.10289054592E+03  0.10289054603E+03  0.46700000000E-02 0.  1.
         23    2    1    2    0    0  0.00000000000E+00  0.00000000000E+00 -0.82593074785E+02  0.12318801770E+03  0.91398422870E+02 0.  0.
        -11    1    3    3    0    0 -0.17215840203E+02 -0.12725935707E+02 -0.95713546512E+02  0.98078629576E+02  0.51100000000E-03 0.  1.
         11    1    3    3    0    0  0.17215840203E+02  0.12725935707E+02  0.13120471726E+02  0.25109388126E+02  0.51100000000E-03 0. -1.
<mgrwt>
<rscale>  0 0.91398423E+02</rscale>
<asrwt>0</asrwt>
<pdfrwt beam="1">  1        1 0.31226880E-02 0.91398423E+02</pdfrwt>
<pdfrwt beam="2">  1       -1 0.15829314E-01 0.91398423E+02</pdfrwt>
<totfact> 0.80432349E+04</totfact>
</mgrwt>
</event>
<event>
 5   1  0.1357339E+00  0.9309268E+02  0.7818608E-02  0.1295531E+00
          1   -1    0    0  501    0  0.00000000000E+00  0.00000000000E+00  0.30924771927E+02  0.30924772280E+02  0.46700000000E-02 0.  1.
         -1   -1    0    0    0  501 -0.00000000000E+00 -0.00000000000E+00 -0.70059107216E+02  0.70059107372E+02  0.46700000000E-02 0. -1.
         23    2    1    2    0    0  0.00000000000E+00  0.00000000000E+00 -0.39134335289E+02  0.10098387965E+03  0.93092683660E+02 0.  0.
        -11    1    3    3    0    0  0.15202153203E+02  0.12043103541E+02  0.26332968925E+02  0.32704236080E+02  0.51100000000E-03 0.  1.
         11    1    3    3    0    0 -0.15202153203E+02 -0.12043103541E+02 -0.65467304214E+02  0.68279643571E+02  0.51100000000E-03 0. -1.
<mgrwt>
<rscale>  0 0.93092684E+02</rscale>
<asrwt>0</asrwt>
<pdfrwt beam="1">  1        1 0.47576573E-02 0.93092684E+02</pdfrwt>
<pdfrwt beam="2">  1       -1 0.10778324E-01 0.93092684E+02</pdfrwt>
<totfact> 0.82054743E+04</totfact>
</mgrwt>
</event>
<event>
 5   1  0.1357339E+00  0.9025889E+02  0.7818608E-02  0.1302226E+00
         -1   -1    0    0    0  501 -0.00000000000E+00  0.00000000000E+00  0.69238610171E+01  0.69238625920E+01  0.46700000000E-02 0.  1.
          1   -1    0    0  501    0  0.00000000000E+00 -0.00000000000E+00 -0.29415186358E+03  0.29415186362E+03  0.46700000000E-02 0. -1.
         23    2    1    2    0    0  0.00000000000E+00  0.00000000000E+00 -0.28722800257E+03  0.30107572621E+03  0.90258891286E+02 0.  0.
        -11    1    3    3    0    0 -0.43411695408E+02 -0.89968419363E+01 -0.11547761490E+03  0.12369558604E+03  0.51100000000E-03 0.  1.
         11    1    3    3    0    0  0.43411695408E+02  0.89968419363E+01 -0.17175038766E+03  0.17738014017E+03  0.51100000000E-03 0. -1.
<mgrwt>
<rscale>  0 0.90258891E+02</rscale>
<asrwt>0</asrwt>
<pdfrwt beam="2">  1        1 0.45254123E-01 0.90258891E+02</pdfrwt>
<pdfrwt beam="1">  1       -1 0.10652097E-02 0.90258891E+02</pdfrwt>
<totfact> 0.13112640E+05</totfact>
</mgrwt>
</event>
<event>
 5   1  0.1357339E+00  0.9171993E+02  0.7818608E-02  0.1298739E+00
          1   -1    0    0  501    0  0.00000000000E+00  0.00000000000E+00  0.25903604942E+03  0.25903604946E+03  0.46700000000E-02 0. -1.
         -1   -1    0    0    0  501 -0.00000000000E+00 -0.00000000000E+00 -0.81190864455E+01  0.81190877886E+01  0.46700000000E-02 0.  1.
         23    2    1    2    0    0  0.00000000000E+00  0.00000000000E+00  0.25091696297E+03  0.26715513725E+03  0.91719927230E+02 0.  0.
        -11    1    3    3    0    0  0.39388610924E+02 -0.22354951632E+02  0.10446870285E+03  0.11386358684E+03  0.51100000000E-03 0.  1.
         11    1    3    3    0    0 -0.39388610924E+02  0.22354951632E+02  0.14644826013E+03  0.15329155041E+03  0.51100000000E-03 0. -1.
<mgrwt>
<rscale>  0 0.91719927E+02</rscale>
<asrwt>0</asrwt>
<pdfrwt beam="1">  1        1 0.39851692E-01 0.91719927E+02</pdfrwt>
<pdfrwt beam="2">  1       -1 0.12490906E-02 0.91719927E+02</pdfrwt>
<totfact> 0.12256809E+05</totfact>
</mgrwt>
</event>
<event>
 5   1  0.1357339E+00  0.8992890E+02  0.7818608E-02  0.1303024E+00
          1   -1    0    0  501    0  0.00000000000E+00  0.00000000000E+00  0.88471686191E+01  0.88471698517E+01  0.46700000000E-02 0. -1.
         -1   -1    0    0    0  501 -0.00000000000E+00 -0.00000000000E+00 -0.22852528831E+03  0.22852528836E+03  0.46700000000E-02 0.  1.
         23    2    1    2    0    0  0.00000000000E+00  0.00000000000E+00 -0.21967811969E+03  0.23737245821E+03  0.89928903282E+02 0.  0.
        -11    1    3    3    0    0 -0.40119885755E+02 -0.20054680451E+02 -0.11818877158E+03  0.12641353238E+03  0.51100000000E-03 0. -1.
         11    1    3    3    0    0  0.40119885755E+02  0.20054680451E+02 -0.10148934811E+03  0.11095892583E+03  0.51100000000E-03 0.  1.
<mgrwt>
<rscale>  0 0.89928903E+02</rscale>
<asrwt>0</asrwt>
<pdfrwt beam="1">  1        1 0.13611031E-02 0.89928903E+02</pdfrwt>
<pdfrwt beam="2">  1       -1 0.35157732E-01 0.89928903E+02</pdfrwt>
<totfact> 0.69136055E+04</totfact>
</mgrwt>
</event>
<event>
 5   1  0.1357339E+00  0.9115636E+02  0.7818608E-02  0.1300075E+00
          1   -1    0    0  501    0  0.00000000000E+00  0.00000000000E+00  0.54734514118E+02  0.54734514318E+02  0.46700000000E-02 0. -1.
         -1   -1    0    0    0  501 -0.00000000000E+00 -0.00000000000E+00 -0.37953577820E+02  0.37953578107E+02  0.46700000000E-02 0.  1.
         23    2    1    2    0    0  0.00000000000E+00  0.00000000000E+00  0.16780936299E+02  0.92688092425E+02  0.91156363762E+02 0.  0.
        -11    1    3    3    0    0 -0.41266160773E+02  0.18393872476E+02  0.14503147127E+02  0.47450730726E+02  0.51100000000E-03 0. -1.
         11    1    3    3    0    0  0.41266160773E+02 -0.18393872476E+02  0.22777891717E+01  0.45237361698E+02  0.51100000000E-03 0.  1.
<mgrwt>
<rscale>  0 0.91156364E+02</rscale>
<asrwt>0</asrwt>
<pdfrwt beam="1">  1        1 0.84206945E-02 0.91156364E+02</pdfrwt>
<pdfrwt beam="2">  1       -1 0.58390120E-02 0.91156364E+02</pdfrwt>
<totfact> 0.95105539E+04</totfact>
</mgrwt>
</event>
<event>
 5   1  0.1357339E+00  0.9185008E+02  0.7818608E-02  0.1298432E+00
         -1   -1    0    0    0  501 -0.00000000000E+00  0.00000000000E+00  0.52593227451E+01  0.52593248185E+01  0.46700000000E-02 0.  1.
          1   -1    0    0  501    0  0.00000000000E+00 -0.00000000000E+00 -0.40102292232E+03  0.40102292235E+03  0.46700000000E-02 0. -1.
         23    2    1    2    0    0  0.00000000000E+00  0.00000000000E+00 -0.39576359958E+03  0.40628224717E+03  0.91850082273E+02 0.  0.
        -11    1    3    3    0    0 -0.45166123846E+02  0.78018047715E+01 -0.18516715917E+03  0.19075566502E+03  0.51100000000E-03 0.  1.
         11    1    3    3    0    0  0.45166123846E+02 -0.78018047715E+01 -0.21059644040E+03  0.21552658215E+03  0.51100000000E-03 0. -1.
<mgrwt>
<rscale>  0 0.91850082E+02</rscale>
<asrwt>0</asrwt>
<pdfrwt beam="2">  1        1 0.61695811E-01 0.91850082E+02</pdfrwt>
<pdfrwt beam="1">  1       -1 0.80912705E-03 0.91850082E+02</pdfrwt>
<totfact> 0.13233514E+05</totfact>
</mgrwt>
</event>
<event>
 5   1  0.1357339E+00  0.9157481E+02  0.7818608E-02  0.1299082E+00
         -1   -1    0    0    0  501 -0.00000000000E+00  0.00000000000E+00  0.32171499408E+02  0.32171499747E+02  0.46700000000E-02 0. -1.
          1   -1    0    0  501    0  0.00000000000E+00 -0.00000000000E+00 -0.65165951018E+02  0.65165951185E+02  0.46700000000E-02 0.  1.
         23    2    1    2    0    0  0.00000000000E+00  0.00000000000E+00 -0.32994451609E+02  0.97337450932E+02  0.91574808310E+02 0.  0.
        -11    1    3    3    0    0 -0.91239129840E+01  0.29832759510E+02  0.19126684943E+02  0.36593297272E+02  0.51100000000E-03 0. -1.
         11    1    3    3    0    0  0.91239129840E+01 -0.29832759510E+02 -0.52121136552E+02  0.60744153660E+02  0.51100000000E-03 0.  1.
<mgrwt>
<rscale>  0 0.91574808E+02</rscale>
<asrwt>0</asrwt>
<pdfrwt beam="2">  1        1 0.10025531E-01 0.91574808E+02</pdfrwt>
<pdfrwt beam="1">  1       -1 0.49494615E-02 0.91574808E+02</pdfrwt>
<totfact> 0.96419178E+04</totfact>
</mgrwt>
</event>
<event>
 5   1  0.1357339E+00  0.8953720E+02  0.7818608E-02  0.1303976E+00
          1   -1    0    0  501    0  0.00000000000E+00  0.00000000000E+00  0.84340071039E+02  0.84340071168E+02  0.46700000000E-02 0. -1.
         -1   -1    0    0    0  501 -0.00000000000E+00 -0.00000000000E+00 -0.23763645546E+02  0.23763646005E+02  0.46700000000E-02 0.  1.
         23    2    1    2    0    0  0.00000000000E+00  0.00000000000E+00  0.60576425493E+02  0.10810371717E+03  0.89537200878E+02 0.  0.
        -11    1    3    3    0    0  0.97401149863E+01  0.43636865186E+02  0.27539844015E+02  0.52511797263E+02  0.51100000000E-03 0.  1.
         11    1    3    3    0    0 -0.97401149863E+01 -0.43636865186E+02  0.33036581478E+02  0.55591919910E+02  0.51100000000E-03 0. -1.
<mgrwt>
<rscale>  0 0.89537201E+02</rscale>
<asrwt>0</asrwt>
<pdfrwt beam="1">  1        1 0.12975396E-01 0.89537201E+02</pdfrwt>
<pdfrwt beam="2">  1       -1 0.36559455E-02 0.89537201E+02</pdfrwt>
<totfact> 0.10676106E+05</totfact>
</mgrwt>
</event>
<event>
 4   1  0.1357339E+00  0.1606684E+03  0.7818608E-02  0.1187944E+00
          1   -1    0    0  501    0  0.00000000000E+00  0.00000000000E+00  0.35948225445E+03  0.35948225449E+03  0.46700000000E-02 0. -1.
         -1   -1    0    0    0  501 -0.00000000000E+00 -0.00000000000E+00 -0.17952429594E+02  0.17952430201E+02  0.46700000000E-02 0.  1.
        -11    1    1    2    0    0  0.16828949160E+01 -0.77167546685E+02  0.11845111838E+03  0.14138008997E+03  0.51100000000E-03 0.  1.
         11    1    1    2    0    0 -0.16828949160E+01  0.77167546685E+02  0.22307870649E+03  0.23605459471E+03  0.51100000000E-03 0. -1.
<mgrwt>
<rscale>  0 0.16066835E+03</rscale>
<asrwt>0</asrwt>
<pdfrwt beam="1">  1        1 0.55304965E-01 0.16066835E+03</pdfrwt>
<pdfrwt beam="2">  1       -1 0.27619122E-02 0.16066835E+03</pdfrwt>
<totfact> 0.28068666E+04</totfact>
</mgrwt>
</event>
<event>
 5   1  0.1357339E+00  0.9028479E+02  0.7818608E-02  0.1302164E+00
         -1   -1    0    0    0  501 -0.00000000000E+00  0.00000000000E+00  0.50622091494E+02  0.50622091709E+02  0.46700000000E-02 0.  1.
          1   -1    0    0  501    0  0.00000000000E+00 -0.00000000000E+00 -0.40255856768E+02  0.40255857039E+02  0.46700000000E-02 0. -1.
         23    2    1    2    0    0  0.00000000000E+00  0.00000000000E+00  0.10366234725E+02  0.90877948748E+02  0.90284786904E+02 0.  0.
        -11    1    3    3    0    0  0.19099402981E+02 -0.40659485637E+02  0.96682554692E+01  0.45950583571E+02  0.51100000000E-03 0.  1.
         11    1    3    3    0    0 -0.19099402981E+02  0.40659485637E+02  0.69797925630E+00  0.44927365177E+02  0.51100000000E-03 0. -1.
<mgrwt>
<rscale>  0 0.90284787E+02</rscale>
<asrwt>0</asrwt>
<pdfrwt beam="2">  1        1 0.61932088E-02 0.90284787E+02</pdfrwt>
<pdfrwt beam="1">  1       -1 0.77880141E-02 0.90284787E+02</pdfrwt>
<totfact> 0.93302551E+04</totfact>
</mgrwt>
</event>
<event>
 5   1  0.1357339E+00  0.9122637E+02  0.7818608E-02  0.1299909E+00
          1   -1    0    0  501    0  0.00000000000E+00  0.00000000000E+00  0.88404567066E+02  0.88404567189E+02  0.46700000000E-02 0. -1.
         -1   -1    0    0    0  501 -0.00000000000E+00 -0.00000000000E+00 -0.23534558609E+02  0.23534559072E+02  0.46700000000E-02 0.  1.
         23    2    1    2    0    0  0.00000000000E+00  0.00000000000E+00  0.64870008457E+02  0.11193912626E+03  0.91226366753E+02 0.  0.
        -11    1    3    3    0    0  0.17505436424E+02 -0.41571221258E+02  0.24116763353E+02  0.51149047070E+02  0.51100000000E-03 0. -1.
         11    1    3    3    0    0 -0.17505436424E+02  0.41571221258E+02  0.40753245103E+02  0.60790079191E+02  0.51100000000E-03 0.  1.
<mgrwt>
<rscale>  0 0.91226367E+02</rscale>
<asrwt>0</asrwt>
<pdfrwt beam="1">  1        1 0.13600702E-01 0.91226367E+02</pdfrwt>
<pdfrwt beam="2">  1       -1 0.36207015E-02 0.91226367E+02</pdfrwt>
<totfact> 0.10221151E+05</totfact>
</mgrwt>
</event>
<event>
 5   1  0.1357339E+00  0.9290278E+02  0.7818608E-02  0.1295971E+00
         -1   -1    0    0    0  501 -0.00000000000E+00  0.00000000000E+00  0.95146287220E+01  0.95146298681E+01  0.46700000000E-02 0.  1.
          1   -1    0    0  501    0  0.00000000000E+00 -0.00000000000E+00 -0.22678041334E+03  0.22678041339E+03  0.46700000000E-02 0. -1.
         23    2    1    2    0    0  0.00000000000E+00  0.00000000000E+00 -0.21726578462E+03  0.23629504326E+03  0.92902778763E+02 0.  0.
        -11    1    3    3    0    0 -0.68276615764E+01  0.42814354711E+02 -0.66221360871E+02  0.79151465986E+02  0.51100000000E-03 0. -1.
         11    1    3    3    0    0  0.68276615764E+01 -0.42814354711E+02 -0.15104442375E+03  0.15714357727E+03  0.51100000000E-03 0.  1.
<mgrwt>
<rscale>  0 0.92902779E+02</rscale>
<asrwt>0</asrwt>
<pdfrwt beam="2">  1        1 0.34889290E-01 0.92902779E+02</pdfrwt>
<pdfrwt beam="1">  1       -1 0.14637893E-02 0.92902779E+02</pdfrwt>
<totfact> 0.11539155E+05</totfact>
</mgrwt>
</event>
<event>
 5   1  0.1357339E+00  0.8969214E+02  0.7818608E-02  0.1303599E+00
          1   -1    0    0  501    0  0.00000000000E+00  0.00000000000E+00  0.13662849098E+02  0.13662849896E+02  0.46700000000E-02 0. -1.
         -1   -1    0    0    0  501 -0.00000000000E+00 -0.00000000000E+00 -0.14719989027E+03  0.14719989034E+03  0.46700000000E-02 0.  1.
         23    2    1    2    0    0  0.00000000000E+00  0.00000000000E+00 -0.13353704117E+03  0.16086274024E+03  0.89692139190E+02 0.  0.
        -11    1    3    3    0    0 -0.14091984682E+02 -0.39512944641E+02 -0.95200603112E+02  0.10403370444E+03  0.51100000000E-03 0.  1.
         11    1    3    3    0    0  0.14091984682E+02  0.39512944641E+02 -0.38336438057E+02  0.56829035797E+02  0.51100000000E-03 0. -1.
<mgrwt>
<rscale>  0 0.89692139E+02</rscale>
<asrwt>0</asrwt>
<pdfrwt beam="1">  1        1 0.21019769E-02 0.89692139E+02</pdfrwt>
<pdfrwt beam="2">  1       -1 0.22646136E-01 0.89692139E+02</pdfrwt>
<totfact> 0.78382473E+04</totfact>
</mgrwt>
</event>
<event>
 5   1  0.1357339E+00  0.8908133E+02  0.7818608E-02  0.1305092E+00
         -1   -1    0    0    0  501 -0.00000000000E+00  0.00000000000E+00  0.10482251711E+02  0.10482252751E+02  0.46700000000E-02 0.  1.
          1   -1    0    0  501    0  0.00000000000E+00 -0.00000000000E+00 -0.18925998306E+03  0.18925998312E+03  0.46700000000E-02 0. -1.
         23    2    1    2    0    0  0.00000000000E+00  0.00000000000E+00 -0.17877773135E+03  0.19974223587E+03  0.89081331174E+02 0.  0.
        -11    1    3    3    0    0 -0.13377377356E+02 -0.30089621651E+02 -0.22139009959E+02  0.39679658747E+02  0.51100000000E-03 0.  1.
         11    1    3    3    0    0  0.13377377356E+02  0.30089621651E+02 -0.15663872139E+03  0.16006257713E+03  0.51100000000E-03 0. -1.
<mgrwt>
<rscale>  0 0.89081331E+02</rscale>
<asrwt>0</asrwt>
<pdfrwt beam="2">  1        1 0.29116918E-01 0.89081331E+02</pdfrwt>
<pdfrwt beam="1">  1       -1 0.16126543E-02 0.89081331E+02</pdfrwt>
<totfact> 0.12467934E+05</totfact>
</mgrwt>
</event>
<event>
 5   1  0.1357339E+00  0.9382400E+02  0.7818608E-02  0.1293847E+00
         -1   -1    0    0    0  501 -0.00000000000E+00  0.00000000000E+00  0.83343024230E+02  0.83343024360E+02  0.46700000000E-02 0.  1.
          1   -1    0    0  501    0  0.00000000000E+00 -0.00000000000E+00 -0.26405757101E+02  0.26405757514E+02  0.46700000000E-02 0. -1.
         23    2    1    2    0    0  0.00000000000E+00  0.00000000000E+00  0.56937267128E+02  0.10974878187E+03  0.93823998715E+02 0.  0.
        -11    1    3    3    0    0 -0.20839269402E+02 -0.22978459033E+02 -0.12696087450E+02  0.33518284048E+02  0.51100000000E-03 0. -1.
         11    1    3    3    0    0  0.20839269402E+02  0.22978459033E+02  0.69633354579E+02  0.76230497826E+02  0.51100000000E-03 0.  1.
<mgrwt>
<rscale>  0 0.93823999E+02</rscale>
<asrwt>0</asrwt>
<pdfrwt beam="2">  1        1 0.40624243E-02 0.93823999E+02</pdfrwt>
<pdfrwt beam="1">  1       -1 0.12822004E-01 0.93823999E+02</pdfrwt>
<totfact> 0.78109770E+04</totfact>
</mgrwt>
</event>
<event>
 5   1  0.1357339E+00  0.9147711E+02  0.7818608E-02  0.1299314E+00
         -1   -1    0    0    0  501 -0.00000000000E+00  0.00000000000E+00  0.44616731752E+02  0.44616731996E+02  0.46700000000E-02 0. -1.
          1   -1    0    0  501    0  0.00000000000E+00 -0.00000000000E+00 -0.46888589437E+02  0.46888589670E+02  0.46700000000E-02 0.  1.
         23    2    1    2    0    0  0.00000000000E+00  0.00000000000E+00 -0.22718576852E+01  0.91505321666E+02  0.91477114929E+02 0.  0.
        -11    1    3    3    0    0  0.21224638941E+02 -0.38435649336E+02 -0.13955152564E+02  0.46070931414E+02  0.51100000000E-03 0.  1.
         11    1    3    3    0    0 -0.21224638941E+02  0.38435649336E+02  0.11683294878E+02  0.45434390251E+02  0.51100000000E-03 0. -1.
<mgrwt>
<rscale>  0 0.91477115E+02</rscale>
<asrwt>0</asrwt>
<pdfrwt beam="2">  1        1 0.72136292E-02 0.91477115E+02</pdfrwt>
<pdfrwt beam="1">  1       -1 0.68641126E-02 0.91477115E+02</pdfrwt>
<totfact> 0.92010819E+04</totfact>
</mgrwt>
</event>
<event>
 5   1  0.1357339E+00  0.9096105E+02  0.7818608E-02  0.1300541E+00
         -1   -1    0    0    0  501 -0.00000000000E+00  0.00000000000E+00  0.43320100485E+02  0.43320100736E+02  0.46700000000E-02 0.  1.
          1   -1    0    0  501    0  0.00000000000E+00 -0.00000000000E+00 -0.47748686897E+02  0.47748687125E+02  0.46700000000E-02 0. -1.
         23    2    1    2    0    0  0.00000000000E+00  0.00000000000E+00 -0.44285864124E+01  0.91068787862E+02  0.90961045206E+02 0.  0.
        -11    1    3    3    0    0  0.92976613304E+00  0.20767842760E+02 -0.42713538475E+02  0.47503832764E+02  0.51100000000E-03 0. -1.
         11    1    3    3    0    0 -0.92976613304E+00 -0.20767842760E+02  0.38284952062E+02  0.43564955098E+02  0.51100000000E-03 0.  1.
<mgrwt>
<rscale>  0 0.90961045E+02</rscale>
<asrwt>0</asrwt>
<pdfrwt beam="2">  1        1 0.73459519E-02 0.90961045E+02</pdfrwt>
<pdfrwt beam="1">  1       -1 0.66646308E-02 0.90961045E+02</pdfrwt>
<totfact> 0.93737924E+04</totfact>
</mgrwt>
</event>
<event>
 5   1  0.1357339E+00  0.9158567E+02  0.7818608E-02  0.1299057E+00
          1   -1    0    0  501    0  0.00000000000E+00  0.00000000000E+00  0.13523957284E+03  0.13523957292E+03  0.46700000000E-02 0. -1.
         -1   -1    0    0    0  501 -0.00000000000E+00 -0.00000000000E+00 -0.15505695700E+02  0.15505696403E+02  0.46700000000E-02 0.  1.
         23    2    1    2    0    0  0.00000000000E+00  0.00000000000E+00  0.11973387714E+03  0.15074526932E+03  0.91585669667E+02 0.  0.
        -11    1    3    3    0    0  0.18046755492E+02 -0.18709652098E+02 -0.21843759792E+01  0.26086547570E+02  0.51100000000E-03 0.  1.
         11    1    3    3    0    0 -0.18046755492E+02  0.18709652098E+02  0.12191825312E+03  0.12465872175E+03  0.51100000000E-03 0. -1.
<mgrwt>
<rscale>  0 0.91585670E+02</rscale>
<asrwt>0</asrwt>
<pdfrwt beam="1">  1        1 0.20806089E-01 0.91585670E+02</pdfrwt>
<pdfrwt beam="2">  1       -1 0.23854917E-02 0.91585670E+02</pdfrwt>
<totfact> 0.10871667E+05</totfact>
</mgrwt>
</event>
<event>
 5   1  0.1357339E+00  0.9105131E+02  0.7818608E-02  0.1300326E+00
          1   -1    0    0  501    0  0.00000000000E+00  0.00000000000E+00  0.17783886378E+03  0.17783886384E+03  0.46700000000E-02 0. -1.
         -1   -1    0    0    0  501 -0.00000000000E+00 -0.00000000000E+00 -0.11654287604E+02  0.11654288539E+02  0.46700000000E-02 0.  1.
         23    2    1    2    0    0  0.00000000000E+00  0.00000000000E+00  0.16618457617E+03  0.18949315238E+03  0.91051312128E+02 0.  0.
        -11    1    3    3    0    0 -0.25571062073E+02  0.27988476867E+02  0.13555059574E+03  0.14075225774E+03  0.51100000000E-03 0. -1.
         11    1    3    3    0    0  0.25571062073E+02 -0.27988476867E+02  0.30633980438E+02  0.48740894644E+02  0.51100000000E-03 0.  1.
<mgrwt>
<rscale>  0 0.91051312E+02</rscale>
<asrwt>0</asrwt>
<pdfrwt beam="1">  1        1 0.27359825E-01 0.91051312E+02</pdfrwt>
<pdfrwt beam="2">  1       -1 0.17929674E-02 0.91051312E+02</pdfrwt>
<totfact> 0.11618844E+05</totfact>
</mgrwt>
</event>
<event>
 5   1  0.1357339E+00  0.8914077E+02  0.7818608E-02  0.1304946E+00
         -1   -1    0    0    0  501 -0.00000000000E+00  0.00000000000E+00  0.16497657074E+03  0.16497657081E+03  0.46700000000E-02 0.  1.
          1   -1    0    0  501    0  0.00000000000E+00 -0.00000000000E+00 -0.12041220399E+02  0.12041221304E+02  0.46700000000E-02 0. -1.
         23    2    1    2    0    0  0.00000000000E+00  0.00000000000E+00  0.15293535035E+03  0.17701779211E+03  0.89140772601E+02 0.  0.
        -11    1    3    3    0    0  0.14753191297E+02  0.27509871108E+02  0.13292605238E+02  0.33928498583E+02  0.51100000000E-03 0. -1.
         11    1    3    3    0    0 -0.14753191297E+02 -0.27509871108E+02  0.13964274511E+03  0.14308929353E+03  0.51100000000E-03 0.  1.
<mgrwt>
<rscale>  0 0.89140773E+02</rscale>
<asrwt>0</asrwt>
<pdfrwt beam="2">  1        1 0.18524955E-02 0.89140773E+02</pdfrwt>
<pdfrwt beam="1">  1       -1 0.25381011E-01 0.89140773E+02</pdfrwt>
<totfact> 0.77500645E+04</totfact>
</mgrwt>
</event>
<event>
 5   1  0.1357339E+00  0.9210928E+02  0.7818608E-02  0.1297823E+00
          1   -1    0    0  501    0  0.00000000000E+00  0.00000000000E+00  0.48872368743E+03  0.48872368745E+03  0.46700000000E-02 0. -1.
         -1   -1    0    0    0  501 -0.00000000000E+00 -0.00000000000E+00 -0.43399351843E+01  0.43399376969E+01  0.46700000000E-02 0.  1.
         23    2    1    2    0    0  0.00000000000E+00  0.00000000000E+00  0.48438375224E+03  0.49306362515E+03  0.92109277522E+02 0.  0.
        -11    1    3    3    0    0 -0.57427856184E+01 -0.45693589577E+02  0.24014623394E+03  0.24452218180E+03  0.51100000000E-03 0.  1.
         11    1    3    3    0    0  0.57427856184E+01  0.45693589577E+02  0.24423751830E+03  0.24854144335E+03  0.51100000000E-03 0. -1.
<mgrwt>
<rscale>  0 0.92109278E+02</rscale>
<asrwt>0</asrwt>
<pdfrwt beam="1">  1        1 0.75188204E-01 0.92109278E+02</pdfrwt>
<pdfrwt beam="2">  1       -1 0.66768303E-03 0.92109278E+02</pdfrwt>
<totfact> 0.13518276E+05</totfact>
</mgrwt>
</event>
<event>
 5   1  0.1357339E+00  0.9118055E+02  0.7818608E-02  0.1300018E+00
         -1   -1    0    0    0  501 -0.00000000000E+00  0.00000000000E+00  0.32117395036E+02  0.32117395375E+02  0.46700000000E-02 0.  1.
          1   -1    0    0  501    0  0.00000000000E+00 -0.00000000000E+00 -0.64714873805E+02  0.64714873974E+02  0.46700000000E-02 0. -1.
         23    2    1    2    0    0  0.00000000000E+00  0.00000000000E+00 -0.32597478770E+02  0.96832269349E+02  0.91180550366E+02 0.  0.
        -11    1    3    3    0    0 -0.11890651420E+02  0.31274971098E+01 -0.62920970497E+02  0.64110976891E+02  0.51100000000E-03 0. -1.
         11    1    3    3    0    0  0.11890651420E+02 -0.31274971098E+01  0.30323491727E+02  0.32721292458E+02  0.51100000000E-03 0.  1.
<mgrwt>
<rscale>  0 0.91180550E+02</rscale>
<asrwt>0</asrwt>
<pdfrwt beam="2">  1        1 0.99561344E-02 0.91180550E+02</pdfrwt>
<pdfrwt beam="1">  1       -1 0.49411377E-02 0.91180550E+02</pdfrwt>
<totfact> 0.97474463E+04</totfact>
</mgrwt>
</event>
<event>
 5   1  0.1357339E+00  0.9001366E+02  0.7818608E-02  0.1302819E+00
         -1   -1    0    0    0  501 -0.00000000000E+00  0.00000000000E+00  0.25822453671E+02  0.25822454094E+02  0.46700000000E-02 0.  1.
          1   -1    0    0  501    0  0.00000000000E+00 -0.00000000000E+00 -0.78443926538E+02  0.78443926677E+02  0.46700000000E-02 0. -1.
         23    2    1    2    0    0  0.00000000000E+00  0.00000000000E+00 -0.52621472867E+02  0.10426638077E+03  0.90013658699E+02 0.  0.
        -11    1    3    3    0    0 -0.10257145100E+02 -0.42327203112E+02 -0.39457433032E+02  0.58768105046E+02  0.51100000000E-03 0. -1.
         11    1    3    3    0    0  0.10257145100E+02  0.42327203112E+02 -0.13164039835E+02  0.45498275725E+02  0.51100000000E-03 0.  1.
<mgrwt>
<rscale>  0 0.90013659E+02</rscale>
<asrwt>0</asrwt>
<pdfrwt beam="2">  1        1 0.12068296E-01 0.90013659E+02</pdfrwt>
<pdfrwt beam="1">  1       -1 0.39726853E-02 0.90013659E+02</pdfrwt>
<totfact> 0.10403184E+05</totfact>
</mgrwt>
</event>
<event>
 5   1  0.1357339E+00  0.1223840E+03  0.7818608E-02  0.1239215E+00
         -1   -1    0    0    0  501 -0.00000000000E+00  0.00000000000E+00  0.55627944790E+03  0.55627944792E+03  0.46700000000E-02 0.  1.
          1   -1    0    0  501    0  0.00000000000E+00 -0.00000000000E+00 -0.67312613967E+01  0.67312630167E+01  0.46700000000E-02 0. -1.
         23    2    1    2    0    0  0.00000000000E+00  0.00000000000E+00  0.54954818651E+03  0.56301071094E+03  0.12238403221E+03 0.  0.
        -11    1    3    3    0    0  0.57978342148E+02 -0.19536750266E+02  0.27999923162E+03  0.28660555207E+03  0.51100000000E-03 0.  1.
         11    1    3    3    0    0 -0.57978342148E+02  0.19536750266E+02  0.26954895489E+03  0.27640515887E+03  0.51100000000E-03 0. -1.
<mgrwt>
<rscale>  0 0.12238403E+03</rscale>
<asrwt>0</asrwt>
<pdfrwt beam="2">  1        1 0.10355785E-02 0.12238403E+03</pdfrwt>
<pdfrwt beam="1">  1       -1 0.85581480E-01 0.12238403E+03</pdfrwt>
<totfact> 0.20102784E+04</totfact>
</mgrwt>
</event>
<event>
 5   1  0.1357339E+00  0.9269974E+02  0.7818608E-02  0.1296443E+00
          1   -1    0    0  501    0  0.00000000000E+00  0.00000000000E+00  0.25434349175E+02  0.25434349604E+02  0.46700000000E-02 0.  1.
         -1   -1    0    0    0  501 -0.00000000000E+00 -0.00000000000E+00 -0.84464929181E+02  0.84464929310E+02  0.46700000000E-02 0. -1.
         23    2    1    2    0    0  0.00000000000E+00  0.00000000000E+00 -0.59030580006E+02  0.10989927891E+03  0.92699741801E+02 0.  0.
        -11    1    3    3    0    0 -0.30028729452E+02  0.31378052866E+01  0.12176980109E+02  0.32555326129E+02  0.51100000000E-03 0.  1.
         11    1    3    3    0    0  0.30028729452E+02 -0.31378052866E+01 -0.71207560116E+02  0.77343952785E+02  0.51100000000E-03 0. -1.
<mgrwt>
<rscale>  0 0.92699742E+02</rscale>
<asrwt>0</asrwt>
<pdfrwt beam="1">  1        1 0.39129769E-02 0.92699742E+02</pdfrwt>
<pdfrwt beam="2">  1       -1 0.12994604E-01 0.92699742E+02</pdfrwt>
<totfact> 0.80377451E+04</totfact>
</mgrwt>
</event>
<event>
 5   1  0.1357339E+00  0.8877485E+02  0.7818608E-02  0.1305846E+00
         -1   -1    0    0    0  501 -0.00000000000E+00  0.00000000000E+00  0.11128437327E+03  0.11128437337E+03  0.46700000000E-02 0.  1.
          1   -1    0    0  501    0  0.00000000000E+00 -0.00000000000E+00 -0.17704584638E+02  0.17704585254E+02  0.46700000000E-02 0. -1.
         23    2    1    2    0    0  0.00000000000E+00  0.00000000000E+00  0.93579788629E+02  0.12898895862E+03  0.88774853455E+02 0.  0.
        -11    1    3    3    0    0 -0.33560618480E+00 -0.29823981923E+02  0.94554625312E+02  0.99147161822E+02  0.51100000000E-03 0.  1.
         11    1    3    3    0    0  0.33560618480E+00  0.29823981923E+02 -0.97483668288E+00  0.29841796797E+02  0.51100000000E-03 0. -1.
<mgrwt>
<rscale>  0 0.88774853E+02</rscale>
<asrwt>0</asrwt>
<pdfrwt beam="2">  1        1 0.27237823E-02 0.88774853E+02</pdfrwt>
<pdfrwt beam="1">  1       -1 0.17120673E-01 0.88774853E+02</pdfrwt>
<totfact> 0.85405583E+04</totfact>
</mgrwt>
</event>
<event>
 5   1  0.1357339E+00  0.9178563E+02  0.7818608E-02  0.1298584E+00
         -1   -1    0    0    0  501 -0.00000000000E+00  0.00000000000E+00  0.13464460965E+02  0.13464461775E+02  0.46700000000E-02 0.  1.
          1   -1    0    0  501    0  0.00000000000E+00 -0.00000000000E+00 -0.15642292563E+03  0.15642292570E+03  0.46700000000E-02 0. -1.
         23    2    1    2    0    0  0.00000000000E+00  0.00000000000E+00 -0.14295846466E+03  0.16988738747E+03  0.91785629614E+02 0.  0.
        -11    1    3    3    0    0 -0.13031787865E+02  0.37930956802E+02 -0.11276606471E+03  0.11968613257E+03  0.51100000000E-03 0. -1.
         11    1    3    3    0    0  0.13031787865E+02 -0.37930956802E+02 -0.30192399954E+02  0.50201254906E+02  0.51100000000E-03 0.  1.
<mgrwt>
<rscale>  0 0.91785630E+02</rscale>
<asrwt>0</asrwt>
<pdfrwt beam="2">  1        1 0.24065064E-01 0.91785630E+02</pdfrwt>
<pdfrwt beam="1">  1       -1 0.20714557E-02 0.91785630E+02</pdfrwt>
<totfact> 0.11099293E+05</totfact>
</mgrwt>
</event>
<event>
 5   1  0.1357339E+00  0.9150662E+02  0.7818608E-02  0.1299244E+00
         -1   -1    0    0    0  501 -0.00000000000E+00  0.00000000000E+00  0.14877790481E+03  0.14877790488E+03  0.46700000000E-02 0.  1.
          1   -1    0    0  501    0  0.00000000000E+00 -0.00000000000E+00 -0.14070404494E+02  0.14070405269E+02  0.46700000000E-02 0. -1.
         23    2    1    2    0    0  0.00000000000E+00  0.00000000000E+00  0.13470750032E+03  0.16284831015E+03  0.91506619859E+02 0.  0.
        -11    1    3    3    0    0 -0.12956130238E+02 -0.29325130508E+02  0.12544567684E+03  0.12947757500E+03  0.51100000000E-03 0.  1.
         11    1    3    3    0    0  0.12956130238E+02  0.29325130508E+02  0.92618234741E+01  0.33370735149E+02  0.51100000000E-03 0. -1.
<mgrwt>
<rscale>  0 0.91506620E+02</rscale>
<asrwt>0</asrwt>
<pdfrwt beam="2">  1        1 0.21646777E-02 0.91506620E+02</pdfrwt>
<pdfrwt beam="1">  1       -1 0.22888908E-01 0.91506620E+02</pdfrwt>
<totfact> 0.74231989E+04</totfact>
</mgrwt>
</event>
<event>
 5   1  0.1357339E+00  0.8892920E+02  0.7818608E-02  0.1305466E+00
         -1   -1    0    0    0  501 -0.00000000000E+00  0.00000000000E+00  0.28684947294E+02  0.28684947674E+02  0.46700000000E-02 0.  1.
          1   -1    0    0  501    0  0.00000000000E+00 -0.00000000000E+00 -0.68924674784E+02  0.68924674942E+02  0.46700000000E-02 0. -1.
         23    2    1    2    0    0  0.00000000000E+00  0.00000000000E+00 -0.40239727490E+02  0.97609622616E+02  0.88929200822E+02 0.  0.
        -11    1    3    3    0    0 -0.26739803231E+02 -0.31270035295E+02 -0.16138612149E+01  0.41175681323E+02  0.51100000000E-03 0.  1.
         11    1    3    3    0    0  0.26739803231E+02  0.31270035295E+02 -0.38625866275E+02  0.56433941293E+02  0.51100000000E-03 0. -1.
<mgrwt>
<rscale>  0 0.88929201E+02</rscale>
<asrwt>0</asrwt>
<pdfrwt beam="2">  1        1 0.10603796E-01 0.88929201E+02</pdfrwt>
<pdfrwt beam="1">  1       -1 0.44130689E-02 0.88929201E+02</pdfrwt>
<totfact> 0.10543120E+05</totfact>
</mgrwt>
</event>
<event>
 5   1  0.1357339E+00  0.9167979E+02  0.7818608E-02  0.1298834E+00
         -1   -1    0    0    0  501 -0.00000000000E+00  0.00000000000E+00  0.65792918177E+02  0.65792918343E+02  0.46700000000E-02 0.  1.
          1   -1    0    0  501    0  0.00000000000E+00 -0.00000000000E+00 -0.31938026236E+02  0.31938026577E+02  0.46700000000E-02 0. -1.
         23    2    1    2    0    0  0.00000000000E+00  0.00000000000E+00  0.33854891941E+02  0.97730944920E+02  0.91679789957E+02 0.  0.
        -11    1    3    3    0    0 -0.89316576736E+01 -0.17658794974E+02  0.61004947947E+02  0.64134321724E+02  0.51100000000E-03 0.  1.
         11    1    3    3    0    0  0.89316576736E+01  0.17658794974E+02 -0.27150056006E+02  0.33596623195E+02  0.51100000000E-03 0. -1.
<mgrwt>
<rscale>  0 0.91679790E+02</rscale>
<asrwt>0</asrwt>
<pdfrwt beam="2">  1        1 0.49135426E-02 0.91679790E+02</pdfrwt>
<pdfrwt beam="1">  1       -1 0.10121987E-01 0.91679790E+02</pdfrwt>
<totfact> 0.86187841E+04</totfact>
</mgrwt>
</event>
<event>
 5   1  0.1357339E+00  0.8568227E+02  0.7818608E-02  0.1313658E+00
         -1   -1    0    0    0  501 -0.00000000000E+00  0.00000000000E+00  0.27437297172E+02  0.27437297570E+02  0.46700000000E-02 0.  1.
          1   -1    0    0  501    0  0.00000000000E+00 -0.00000000000E+00 -0.66892990032E+02  0.66892990195E+02  0.46700000000E-02 0. -1.
         23    2    1    2    0    0  0.00000000000E+00  0.00000000000E+00 -0.39455692860E+02  0.94330287765E+02  0.85682270575E+02 0.  0.
        -11    1    3    3    0    0 -0.16404897670E+02  0.62961905321E+01  0.23287442915E+02  0.29173064298E+02  0.51100000000E-03 0.  1.
         11    1    3    3    0    0  0.16404897670E+02 -0.62961905321E+01 -0.62743135775E+02  0.65157223467E+02  0.51100000000E-03 0. -1.
<mgrwt>
<rscale>  0 0.85682271E+02</rscale>
<asrwt>0</asrwt>
<pdfrwt beam="2">  1        1 0.10291229E-01 0.85682271E+02</pdfrwt>
<pdfrwt beam="1">  1       -1 0.42211227E-02 0.85682271E+02</pdfrwt>
<totfact> 0.11622887E+05</totfact>
</mgrwt>
</event>
<event>
 5   1  0.1357339E+00  0.1003131E+03  0.7818608E-02  0.1279639E+00
         -1   -1    0    0    0  501 -0.00000000000E+00  0.00000000000E+00  0.19388741828E+02  0.19388742390E+02  0.46700000000E-02 0. -1.
          1   -1    0    0  501    0  0.00000000000E+00 -0.00000000000E+00 -0.12974951626E+03  0.12974951634E+03  0.46700000000E-02 0.  1.
         23    2    1    2    0    0  0.00000000000E+00  0.00000000000E+00 -0.11036077443E+03  0.14913825873E+03  0.10031310824E+03 0.  0.
        -11    1    3    3    0    0 -0.47823771110E+02 -0.14347320153E+02 -0.48093632243E+02  0.69325003724E+02  0.51100000000E-03 0. -1.
         11    1    3    3    0    0  0.47823771110E+02  0.14347320153E+02 -0.62267142189E+02  0.79813255010E+02  0.51100000000E-03 0.  1.
<mgrwt>
<rscale>  0 0.10031311E+03</rscale>
<asrwt>0</asrwt>
<pdfrwt beam="2">  1        1 0.19961464E-01 0.10031311E+03</pdfrwt>
<pdfrwt beam="1">  1       -1 0.29828835E-02 0.10031311E+03</pdfrwt>
<totfact> 0.84207248E+04</totfact>
</mgrwt>
</event>
<event>
 5   1  0.1357339E+00  0.6586683E+02  0.7818608E-02  0.1374740E+00
          1   -1    0    0  501    0  0.00000000000E+00  0.00000000000E+00  0.76792322567E+02  0.76792322709E+02  0.46700000000E-02 0. -1.
         -1   -1    0    0    0  501 -0.00000000000E+00 -0.00000000000E+00 -0.14123936864E+02  0.14123937636E+02  0.46700000000E-02 0.  1.
         23    2    1    2    0    0  0.00000000000E+00  0.00000000000E+00  0.62668385703E+02  0.90916260345E+02  0.65866834055E+02 0.  0.
        -11    1    3    3    0    0 -0.31866947050E+02 -0.80345358269E+01  0.34279736110E+02  0.47488486902E+02  0.51100000000E-03 0. -1.
         11    1    3    3    0    0  0.31866947050E+02  0.80345358269E+01  0.28388649594E+02  0.43427773443E+02  0.51100000000E-03 0.  1.
<mgrwt>
<rscale>  0 0.65866834E+02</rscale>
<asrwt>0</asrwt>
<pdfrwt beam="1">  1        1 0.11814204E-01 0.65866834E+02</pdfrwt>
<pdfrwt beam="2">  1       -1 0.21729134E-02 0.65866834E+02</pdfrwt>
<totfact> 0.23979995E+05</totfact>
</mgrwt>
</event>
<event>
 5   1  0.1357339E+00  0.9184295E+02  0.7818608E-02  0.1298449E+00
         -1   -1    0    0    0  501 -0.00000000000E+00  0.00000000000E+00  0.50715514389E+02  0.50715514604E+02  0.46700000000E-02 0.  1.
          1   -1    0    0  501    0  0.00000000000E+00 -0.00000000000E+00 -0.41580602261E+02  0.41580602524E+02  0.46700000000E-02 0. -1.
         23    2    1    2    0    0  0.00000000000E+00  0.00000000000E+00  0.91349121277E+01  0.92296117128E+02  0.91842945386E+02 0.  0.
        -11    1    3    3    0    0  0.20806087483E+02  0.36851811090E+02  0.22483276845E+02  0.47921258278E+02  0.51100000000E-03 0.  1.
         11    1    3    3    0    0 -0.20806087483E+02 -0.36851811090E+02 -0.13348364717E+02  0.44374858849E+02  0.51100000000E-03 0. -1.
<mgrwt>
<rscale>  0 0.91842945E+02</rscale>
<asrwt>0</asrwt>
<pdfrwt beam="2">  1        1 0.63970158E-02 0.91842945E+02</pdfrwt>
<pdfrwt beam="1">  1       -1 0.78023868E-02 0.91842945E+02</pdfrwt>
<totfact> 0.89342635E+04</totfact>
</mgrwt>
</event>
<event>
 5   1  0.1357339E+00  0.7993308E+02  0.7818608E-02  0.1329241E+00
         -1   -1    0    0    0  501 -0.00000000000E+00  0.00000000000E+00  0.18987814912E+02  0.18987815486E+02  0.46700000000E-02 0.  1.
          1   -1    0    0  501    0  0.00000000000E+00 -0.00000000000E+00 -0.84123653839E+02  0.84123653968E+02  0.46700000000E-02 0. -1.
         23    2    1    2    0    0  0.00000000000E+00  0.00000000000E+00 -0.65135838927E+02  0.10311146945E+03  0.79933082139E+02 0.  0.
        -11    1    3    3    0    0 -0.20096891684E+02 -0.33724821173E+02 -0.42227718753E+02  0.57657860261E+02  0.51100000000E-03 0. -1.
         11    1    3    3    0    0  0.20096891684E+02  0.33724821173E+02 -0.22908120175E+02  0.45453609194E+02  0.51100000000E-03 0.  1.
<mgrwt>
<rscale>  0 0.79933082E+02</rscale>
<asrwt>0</asrwt>
<pdfrwt beam="2">  1        1 0.12942100E-01 0.79933082E+02</pdfrwt>
<pdfrwt beam="1">  1       -1 0.29212024E-02 0.79933082E+02</pdfrwt>
<totfact> 0.14516286E+05</totfact>
</mgrwt>
</event>
<event>
 5   1  0.1357339E+00  0.8742542E+02  0.7818608E-02  0.1309209E+00
         -1   -1    0    0    0  501 -0.00000000000E+00  0.00000000000E+00  0.75143892850E+01  0.75143907361E+01  0.46700000000E-02 0.  1.
          1   -1    0    0  501    0  0.00000000000E+00 -0.00000000000E+00 -0.25428556105E+03  0.25428556110E+03  0.46700000000E-02 0. -1.
         23    2    1    2    0    0  0.00000000000E+00  0.00000000000E+00 -0.24677117177E+03  0.26179995183E+03  0.87425417148E+02 0.  0.
        -11    1    3    3    0    0  0.37535319722E+02 -0.68090230106E+01 -0.59471866386E+02  0.70655261040E+02  0.51100000000E-03 0.  1.
         11    1    3    3    0    0 -0.37535319722E+02  0.68090230106E+01 -0.18729930538E+03  0.19114469079E+03  0.51100000000E-03 0. -1.
<mgrwt>
<rscale>  0 0.87425417E+02</rscale>
<asrwt>0</asrwt>
<pdfrwt beam="2">  1        1 0.39120849E-01 0.87425417E+02</pdfrwt>
<pdfrwt beam="1">  1       -1 0.11560602E-02 0.87425417E+02</pdfrwt>
<totfact> 0.13877093E+05</totfact>
</mgrwt>
</event>
<event>
 5   1  0.1357339E+00  0.9248006E+02  0.7818608E-02  0.1296955E+00
         -1   -1    0    0    0  501 -0.00000000000E+00  0.00000000000E+00  0.32802014865E+02  0.32802015198E+02  0.46700000000E-02 0.  1.
          1   -1    0    0  501    0  0.00000000000E+00 -0.00000000000E+00 -0.65183201279E+02  0.65183201446E+02  0.46700000000E-02 0. -1.
         23    2    1    2    0    0  0.00000000000E+00  0.00000000000E+00 -0.32381186414E+02  0.97985216644E+02  0.92480059727E+02 0.  0.
        -11    1    3    3    0    0 -0.82192290789E+01  0.39505970202E+02  0.77337037402E+01  0.41086343012E+02  0.51100000000E-03 0.  1.
         11    1    3    3    0    0  0.82192290789E+01 -0.39505970202E+02 -0.40114890154E+02  0.56898873632E+02  0.51100000000E-03 0. -1.
<mgrwt>
<rscale>  0 0.92480060E+02</rscale>
<asrwt>0</asrwt>
<pdfrwt beam="2">  1        1 0.10028185E-01 0.92480060E+02</pdfrwt>
<pdfrwt beam="1">  1       -1 0.50464639E-02 0.92480060E+02</pdfrwt>
<totfact> 0.93829897E+04</totfact>
</mgrwt>
</event>
<event>
 5   1  0.1357339E+00  0.9337740E+02  0.7818608E-02  0.1294873E+00
         -1   -1    0    0    0  501 -0.00000000000E+00  0.00000000000E+00  0.64355385727E+02  0.64355385897E+02  0.46700000000E-02 0.  1.
          1   -1    0    0  501    0  0.00000000000E+00 -0.00000000000E+00 -0.33871829701E+02  0.33871830023E+02  0.46700000000E-02 0. -1.
         23    2    1    2    0    0  0.00000000000E+00  0.00000000000E+00  0.30483556026E+02  0.98227215920E+02  0.93377399618E+02 0.  0.
        -11    1    3    3    0    0 -0.27045289398E+02 -0.23955871636E+02  0.46349683238E+02  0.58767547175E+02  0.51100000000E-03 0.  1.
         11    1    3    3    0    0  0.27045289398E+02  0.23955871636E+02 -0.15866127211E+02  0.39459668745E+02  0.51100000000E-03 0. -1.
<mgrwt>
<rscale>  0 0.93377400E+02</rscale>
<asrwt>0</asrwt>
<pdfrwt beam="2">  1        1 0.52110508E-02 0.93377400E+02</pdfrwt>
<pdfrwt beam="1">  1       -1 0.99008285E-02 0.93377400E+02</pdfrwt>
<totfact> 0.82545959E+04</totfact>
</mgrwt>
</event>
<event>
 5   1  0.1357339E+00  0.9305571E+02  0.7818608E-02  0.1295616E+00
          1   -1    0    0  501    0  0.00000000000E+00  0.00000000000E+00  0.32801264703E+03  0.32801264706E+03  0.46700000000E-02 0. -1.
         -1   -1    0    0    0  501 -0.00000000000E+00 -0.00000000000E+00 -0.65998709320E+01  0.65998725842E+01  0.46700000000E-02 0.  1.
         23    2    1    2    0    0  0.00000000000E+00  0.00000000000E+00  0.32141277610E+03  0.33461251965E+03  0.93055712698E+02 0.  0.
        -11    1    3    3    0    0 -0.24623856301E+02 -0.36941455546E+02  0.11064344893E+03  0.11921819587E+03  0.51100000000E-03 0.  1.
         11    1    3    3    0    0  0.24623856301E+02  0.36941455546E+02  0.21076932717E+03  0.21539432377E+03  0.51100000000E-03 0. -1.
<mgrwt>
<rscale>  0 0.93055713E+02</rscale>
<asrwt>0</asrwt>
<pdfrwt beam="1">  1        1 0.50463463E-01 0.93055713E+02</pdfrwt>
<pdfrwt beam="2">  1       -1 0.10153653E-02 0.93055713E+02</pdfrwt>
<totfact> 0.12339263E+05</totfact>
</mgrwt>
</event>
<event>
 5   1  0.1357339E+00  0.9184885E+02  0.7818608E-02  0.1298435E+00
         -1   -1    0    0    0  501 -0.00000000000E+00  0.00000000000E+00  0.13924584328E+03  0.13924584335E+03  0.46700000000E-02 0.  1.
          1   -1    0    0  501    0  0.00000000000E+00 -0.00000000000E+00 -0.15146251309E+02  0.15146252029E+02  0.46700000000E-02 0. -1.
         23    2    1    2    0    0  0.00000000000E+00  0.00000000000E+00  0.12409959197E+03  0.15439209538E+03  0.91848845342E+02 0.  0.
        -11    1    3    3    0    0  0.53724135802E+01 -0.45064271090E+02  0.73864430441E+02  0.86692591616E+02  0.51100000000E-03 0.  1.
         11    1    3    3    0    0 -0.53724135802E+01  0.45064271090E+02  0.50235161526E+02  0.67699503767E+02  0.51100000000E-03 0. -1.
<mgrwt>
<rscale>  0 0.91848845E+02</rscale>
<asrwt>0</asrwt>
<pdfrwt beam="2">  1        1 0.23301926E-02 0.91848845E+02</pdfrwt>
<pdfrwt beam="1">  1       -1 0.21422437E-01 0.91848845E+02</pdfrwt>
<totfact> 0.74635977E+04</totfact>
</mgrwt>
</event>
<event>
 5   1  0.1357339E+00  0.9342108E+02  0.7818608E-02  0.1294772E+00
          1   -1    0    0  501    0  0.00000000000E+00  0.00000000000E+00  0.31219018806E+03  0.31219018809E+03  0.46700000000E-02 0. -1.
         -1   -1    0    0    0  501 -0.00000000000E+00 -0.00000000000E+00 -0.69889264876E+01  0.69889280479E+01  0.46700000000E-02 0.  1.
         23    2    1    2    0    0  0.00000000000E+00  0.00000000000E+00  0.30520126157E+03  0.31917911614E+03  0.93421079614E+02 0.  0.
        -11    1    3    3    0    0 -0.10709112731E+02  0.45048567754E+02  0.13159057303E+03  0.13949959664E+03  0.51100000000E-03 0. -1.
         11    1    3    3    0    0  0.10709112731E+02 -0.45048567754E+02  0.17361068854E+03  0.17967951950E+03  0.51100000000E-03 0.  1.
<mgrwt>
<rscale>  0 0.93421080E+02</rscale>
<asrwt>0</asrwt>
<pdfrwt beam="1">  1        1 0.48029258E-01 0.93421080E+02</pdfrwt>
<pdfrwt beam="2">  1       -1 0.10752196E-02 0.93421080E+02</pdfrwt>
<totfact> 0.12098330E+05</totfact>
</mgrwt>
</event>
<event>
 5   1  0.1357339E+00  0.9210147E+02  0.7818608E-02  0.1297841E+00
          1   -1    0    0  501    0  0.00000000000E+00  0.00000000000E+00  0.91926278863E+01  0.91926290726E+01  0.46700000000E-02 0. -1.
         -1   -1    0    0    0  501 -0.00000000000E+00 -0.00000000000E+00 -0.23069249568E+03  0.23069249573E+03  0.46700000000E-02 0.  1.
         23    2    1    2    0    0  0.00000000000E+00  0.00000000000E+00 -0.22149986779E+03  0.23988512480E+03  0.92101474840E+02 0.  0.
        -11    1    3    3    0    0  0.48327347369E+01 -0.45506581018E+02 -0.12414924063E+03  0.13231492051E+03  0.51100000000E-03 0. -1.
         11    1    3    3    0    0 -0.48327347369E+01  0.45506581018E+02 -0.97350627168E+02  0.10757020429E+03  0.51100000000E-03 0.  1.
<mgrwt>
<rscale>  0 0.92101475E+02</rscale>
<asrwt>0</asrwt>
<pdfrwt beam="1">  1        1 0.14142507E-02 0.92101475E+02</pdfrwt>
<pdfrwt beam="2">  1       -1 0.35491149E-01 0.92101475E+02</pdfrwt>
<totfact> 0.64767630E+04</totfact>
</mgrwt>
</event>
<event>
 5   1  0.1357339E+00  0.9452734E+02  0.7818608E-02  0.1292244E+00
          1   -1    0    0  501    0  0.00000000000E+00  0.00000000000E+00  0.59400142748E+01  0.59400161106E+01  0.46700000000E-02 0. -1.
         -1   -1    0    0    0  501 -0.00000000000E+00 -0.00000000000E+00 -0.37606883029E+03  0.37606883032E+03  0.46700000000E-02 0.  1.
         23    2    1    2    0    0  0.00000000000E+00  0.00000000000E+00 -0.37012881602E+03  0.38200884643E+03  0.94527341577E+02 0.  0.
        -11    1    3    3    0    0 -0.43865410465E+02  0.16498752094E+02 -0.16032629138E+03  0.16703563322E+03  0.51100000000E-03 0. -1.
         11    1    3    3    0    0  0.43865410465E+02 -0.16498752094E+02 -0.20980252463E+03  0.21497321321E+03  0.51100000000E-03 0.  1.
<mgrwt>
<rscale>  0 0.94527342E+02</rscale>
<asrwt>0</asrwt>
<pdfrwt beam="1">  1        1 0.91384878E-03 0.94527342E+02</pdfrwt>
<pdfrwt beam="2">  1       -1 0.57856725E-01 0.94527342E+02</pdfrwt>
<totfact> 0.49968633E+04</totfact>
</mgrwt>
</event>
<event>
 5   1  0.1357339E+00  0.9112793E+02  0.7818608E-02  0.1300143E+00
         -1   -1    0    0    0  501 -0.00000000000E+00  0.00000000000E+00  0.38091019614E+02  0.38091019900E+02  0.46700000000E-02 0.  1.
          1   -1    0    0  501    0  0.00000000000E+00 -0.00000000000E+00 -0.54503006648E+02  0.54503006848E+02  0.46700000000E-02 0. -1.
         23    2    1    2    0    0  0.00000000000E+00  0.00000000000E+00 -0.16411987034E+02  0.92594026748E+02  0.91127934636E+02 0.  0.
        -11    1    3    3    0    0  0.40689085207E+02  0.17773436115E+02  0.21848906857E+01  0.44455263287E+02  0.51100000000E-03 0.  1.
         11    1    3    3    0    0 -0.40689085207E+02 -0.17773436115E+02 -0.18596877720E+02  0.48138763461E+02  0.51100000000E-03 0. -1.
<mgrwt>
<rscale>  0 0.91127935E+02</rscale>
<asrwt>0</asrwt>
<pdfrwt beam="2">  1        1 0.83850780E-02 0.91127935E+02</pdfrwt>
<pdfrwt beam="1">  1       -1 0.58601569E-02 0.91127935E+02</pdfrwt>
<totfact> 0.95127665E+04</totfact>
</mgrwt>
</event>
<event>
 5   1  0.1357339E+00  0.1211268E+03  0.7818608E-02  0.1241250E+00
          1   -1    0    0  501    0  0.00000000000E+00  0.00000000000E+00  0.31998908568E+03  0.31998908572E+03  0.46700000000E-02 0. -1.
         -1   -1    0    0    0  501 -0.00000000000E+00 -0.00000000000E+00 -0.11462664228E+02  0.11462665179E+02  0.46700000000E-02 0.  1.
         23    2    1    2    0    0  0.00000000000E+00  0.00000000000E+00  0.30852642146E+03  0.33145175090E+03  0.12112683615E+03 0.  0.
        -11    1    3    3    0    0 -0.52438523540E+02  0.15073611476E+02  0.82336154774E+02  0.98773756116E+02  0.51100000000E-03 0.  1.
         11    1    3    3    0    0  0.52438523540E+02 -0.15073611476E+02  0.22619026668E+03  0.23267799478E+03  0.51100000000E-03 0. -1.
<mgrwt>
<rscale>  0 0.12112684E+03</rscale>
<asrwt>0</asrwt>
<pdfrwt beam="1">  1        1 0.49229086E-01 0.12112684E+03</pdfrwt>
<pdfrwt beam="2">  1       -1 0.17634870E-02 0.12112684E+03</pdfrwt>
<totfact> 0.60187811E+04</totfact>
</mgrwt>
</event>
<event>
 5   1  0.1357339E+00  0.9053848E+02  0.7818608E-02  0.1301553E+00
          1   -1    0    0  501    0  0.00000000000E+00  0.00000000000E+00  0.38670996781E+02  0.38670997063E+02  0.46700000000E-02 0. -1.
         -1   -1    0    0    0  501 -0.00000000000E+00 -0.00000000000E+00 -0.52993310731E+02  0.52993310936E+02  0.46700000000E-02 0.  1.
         23    2    1    2    0    0  0.00000000000E+00  0.00000000000E+00 -0.14322313950E+02  0.91664307999E+02  0.90538481786E+02 0.  0.
        -11    1    3    3    0    0 -0.15256642469E+02  0.36321361468E+02 -0.29738628124E+02  0.49359826188E+02  0.51100000000E-03 0.  1.
         11    1    3    3    0    0  0.15256642469E+02 -0.36321361468E+02  0.15416314173E+02  0.42304481811E+02  0.51100000000E-03 0. -1.
<mgrwt>
<rscale>  0 0.90538482E+02</rscale>
<asrwt>0</asrwt>
<pdfrwt beam="1">  1        1 0.59493842E-02 0.90538482E+02</pdfrwt>
<pdfrwt beam="2">  1       -1 0.81528170E-02 0.90538482E+02</pdfrwt>
<totfact> 0.92007275E+04</totfact>
</mgrwt>
</event>
<event>
 5   1  0.1357339E+00  0.9179014E+02  0.7818608E-02  0.1298574E+00
         -1   -1    0    0    0  501 -0.00000000000E+00  0.00000000000E+00  0.66871322716E+02  0.66871322879E+02  0.46700000000E-02 0.  1.
          1   -1    0    0  501    0  0.00000000000E+00 -0.00000000000E+00 -0.31498667696E+02  0.31498668042E+02  0.46700000000E-02 0. -1.
         23    2    1    2    0    0  0.00000000000E+00  0.00000000000E+00  0.35372655020E+02  0.98369990921E+02  0.91790143210E+02 0.  0.
        -11    1    3    3    0    0  0.31330571830E+02  0.20410988985E+02  0.46204881083E+02  0.59439921254E+02  0.51100000000E-03 0.  1.
         11    1    3    3    0    0 -0.31330571830E+02 -0.20410988985E+02 -0.10832226063E+02  0.38930069667E+02  0.51100000000E-03 0. -1.
<mgrwt>
<rscale>  0 0.91790143E+02</rscale>
<asrwt>0</asrwt>
<pdfrwt beam="2">  1        1 0.48459489E-02 0.91790143E+02</pdfrwt>
<pdfrwt beam="1">  1       -1 0.10287896E-01 0.91790143E+02</pdfrwt>
<totfact> 0.85700983E+04</totfact>
</mgrwt>
</event>
<event>
 5   1  0.1357339E+00  0.9110672E+02  0.7818608E-02  0.1300194E+00
         -1   -1    0    0    0  501 -0.00000000000E+00  0.00000000000E+00  0.32975867805E+02  0.32975868136E+02  0.46700000000E-02 0.  1.
          1   -1    0    0  501    0  0.00000000000E+00 -0.00000000000E+00 -0.62928090733E+02  0.62928090906E+02  0.46700000000E-02 0. -1.
         23    2    1    2    0    0  0.00000000000E+00  0.00000000000E+00 -0.29952222928E+02  0.95903959042E+02  0.91106716007E+02 0.  0.
        -11    1    3    3    0    0  0.15742207654E+01 -0.45233523832E+02 -0.95512514579E+01  0.46257715615E+02  0.51100000000E-03 0.  1.
         11    1    3    3    0    0 -0.15742207654E+01  0.45233523832E+02 -0.20400971470E+02  0.49646243427E+02  0.51100000000E-03 0. -1.
<mgrwt>
<rscale>  0 0.91106716E+02</rscale>
<asrwt>0</asrwt>
<pdfrwt beam="2">  1        1 0.96812447E-02 0.91106716E+02</pdfrwt>
<pdfrwt beam="1">  1       -1 0.50732105E-02 0.91106716E+02</pdfrwt>
<totfact> 0.97277655E+04</totfact>
</mgrwt>
</event>
<event>
 5   1  0.1357339E+00  0.9305711E+02  0.7818608E-02  0.1295613E+00
         -1   -1    0    0    0  501 -0.00000000000E+00  0.00000000000E+00  0.38178147194E+02  0.38178147480E+02  0.46700000000E-02 0.  1.
          1   -1    0    0  501    0  0.00000000000E+00 -0.00000000000E+00 -0.56705382012E+02  0.56705382204E+02  0.46700000000E-02 0. -1.
         23    2    1    2    0    0  0.00000000000E+00  0.00000000000E+00 -0.18527234818E+02  0.94883529684E+02  0.93057110289E+02 0.  0.
        -11    1    3    3    0    0  0.34152607012E+02  0.31063269733E+02 -0.15172102283E+02  0.48595472836E+02  0.51100000000E-03 0.  1.
         11    1    3    3    0    0 -0.34152607012E+02 -0.31063269733E+02 -0.33551325344E+01  0.46288056848E+02  0.51100000000E-03 0. -1.
<mgrwt>
<rscale>  0 0.93057110E+02</rscale>
<asrwt>0</asrwt>
<pdfrwt beam="2">  1        1 0.87239050E-02 0.93057110E+02</pdfrwt>
<pdfrwt beam="1">  1       -1 0.58735611E-02 0.93057110E+02</pdfrwt>
<totfact> 0.90268889E+04</totfact>
</mgrwt>
</event>
<event>
 5   1  0.1357339E+00  0.9403130E+02  0.7818608E-02  0.1293373E+00
          1   -1    0    0  501    0  0.00000000000E+00  0.00000000000E+00  0.13036490427E+03  0.13036490435E+03  0.46700000000E-02 0. -1.
         -1   -1    0    0    0  501 -0.00000000000E+00 -0.00000000000E+00 -0.16956031480E+02  0.16956032123E+02  0.46700000000E-02 0.  1.
         23    2    1    2    0    0  0.00000000000E+00  0.00000000000E+00  0.11340887279E+03  0.14732093648E+03  0.94031302749E+02 0.  0.
        -11    1    3    3    0    0  0.32208945239E+02  0.33994534055E+02  0.50164055815E+02  0.68625629288E+02  0.51100000000E-03 0.  1.
         11    1    3    3    0    0 -0.32208945239E+02 -0.33994534055E+02  0.63244816975E+02  0.78695307189E+02  0.51100000000E-03 0. -1.
<mgrwt>
<rscale>  0 0.94031303E+02</rscale>
<asrwt>0</asrwt>
<pdfrwt beam="1">  1        1 0.20056140E-01 0.94031303E+02</pdfrwt>
<pdfrwt beam="2">  1       -1 0.26086202E-02 0.94031303E+02</pdfrwt>
<totfact> 0.10054803E+05</totfact>
</mgrwt>
</event>
<event>
 5   1  0.1357339E+00  0.9180626E+02  0.7818608E-02  0.1298536E+00
          1   -1    0    0  501    0  0.00000000000E+00  0.00000000000E+00  0.13670522118E+02  0.13670522916E+02  0.46700000000E-02 0. -1.
         -1   -1    0    0    0  501 -0.00000000000E+00 -0.00000000000E+00 -0.15413437317E+03  0.15413437324E+03  0.46700000000E-02 0.  1.
         23    2    1    2    0    0  0.00000000000E+00  0.00000000000E+00 -0.14046385105E+03  0.16780489615E+03  0.91806261886E+02 0.  0.
        -11    1    3    3    0    0 -0.20713453151E+02  0.15202271246E+02 -0.70424024718E+00  0.25703154418E+02  0.51100000000E-03 0. -1.
         11    1    3    3    0    0  0.20713453151E+02 -0.15202271246E+02 -0.13975961080E+03  0.14210174173E+03  0.51100000000E-03 0.  1.
<mgrwt>
<rscale>  0 0.91806262E+02</rscale>
<asrwt>0</asrwt>
<pdfrwt beam="1">  1        1 0.21031574E-02 0.91806262E+02</pdfrwt>
<pdfrwt beam="2">  1       -1 0.23712979E-01 0.91806262E+02</pdfrwt>
<totfact> 0.72992652E+04</totfact>
</mgrwt>
</event>
<event>
 5   1  0.1357339E+00  0.8971563E+02  0.7818608E-02  0.1303542E+00
          1   -1    0    0  501    0  0.00000000000E+00  0.00000000000E+00  0.13247299880E+02  0.13247300704E+02  0.46700000000E-02 0. -1.
         -1   -1    0    0    0  501 -0.00000000000E+00 -0.00000000000E+00 -0.15189689265E+03  0.15189689272E+03  0.46700000000E-02 0.  1.
         23    2    1    2    0    0  0.00000000000E+00  0.00000000000E+00 -0.13864959276E+03  0.16514419342E+03  0.89715634349E+02 0.  0.
        -11    1    3    3    0    0 -0.12522254883E+02 -0.30645811002E+02 -0.12504368499E+03  0.12935182935E+03  0.51100000000E-03 0.  1.
         11    1    3    3    0    0  0.12522254883E+02  0.30645811002E+02 -0.13605907775E+02  0.35792364074E+02  0.51100000000E-03 0. -1.
<mgrwt>
<rscale>  0 0.89715634E+02</rscale>
<asrwt>0</asrwt>
<pdfrwt beam="1">  1        1 0.20380463E-02 0.89715634E+02</pdfrwt>
<pdfrwt beam="2">  1       -1 0.23368752E-01 0.89715634E+02</pdfrwt>
<totfact> 0.77758100E+04</totfact>
</mgrwt>
</event>
<event>
 5   1  0.1357339E+00  0.9039769E+02  0.7818608E-02  0.1301891E+00
          1   -1    0    0  501    0  0.00000000000E+00  0.00000000000E+00  0.51694834431E+02  0.51694834642E+02  0.46700000000E-02 0. -1.
         -1   -1    0    0    0  501 -0.00000000000E+00 -0.00000000000E+00 -0.39519143792E+02  0.39519144068E+02  0.46700000000E-02 0.  1.
         23    2    1    2    0    0  0.00000000000E+00  0.00000000000E+00  0.12175690639E+02  0.91213978710E+02  0.90397690621E+02 0.  0.
        -11    1    3    3    0    0 -0.19754742487E+02  0.26973543513E+02 -0.24602489347E+02  0.41510292491E+02  0.51100000000E-03 0.  1.
         11    1    3    3    0    0  0.19754742487E+02 -0.26973543513E+02  0.36778179986E+02  0.49703686219E+02  0.51100000000E-03 0. -1.
<mgrwt>
<rscale>  0 0.90397691E+02</rscale>
<asrwt>0</asrwt>
<pdfrwt beam="1">  1        1 0.79530515E-02 0.90397691E+02</pdfrwt>
<pdfrwt beam="2">  1       -1 0.60798683E-02 0.90397691E+02</pdfrwt>
<totfact> 0.96515610E+04</totfact>
</mgrwt>
</event>
<event>
 5   1  0.1357339E+00  0.8454613E+02  0.7818608E-02  0.1316624E+00
         -1   -1    0    0    0  501 -0.00000000000E+00  0.00000000000E+00  0.24592790575E+02  0.24592791018E+02  0.46700000000E-02 0.  1.
          1   -1    0    0  501    0  0.00000000000E+00 -0.00000000000E+00 -0.72664059645E+02  0.72664059795E+02  0.46700000000E-02 0. -1.
         23    2    1    2    0    0  0.00000000000E+00  0.00000000000E+00 -0.48071269071E+02  0.97256850813E+02  0.84546130131E+02 0.  0.
        -11    1    3    3    0    0 -0.34553400137E+02 -0.22689937669E+02 -0.34210870531E+02  0.53657752424E+02  0.51100000000E-03 0. -1.
         11    1    3    3    0    0  0.34553400137E+02  0.22689937669E+02 -0.13860398540E+02  0.43599098389E+02  0.51100000000E-03 0.  1.
<mgrwt>
<rscale>  0 0.84546130E+02</rscale>
<asrwt>0</asrwt>
<pdfrwt beam="2">  1        1 0.11179086E-01 0.84546130E+02</pdfrwt>
<pdfrwt beam="1">  1       -1 0.37835063E-02 0.84546130E+02</pdfrwt>
<totfact> 0.12202256E+05</totfact>
</mgrwt>
</event>
<event>
 5   1  0.1357339E+00  0.9128956E+02  0.7818608E-02  0.1299759E+00
         -1   -1    0    0    0  501 -0.00000000000E+00  0.00000000000E+00  0.30750228459E+02  0.30750228814E+02  0.46700000000E-02 0.  1.
          1   -1    0    0  501    0  0.00000000000E+00 -0.00000000000E+00 -0.67753829765E+02  0.67753829926E+02  0.46700000000E-02 0. -1.
         23    2    1    2    0    0  0.00000000000E+00  0.00000000000E+00 -0.37003601305E+02  0.98504058739E+02  0.91289556240E+02 0.  0.
        -11    1    3    3    0    0  0.10007071364E+02 -0.49112116533E+01  0.29258898378E+02  0.31310455311E+02  0.51100000000E-03 0.  1.
         11    1    3    3    0    0 -0.10007071364E+02  0.49112116533E+01 -0.66262499683E+02  0.67193603429E+02  0.51100000000E-03 0. -1.
<mgrwt>
<rscale>  0 0.91289556E+02</rscale>
<asrwt>0</asrwt>
<pdfrwt beam="2">  1        1 0.10423666E-01 0.91289556E+02</pdfrwt>
<pdfrwt beam="1">  1       -1 0.47308045E-02 0.91289556E+02</pdfrwt>
<totfact> 0.97838072E+04</totfact>
</mgrwt>
</event>
<event>
 5   1  0.1357339E+00  0.9148791E+02  0.7818608E-02  0.1299288E+00
          1   -1    0    0  501    0  0.00000000000E+00  0.00000000000E+00  0.51532263384E+01  0.51532284545E+01  0.46700000000E-02 0. -1.
         -1   -1    0    0    0  501 -0.00000000000E+00 -0.00000000000E+00 -0.40605802572E+03  0.40605802575E+03  0.46700000000E-02 0.  1.
         23    2    1    2    0    0  0.00000000000E+00  0.00000000000E+00 -0.40090479938E+03  0.41121125420E+03  0.91487908570E+02 0.  0.
        -11    1    3    3    0    0 -0.14076986323E+02 -0.41315055932E+02 -0.26198457438E+03  0.26559558092E+03  0.51100000000E-03 0.  1.
         11    1    3    3    0    0  0.14076986323E+02  0.41315055932E+02 -0.13892022500E+03  0.14561567328E+03  0.51100000000E-03 0. -1.
<mgrwt>
<rscale>  0 0.91487909E+02</rscale>
<asrwt>0</asrwt>
<pdfrwt beam="1">  1        1 0.79280454E-03 0.91487909E+02</pdfrwt>
<pdfrwt beam="2">  1       -1 0.62470440E-01 0.91487909E+02</pdfrwt>
<totfact> 0.52413872E+04</totfact>
</mgrwt>
</event>
<event>
 5   1  0.1357339E+00  0.9730971E+02  0.7818608E-02  0.1286057E+00
          1   -1    0    0  501    0  0.00000000000E+00  0.00000000000E+00  0.11555666961E+03  0.11555666971E+03  0.46700000000E-02 0. -1.
         -1   -1    0    0    0  501 -0.00000000000E+00 -0.00000000000E+00 -0.20486009319E+02  0.20486009851E+02  0.46700000000E-02 0.  1.
         23    2    1    2    0    0  0.00000000000E+00  0.00000000000E+00  0.95070660292E+02  0.13604267956E+03  0.97309712838E+02 0.  0.
        -11    1    3    3    0    0  0.37308476819E+02 -0.15150165373E+02  0.93546811090E+01  0.41339569571E+02  0.51100000000E-03 0.  1.
         11    1    3    3    0    0 -0.37308476819E+02  0.15150165373E+02  0.85715979183E+02  0.94703109985E+02  0.51100000000E-03 0. -1.
<mgrwt>
<rscale>  0 0.97309713E+02</rscale>
<asrwt>0</asrwt>
<pdfrwt beam="1">  1        1 0.17777949E-01 0.97309713E+02</pdfrwt>
<pdfrwt beam="2">  1       -1 0.31516938E-02 0.97309713E+02</pdfrwt>
<totfact> 0.89620718E+04</totfact>
</mgrwt>
</event>
<event>
 5   1  0.1357339E+00  0.8724765E+02  0.7818608E-02  0.1309657E+00
          1   -1    0    0  501    0  0.00000000000E+00  0.00000000000E+00  0.10517110859E+03  0.10517110869E+03  0.46700000000E-02 0. -1.
         -1   -1    0    0    0  501 -0.00000000000E+00 -0.00000000000E+00 -0.18094686424E+02  0.18094687027E+02  0.46700000000E-02 0.  1.
         23    2    1    2    0    0  0.00000000000E+00  0.00000000000E+00  0.87076422161E+02  0.12326579572E+03  0.87247653819E+02 0.  0.
        -11    1    3    3    0    0 -0.21017115174E+02  0.37661869874E+02  0.34284175914E+02  0.55095737503E+02  0.51100000000E-03 0. -1.
         11    1    3    3    0    0  0.21017115174E+02 -0.37661869874E+02  0.52792246248E+02  0.68170058213E+02  0.51100000000E-03 0.  1.
<mgrwt>
<rscale>  0 0.87247654E+02</rscale>
<asrwt>0</asrwt>
<pdfrwt beam="1">  1        1 0.16180171E-01 0.87247654E+02</pdfrwt>
<pdfrwt beam="2">  1       -1 0.27837979E-02 0.87247654E+02</pdfrwt>
<totfact> 0.11870372E+05</totfact>
</mgrwt>
</event>
<event>
 5   1  0.1357339E+00  0.9081274E+02  0.7818608E-02  0.1300895E+00
          1   -1    0    0  501    0  0.00000000000E+00  0.00000000000E+00  0.23232444448E+02  0.23232444918E+02  0.46700000000E-02 0. -1.
         -1   -1    0    0    0  501 -0.00000000000E+00 -0.00000000000E+00 -0.88743921812E+02  0.88743921934E+02  0.46700000000E-02 0.  1.
         23    2    1    2    0    0  0.00000000000E+00  0.00000000000E+00 -0.65511477363E+02  0.11197636685E+03  0.90812736261E+02 0.  0.
        -11    1    3    3    0    0  0.24962388898E+02 -0.35393518925E+02 -0.15943007958E+02  0.46151939769E+02  0.51100000000E-03 0. -1.
         11    1    3    3    0    0 -0.24962388898E+02  0.35393518925E+02 -0.49568469405E+02  0.65824427083E+02  0.51100000000E-03 0.  1.
<mgrwt>
<rscale>  0 0.90812736E+02</rscale>
<asrwt>0</asrwt>
<pdfrwt beam="1">  1        1 0.35742223E-02 0.90812736E+02</pdfrwt>
<pdfrwt beam="2">  1       -1 0.13652911E-01 0.90812736E+02</pdfrwt>
<totfact> 0.84006843E+04</totfact>
</mgrwt>
</event>
<event>
 5   1  0.1357339E+00  0.9267358E+02  0.7818608E-02  0.1296503E+00
         -1   -1    0    0    0  501 -0.00000000000E+00  0.00000000000E+00  0.11437351263E+02  0.11437352217E+02  0.46700000000E-02 0.  1.
          1   -1    0    0  501    0  0.00000000000E+00 -0.00000000000E+00 -0.18772684943E+03  0.18772684949E+03  0.46700000000E-02 0. -1.
         23    2    1    2    0    0  0.00000000000E+00  0.00000000000E+00 -0.17628949817E+03  0.19916420170E+03  0.92673578094E+02 0.  0.
        -11    1    3    3    0    0  0.45948239425E+02  0.52645857037E+01 -0.82012691410E+02  0.94154331400E+02  0.51100000000E-03 0. -1.
         11    1    3    3    0    0 -0.45948239425E+02 -0.52645857037E+01 -0.94276806757E+02  0.10500987030E+03  0.51100000000E-03 0.  1.
<mgrwt>
<rscale>  0 0.92673578E+02</rscale>
<asrwt>0</asrwt>
<pdfrwt beam="2">  1        1 0.28881052E-01 0.92673578E+02</pdfrwt>
<pdfrwt beam="1">  1       -1 0.17595927E-02 0.92673578E+02</pdfrwt>
<totfact> 0.11195411E+05</totfact>
</mgrwt>
</event>
<event>
 5   1  0.1357339E+00  0.9094376E+02  0.7818608E-02  0.1300582E+00
          1   -1    0    0  501    0  0.00000000000E+00  0.00000000000E+00  0.19665877619E+03  0.19665877624E+03  0.46700000000E-02 0. -1.
         -1   -1    0    0    0  501 -0.00000000000E+00 -0.00000000000E+00 -0.10514108085E+02  0.10514109122E+02  0.46700000000E-02 0.  1.
         23    2    1    2    0    0  0.00000000000E+00  0.00000000000E+00  0.18614466810E+03  0.20717288537E+03  0.90943757167E+02 0.  0.
        -11    1    3    3    0    0  0.40888153130E+02  0.78861293639E+01  0.51460978852E+02  0.66198674061E+02  0.51100000000E-03 0. -1.
         11    1    3    3    0    0 -0.40888153130E+02 -0.78861293639E+01  0.13468368925E+03  0.14097421131E+03  0.51100000000E-03 0.  1.
<mgrwt>
<rscale>  0 0.90943757E+02</rscale>
<asrwt>0</asrwt>
<pdfrwt beam="1">  1        1 0.30255195E-01 0.90943757E+02</pdfrwt>
<pdfrwt beam="2">  1       -1 0.16175553E-02 0.90943757E+02</pdfrwt>
<totfact> 0.11883337E+05</totfact>
</mgrwt>
</event>
<event>
 5   1  0.1357339E+00  0.8708113E+02  0.7818608E-02  0.1310078E+00
         -1   -1    0    0    0  501 -0.00000000000E+00  0.00000000000E+00  0.18410302902E+02  0.18410303495E+02  0.46700000000E-02 0.  1.
          1   -1    0    0  501    0  0.00000000000E+00 -0.00000000000E+00 -0.10297391043E+03  0.10297391053E+03  0.46700000000E-02 0. -1.
         23    2    1    2    0    0  0.00000000000E+00  0.00000000000E+00 -0.84563607524E+02  0.12138421403E+03  0.87081132844E+02 0.  0.
        -11    1    3    3    0    0 -0.15289752528E+02 -0.33882680073E+02 -0.73883205161E+02  0.82707560395E+02  0.51100000000E-03 0. -1.
         11    1    3    3    0    0  0.15289752528E+02  0.33882680073E+02 -0.10680402362E+02  0.38676653632E+02  0.51100000000E-03 0.  1.
<mgrwt>
<rscale>  0 0.87081133E+02</rscale>
<asrwt>0</asrwt>
<pdfrwt beam="2">  1        1 0.15842140E-01 0.87081133E+02</pdfrwt>
<pdfrwt beam="1">  1       -1 0.28323544E-02 0.87081133E+02</pdfrwt>
<totfact> 0.11890547E+05</totfact>
</mgrwt>
</event>
<event>
 5   1  0.1357339E+00  0.7113967E+02  0.7818608E-02  0.1356260E+00
         -1   -1    0    0    0  501 -0.00000000000E+00  0.00000000000E+00  0.19894675655E+03  0.19894675660E+03  0.46700000000E-02 0.  1.
          1   -1    0    0  501    0  0.00000000000E+00 -0.00000000000E+00 -0.63595551017E+01  0.63595568164E+01  0.46700000000E-02 0. -1.
         23    2    1    2    0    0  0.00000000000E+00  0.00000000000E+00  0.19258720145E+03  0.20530631342E+03  0.71139666634E+02 0.  0.
        -11    1    3    3    0    0  0.20375301804E+02  0.20787839240E+02  0.15529198257E+03  0.15799647791E+03  0.51100000000E-03 0.  1.
         11    1    3    3    0    0 -0.20375301804E+02 -0.20787839240E+02  0.37295218880E+02  0.47309835505E+02  0.51100000000E-03 0. -1.
<mgrwt>
<rscale>  0 0.71139667E+02</rscale>
<asrwt>0</asrwt>
<pdfrwt beam="2">  1        1 0.97839334E-03 0.71139667E+02</pdfrwt>
<pdfrwt beam="1">  1       -1 0.30607190E-01 0.71139667E+02</pdfrwt>
<totfact> 0.13199427E+05</totfact>
</mgrwt>
</event>
<event>
 5   1  0.1357339E+00  0.9091660E+02  0.7818608E-02  0.1300647E+00
          1   -1    0    0  501    0  0.00000000000E+00  0.00000000000E+00  0.39582182941E+02  0.39582183216E+02  0.46700000000E-02 0. -1.
         -1   -1    0    0    0  501 -0.00000000000E+00 -0.00000000000E+00 -0.52206745955E+02  0.52206746164E+02  0.46700000000E-02 0.  1.
         23    2    1    2    0    0  0.00000000000E+00  0.00000000000E+00 -0.12624563014E+02  0.91788929380E+02  0.90916598955E+02 0.  0.
        -11    1    3    3    0    0  0.14099817625E+02  0.42763722553E+02 -0.14143755786E-01  0.45028224748E+02  0.51100000000E-03 0. -1.
         11    1    3    3    0    0 -0.14099817625E+02 -0.42763722553E+02 -0.12610419259E+02  0.46760704633E+02  0.51100000000E-03 0.  1.
<mgrwt>
<rscale>  0 0.90916599E+02</rscale>
<asrwt>0</asrwt>
<pdfrwt beam="1">  1        1 0.60895666E-02 0.90916599E+02</pdfrwt>
<pdfrwt beam="2">  1       -1 0.80318071E-02 0.90916599E+02</pdfrwt>
<totfact> 0.91253167E+04</totfact>
</mgrwt>
</event>
<event>
 5   1  0.1357339E+00  0.8910260E+02  0.7818608E-02  0.1305040E+00
          1   -1    0    0  501    0  0.00000000000E+00  0.00000000000E+00  0.47338720873E+02  0.47338721104E+02  0.46700000000E-02 0. -1.
         -1   -1    0    0    0  501 -0.00000000000E+00 -0.00000000000E+00 -0.41928011045E+02  0.41928011305E+02  0.46700000000E-02 0.  1.
         23    2    1    2    0    0  0.00000000000E+00  0.00000000000E+00  0.54107098280E+01  0.89266732409E+02  0.89102602286E+02 0.  0.
        -11    1    3    3    0    0  0.13560290385E+02 -0.27263024675E+02 -0.29876304687E+02  0.42658499409E+02  0.51100000000E-03 0.  1.
         11    1    3    3    0    0 -0.13560290385E+02  0.27263024675E+02  0.35287014515E+02  0.46608233001E+02  0.51100000000E-03 0. -1.
<mgrwt>
<rscale>  0 0.89102602E+02</rscale>
<asrwt>0</asrwt>
<pdfrwt beam="1">  1        1 0.72828802E-02 0.89102602E+02</pdfrwt>
<pdfrwt beam="2">  1       -1 0.64504633E-02 0.89102602E+02</pdfrwt>
<totfact> 0.99174188E+04</totfact>
</mgrwt>
</event>
<event>
 5   1  0.1357339E+00  0.8482836E+02  0.7818608E-02  0.1315882E+00
         -1   -1    0    0    0  501 -0.00000000000E+00  0.00000000000E+00  0.84947195557E+02  0.84947195685E+02  0.46700000000E-02 0.  1.
          1   -1    0    0  501    0  0.00000000000E+00 -0.00000000000E+00 -0.21177423079E+02  0.21177423594E+02  0.46700000000E-02 0. -1.
         23    2    1    2    0    0  0.00000000000E+00  0.00000000000E+00  0.63769772478E+02  0.10612461928E+03  0.84828361621E+02 0.  0.
        -11    1    3    3    0    0 -0.36381752024E+02  0.21712465238E+02  0.34355421346E+02  0.54546842284E+02  0.51100000000E-03 0.  1.
         11    1    3    3    0    0  0.36381752024E+02 -0.21712465238E+02  0.29414351132E+02  0.51577776996E+02  0.51100000000E-03 0. -1.
<mgrwt>
<rscale>  0 0.84828362E+02</rscale>
<asrwt>0</asrwt>
<pdfrwt beam="2">  1        1 0.32580651E-02 0.84828362E+02</pdfrwt>
<pdfrwt beam="1">  1       -1 0.13068799E-01 0.84828362E+02</pdfrwt>
<totfact> 0.10078672E+05</totfact>
</mgrwt>
</event>
<event>
 5   1  0.1357339E+00  0.9012014E+02  0.7818608E-02  0.1302561E+00
         -1   -1    0    0    0  501 -0.00000000000E+00  0.00000000000E+00  0.76920433081E+02  0.76920433223E+02  0.46700000000E-02 0.  1.
          1   -1    0    0  501    0  0.00000000000E+00 -0.00000000000E+00 -0.26396238468E+02  0.26396238881E+02  0.46700000000E-02 0. -1.
         23    2    1    2    0    0  0.00000000000E+00  0.00000000000E+00  0.50524194613E+02  0.10331667210E+03  0.90120144770E+02 0.  0.
        -11    1    3    3    0    0 -0.16452286449E+00 -0.16653328367E+02  0.73262584313E+02  0.75131662260E+02  0.51100000000E-03 0.  1.
         11    1    3    3    0    0  0.16452286449E+00  0.16653328367E+02 -0.22738389701E+02  0.28185009844E+02  0.51100000000E-03 0. -1.
<mgrwt>
<rscale>  0 0.90120145E+02</rscale>
<asrwt>0</asrwt>
<pdfrwt beam="2">  1        1 0.40609599E-02 0.90120145E+02</pdfrwt>
<pdfrwt beam="1">  1       -1 0.11833913E-01 0.90120145E+02</pdfrwt>
<totfact> 0.87785972E+04</totfact>
</mgrwt>
</event>
<event>
 5   1  0.1357339E+00  0.9398664E+02  0.7818608E-02  0.1293475E+00
         -1   -1    0    0    0  501 -0.00000000000E+00  0.00000000000E+00  0.67561917311E+01  0.67561933451E+01  0.46700000000E-02 0.  1.
          1   -1    0    0  501    0  0.00000000000E+00 -0.00000000000E+00 -0.32686637757E+03  0.32686637761E+03  0.46700000000E-02 0. -1.
         23    2    1    2    0    0  0.00000000000E+00  0.00000000000E+00 -0.32011018584E+03  0.33362257095E+03  0.93986641437E+02 0.  0.
        -11    1    3    3    0    0 -0.46457818873E+02  0.31295915323E+01 -0.18257498885E+03  0.18841908033E+03  0.51100000000E-03 0.  1.
         11    1    3    3    0    0  0.46457818873E+02 -0.31295915323E+01 -0.13753519699E+03  0.14520349062E+03  0.51100000000E-03 0. -1.
<mgrwt>
<rscale>  0 0.93986641E+02</rscale>
<asrwt>0</asrwt>
<pdfrwt beam="2">  1        1 0.50287123E-01 0.93986641E+02</pdfrwt>
<pdfrwt beam="1">  1       -1 0.10394145E-02 0.93986641E+02</pdfrwt>
<totfact> 0.12007853E+05</totfact>
</mgrwt>
</event>
<event>
 5   1  0.1357339E+00  0.9168827E+02  0.7818608E-02  0.1298814E+00
         -1   -1    0    0    0  501 -0.00000000000E+00  0.00000000000E+00  0.35433659366E+03  0.35433659370E+03  0.46700000000E-02 0.  1.
          1   -1    0    0  501    0  0.00000000000E+00 -0.00000000000E+00 -0.59313215054E+01  0.59313233439E+01  0.46700000000E-02 0. -1.
         23    2    1    2    0    0  0.00000000000E+00  0.00000000000E+00  0.34840527216E+03  0.36026791704E+03  0.91688267404E+02 0.  0.
        -11    1    3    3    0    0  0.17418895551E+02  0.40434147860E+02  0.12398381051E+03  0.13156870260E+03  0.51100000000E-03 0.  1.
         11    1    3    3    0    0 -0.17418895551E+02 -0.40434147860E+02  0.22442146165E+03  0.22869921444E+03  0.51100000000E-03 0. -1.
<mgrwt>
<rscale>  0 0.91688267E+02</rscale>
<asrwt>0</asrwt>
<pdfrwt beam="2">  1        1 0.91251112E-03 0.91688267E+02</pdfrwt>
<pdfrwt beam="1">  1       -1 0.54513324E-01 0.91688267E+02</pdfrwt>
<totfact> 0.55651285E+04</totfact>
</mgrwt>
</event>
<event>
 5   1  0.1357339E+00  0.9114983E+02  0.7818608E-02  0.1300091E+00
          1   -1    0    0  501    0  0.00000000000E+00  0.00000000000E+00  0.18928406650E+02  0.18928407226E+02  0.46700000000E-02 0. -1.
         -1   -1    0    0    0  501 -0.00000000000E+00 -0.00000000000E+00 -0.10973310356E+03  0.10973310366E+03  0.46700000000E-02 0.  1.
         23    2    1    2    0    0  0.00000000000E+00  0.00000000000E+00 -0.90804696910E+02  0.12866151089E+03  0.91149829415E+02 0.  0.
        -11    1    3    3    0    0  0.24771811638E+02  0.29287752542E+02 -0.80140477655E+02  0.88847685732E+02  0.51100000000E-03 0.  1.
         11    1    3    3    0    0 -0.24771811638E+02 -0.29287752542E+02 -0.10664219254E+02  0.39813825154E+02  0.51100000000E-03 0. -1.
<mgrwt>
<rscale>  0 0.91149829E+02</rscale>
<asrwt>0</asrwt>
<pdfrwt beam="1">  1        1 0.29120627E-02 0.91149829E+02</pdfrwt>
<pdfrwt beam="2">  1       -1 0.16882016E-01 0.91149829E+02</pdfrwt>
<totfact> 0.80006451E+04</totfact>
</mgrwt>
</event>
<event>
 5   1  0.1357339E+00  0.9096738E+02  0.7818608E-02  0.1300526E+00
          1   -1    0    0  501    0  0.00000000000E+00  0.00000000000E+00  0.83826832261E+02  0.83826832391E+02  0.46700000000E-02 0. -1.
         -1   -1    0    0    0  501 -0.00000000000E+00 -0.00000000000E+00 -0.24679045109E+02  0.24679045551E+02  0.46700000000E-02 0.  1.
         23    2    1    2    0    0  0.00000000000E+00  0.00000000000E+00  0.59147787152E+02  0.10850587794E+03  0.90967383293E+02 0.  0.
        -11    1    3    3    0    0 -0.26272586615E+02 -0.29570532996E+02  0.56354865384E+02  0.68851551049E+02  0.51100000000E-03 0. -1.
         11    1    3    3    0    0  0.26272586615E+02  0.29570532996E+02  0.27929217678E+01  0.39654326894E+02  0.51100000000E-03 0.  1.
<mgrwt>
<rscale>  0 0.90967383E+02</rscale>
<asrwt>0</asrwt>
<pdfrwt beam="1">  1        1 0.12896436E-01 0.90967383E+02</pdfrwt>
<pdfrwt beam="2">  1       -1 0.37967763E-02 0.90967383E+02</pdfrwt>
<totfact> 0.10213546E+05</totfact>
</mgrwt>
</event>
<event>
 5   1  0.1357339E+00  0.9728764E+02  0.7818608E-02  0.1286105E+00
          1   -1    0    0  501    0  0.00000000000E+00  0.00000000000E+00  0.33138546309E+02  0.33138546638E+02  0.46700000000E-02 0. -1.
         -1   -1    0    0    0  501 -0.00000000000E+00 -0.00000000000E+00 -0.71403897788E+02  0.71403897941E+02  0.46700000000E-02 0.  1.
         23    2    1    2    0    0  0.00000000000E+00  0.00000000000E+00 -0.38265351479E+02  0.10454244458E+03  0.97287643587E+02 0.  0.
        -11    1    3    3    0    0  0.18149065473E+02 -0.27140369092E+02 -0.57880345537E+02  0.66453913442E+02  0.51100000000E-03 0.  1.
         11    1    3    3    0    0 -0.18149065473E+02  0.27140369092E+02  0.19614994058E+02  0.38088531137E+02  0.51100000000E-03 0. -1.
<mgrwt>
<rscale>  0 0.97287644E+02</rscale>
<asrwt>0</asrwt>
<pdfrwt beam="1">  1        1 0.50982380E-02 0.97287644E+02</pdfrwt>
<pdfrwt beam="2">  1       -1 0.10985215E-01 0.97287644E+02</pdfrwt>
<totfact> 0.73089910E+04</totfact>
</mgrwt>
</event>
<event>
 5   1  0.1357339E+00  0.9178723E+02  0.7818608E-02  0.1298580E+00
          1   -1    0    0  501    0  0.00000000000E+00  0.00000000000E+00  0.95084759437E+02  0.95084759552E+02  0.46700000000E-02 0. -1.
         -1   -1    0    0    0  501 -0.00000000000E+00 -0.00000000000E+00 -0.22151016455E+02  0.22151016947E+02  0.46700000000E-02 0.  1.
         23    2    1    2    0    0  0.00000000000E+00  0.00000000000E+00  0.72933742982E+02  0.11723577650E+03  0.91787234547E+02 0.  0.
        -11    1    3    3    0    0  0.33596599012E+02 -0.31067206965E+02  0.31983486738E+02  0.55828722339E+02  0.51100000000E-03 0. -1.
         11    1    3    3    0    0 -0.33596599012E+02  0.31067206965E+02  0.40950256245E+02  0.61407054160E+02  0.51100000000E-03 0.  1.
<mgrwt>
<rscale>  0 0.91787235E+02</rscale>
<asrwt>0</asrwt>
<pdfrwt beam="1">  1        1 0.14628424E-01 0.91787235E+02</pdfrwt>
<pdfrwt beam="2">  1       -1 0.34078488E-02 0.91787235E+02</pdfrwt>
<totfact> 0.10171296E+05</totfact>
</mgrwt>
</event>
<event>
 5   1  0.1357339E+00  0.9159948E+02  0.7818608E-02  0.1299024E+00
          1   -1    0    0  501    0  0.00000000000E+00  0.00000000000E+00  0.57098591327E+02  0.57098591518E+02  0.46700000000E-02 0. -1.
         -1   -1    0    0    0  501 -0.00000000000E+00 -0.00000000000E+00 -0.36736742583E+02  0.36736742880E+02  0.46700000000E-02 0.  1.
         23    2    1    2    0    0  0.00000000000E+00  0.00000000000E+00  0.20361848744E+02  0.93835334398E+02  0.91599481971E+02 0.  0.
        -11    1    3    3    0    0  0.45565612658E+02  0.38426345929E+01  0.12817733362E+02  0.47489842981E+02  0.51100000000E-03 0.  1.
         11    1    3    3    0    0 -0.45565612658E+02 -0.38426345929E+01  0.75441153823E+01  0.46345491417E+02  0.51100000000E-03 0. -1.
<mgrwt>
<rscale>  0 0.91599482E+02</rscale>
<asrwt>0</asrwt>
<pdfrwt beam="1">  1        1 0.87843986E-02 0.91599482E+02</pdfrwt>
<pdfrwt beam="2">  1       -1 0.56518066E-02 0.91599482E+02</pdfrwt>
<totfact> 0.94429441E+04</totfact>
</mgrwt>
</event>
<event>
 5   1  0.1357339E+00  0.9802393E+02  0.7818608E-02  0.1284507E+00
          1   -1    0    0  501    0  0.00000000000E+00  0.00000000000E+00  0.11386991014E+03  0.11386991023E+03  0.46700000000E-02 0. -1.
         -1   -1    0    0    0  501 -0.00000000000E+00 -0.00000000000E+00 -0.21095764326E+02  0.21095764843E+02  0.46700000000E-02 0.  1.
         23    2    1    2    0    0  0.00000000000E+00  0.00000000000E+00  0.92774145813E+02  0.13496567508E+03  0.98023932372E+02 0.  0.
        -11    1    3    3    0    0 -0.21446753795E+02  0.33107114507E+02  0.63364398611E+01  0.39952406057E+02  0.51100000000E-03 0.  1.
         11    1    3    3    0    0  0.21446753795E+02 -0.33107114507E+02  0.86437705952E+02  0.95013269020E+02  0.51100000000E-03 0. -1.
<mgrwt>
<rscale>  0 0.98023932E+02</rscale>
<asrwt>0</asrwt>
<pdfrwt beam="1">  1        1 0.17518447E-01 0.98023932E+02</pdfrwt>
<pdfrwt beam="2">  1       -1 0.32455024E-02 0.98023932E+02</pdfrwt>
<totfact> 0.87613709E+04</totfact>
</mgrwt>
</event>
<event>
 5   1  0.1357339E+00  0.7632475E+02  0.7818608E-02  0.1339817E+00
         -1   -1    0    0    0  501 -0.00000000000E+00  0.00000000000E+00  0.12482948551E+02  0.12482949424E+02  0.46700000000E-02 0.  1.
          1   -1    0    0  501    0  0.00000000000E+00 -0.00000000000E+00 -0.11666850265E+03  0.11666850274E+03  0.46700000000E-02 0. -1.
         23    2    1    2    0    0  0.00000000000E+00  0.00000000000E+00 -0.10418555410E+03  0.12915145217E+03  0.76324752958E+02 0.  0.
        -11    1    3    3    0    0 -0.22073460280E+02 -0.14327189107E+02 -0.98859942673E+02  0.10230246459E+03  0.51100000000E-03 0. -1.
         11    1    3    3    0    0  0.22073460280E+02  0.14327189107E+02 -0.53256114272E+01  0.26848987575E+02  0.51100000000E-03 0.  1.
<mgrwt>
<rscale>  0 0.76324753E+02</rscale>
<asrwt>0</asrwt>
<pdfrwt beam="2">  1        1 0.17949000E-01 0.76324753E+02</pdfrwt>
<pdfrwt beam="1">  1       -1 0.19204538E-02 0.76324753E+02</pdfrwt>
<totfact> 0.17277626E+05</totfact>
</mgrwt>
</event>
<event>
 5   1  0.1357339E+00  0.9050901E+02  0.7818608E-02  0.1301624E+00
          1   -1    0    0  501    0  0.00000000000E+00  0.00000000000E+00  0.53494768217E+02  0.53494768421E+02  0.46700000000E-02 0. -1.
         -1   -1    0    0    0  501 -0.00000000000E+00 -0.00000000000E+00 -0.38283561601E+02  0.38283561885E+02  0.46700000000E-02 0.  1.
         23    2    1    2    0    0  0.00000000000E+00  0.00000000000E+00  0.15211206616E+02  0.91778330306E+02  0.90509011193E+02 0.  0.
        -11    1    3    3    0    0  0.41475011962E+02  0.18068833470E+02  0.87666129069E+01  0.46081589191E+02  0.51100000000E-03 0.  1.
         11    1    3    3    0    0 -0.41475011962E+02 -0.18068833470E+02  0.64445937094E+01  0.45696741115E+02  0.51100000000E-03 0. -1.
<mgrwt>
<rscale>  0 0.90509011E+02</rscale>
<asrwt>0</asrwt>
<pdfrwt beam="1">  1        1 0.82299644E-02 0.90509011E+02</pdfrwt>
<pdfrwt beam="2">  1       -1 0.58897787E-02 0.90509011E+02</pdfrwt>
<totfact> 0.96677741E+04</totfact>
</mgrwt>
</event>
<event>
 5   1  0.1357339E+00  0.9075146E+02  0.7818608E-02  0.1301042E+00
         -1   -1    0    0    0  501 -0.00000000000E+00  0.00000000000E+00  0.27730631321E+02  0.27730631714E+02  0.46700000000E-02 0.  1.
          1   -1    0    0  501    0  0.00000000000E+00 -0.00000000000E+00 -0.74248473231E+02  0.74248473378E+02  0.46700000000E-02 0. -1.
         23    2    1    2    0    0  0.00000000000E+00  0.00000000000E+00 -0.46517841911E+02  0.10197910509E+03  0.90751464227E+02 0.  0.
        -11    1    3    3    0    0 -0.36415270781E+02 -0.19185016502E+02 -0.17955945539E+01  0.41199040818E+02  0.51100000000E-03 0. -1.
         11    1    3    3    0    0  0.36415270781E+02  0.19185016502E+02 -0.44722247357E+02  0.60780064274E+02  0.51100000000E-03 0.  1.
<mgrwt>
<rscale>  0 0.90751464E+02</rscale>
<asrwt>0</asrwt>
<pdfrwt beam="2">  1        1 0.11422842E-01 0.90751464E+02</pdfrwt>
<pdfrwt beam="1">  1       -1 0.42662510E-02 0.90751464E+02</pdfrwt>
<totfact> 0.10086166E+05</totfact>
</mgrwt>
</event>
<event>
 5   1  0.1357339E+00  0.8977839E+02  0.7818608E-02  0.1303389E+00
          1   -1    0    0  501    0  0.00000000000E+00  0.00000000000E+00  0.56657491192E+02  0.56657491384E+02  0.46700000000E-02 0. -1.
         -1   -1    0    0    0  501 -0.00000000000E+00 -0.00000000000E+00 -0.35565287779E+02  0.35565288086E+02  0.46700000000E-02 0.  1.
         23    2    1    2    0    0  0.00000000000E+00  0.00000000000E+00  0.21092203413E+02  0.92222779470E+02  0.89778393884E+02 0.  0.
        -11    1    3    3    0    0 -0.25552103207E+02  0.36008440993E+02  0.22311331059E+01  0.44209679441E+02  0.51100000000E-03 0.  1.
         11    1    3    3    0    0  0.25552103207E+02 -0.36008440993E+02  0.18861070307E+02  0.48013100029E+02  0.51100000000E-03 0. -1.
<mgrwt>
<rscale>  0 0.89778394E+02</rscale>
<asrwt>0</asrwt>
<pdfrwt beam="1">  1        1 0.87165371E-02 0.89778394E+02</pdfrwt>
<pdfrwt beam="2">  1       -1 0.54715828E-02 0.89778394E+02</pdfrwt>
<totfact> 0.99727534E+04</totfact>
</mgrwt>
</event>
<event>
 5   1  0.1357339E+00  0.9029489E+02  0.7818608E-02  0.1302139E+00
         -1   -1    0    0    0  501 -0.00000000000E+00  0.00000000000E+00  0.94723255945E+01  0.94723267457E+01  0.46700000000E-02 0.  1.
          1   -1    0    0  501    0  0.00000000000E+00 -0.00000000000E+00 -0.21518388483E+03  0.21518388488E+03  0.46700000000E-02 0. -1.
         23    2    1    2    0    0  0.00000000000E+00  0.00000000000E+00 -0.20571155924E+03  0.22465621163E+03  0.90294893650E+02 0.  0.
        -11    1    3    3    0    0  0.42613461620E+02 -0.79803921466E+00 -0.65806047414E+02  0.78402677597E+02  0.51100000000E-03 0.  1.
         11    1    3    3    0    0 -0.42613461620E+02  0.79803921466E+00 -0.13990551182E+03  0.14625353403E+03  0.51100000000E-03 0. -1.
<mgrwt>
<rscale>  0 0.90294894E+02</rscale>
<asrwt>0</asrwt>
<pdfrwt beam="2">  1        1 0.33105209E-01 0.90294894E+02</pdfrwt>
<pdfrwt beam="1">  1       -1 0.14572811E-02 0.90294894E+02</pdfrwt>
<totfact> 0.12326797E+05</totfact>
</mgrwt>
</event>
<event>
 5   1  0.1357339E+00  0.8945722E+02  0.7818608E-02  0.1304171E+00
         -1   -1    0    0    0  501 -0.00000000000E+00  0.00000000000E+00  0.12341883997E+02  0.12341884881E+02  0.46700000000E-02 0.  1.
          1   -1    0    0  501    0  0.00000000000E+00 -0.00000000000E+00 -0.16210235529E+03  0.16210235536E+03  0.46700000000E-02 0. -1.
         23    2    1    2    0    0  0.00000000000E+00  0.00000000000E+00 -0.14976047129E+03  0.17444424024E+03  0.89457219890E+02 0.  0.
        -11    1    3    3    0    0  0.18451970012E+02  0.37021987894E+02 -0.10806202821E+03  0.11570870635E+03  0.51100000000E-03 0. -1.
         11    1    3    3    0    0 -0.18451970012E+02 -0.37021987894E+02 -0.41698443083E+02  0.58735533885E+02  0.51100000000E-03 0.  1.
<mgrwt>
<rscale>  0 0.89457220E+02</rscale>
<asrwt>0</asrwt>
<pdfrwt beam="2">  1        1 0.24938823E-01 0.89457220E+02</pdfrwt>
<pdfrwt beam="1">  1       -1 0.18987516E-02 0.89457220E+02</pdfrwt>
<totfact> 0.11973039E+05</totfact>
</mgrwt>
</event>
<event>
 5   1  0.1357339E+00  0.9182642E+02  0.7818608E-02  0.1298488E+00
         -1   -1    0    0    0  501 -0.00000000000E+00  0.00000000000E+00  0.18179355178E+03  0.18179355184E+03  0.46700000000E-02 0.  1.
          1   -1    0    0  501    0  0.00000000000E+00 -0.00000000000E+00 -0.11595697202E+02  0.11595698142E+02  0.46700000000E-02 0. -1.
         23    2    1    2    0    0  0.00000000000E+00  0.00000000000E+00  0.17019785458E+03  0.19338924998E+03  0.91826424878E+02 0.  0.
        -11    1    3    3    0    0 -0.63205116931E+01 -0.44199593514E+02  0.10763149904E+03  0.11652507250E+03  0.51100000000E-03 0.  1.
         11    1    3    3    0    0  0.63205116931E+01  0.44199593514E+02  0.62566355541E+02  0.76864177487E+02  0.51100000000E-03 0. -1.
<mgrwt>
<rscale>  0 0.91826425E+02</rscale>
<asrwt>0</asrwt>
<pdfrwt beam="2">  1        1 0.17839536E-02 0.91826425E+02</pdfrwt>
<pdfrwt beam="1">  1       -1 0.27968237E-01 0.91826425E+02</pdfrwt>
<totfact> 0.69974721E+04</totfact>
</mgrwt>
</event>
<event>
 5   1  0.1357339E+00  0.9866397E+02  0.7818608E-02  0.1283131E+00
         -1   -1    0    0    0  501 -0.00000000000E+00  0.00000000000E+00  0.99880024240E+01  0.99880035157E+01  0.46700000000E-02 0.  1.
          1   -1    0    0  501    0  0.00000000000E+00 -0.00000000000E+00 -0.24365680860E+03  0.24365680864E+03  0.46700000000E-02 0. -1.
         23    2    1    2    0    0  0.00000000000E+00  0.00000000000E+00 -0.23366880617E+03  0.25364481216E+03  0.98663973952E+02 0.  0.
        -11    1    3    3    0    0 -0.30408734813E+02  0.35622012688E+02 -0.77005667250E+02  0.90130415120E+02  0.51100000000E-03 0. -1.
         11    1    3    3    0    0  0.30408734813E+02 -0.35622012688E+02 -0.15666313892E+03  0.16351439704E+03  0.51100000000E-03 0.  1.
<mgrwt>
<rscale>  0 0.98663974E+02</rscale>
<asrwt>0</asrwt>
<pdfrwt beam="2">  1        1 0.37485659E-01 0.98663974E+02</pdfrwt>
<pdfrwt beam="1">  1       -1 0.15366160E-02 0.98663974E+02</pdfrwt>
<totfact> 0.99551331E+04</totfact>
</mgrwt>
</event>
<event>
 5   1  0.1357339E+00  0.9322030E+02  0.7818608E-02  0.1295235E+00
          1   -1    0    0  501    0  0.00000000000E+00  0.00000000000E+00  0.60616669612E+02  0.60616669792E+02  0.46700000000E-02 0. -1.
         -1   -1    0    0    0  501 -0.00000000000E+00 -0.00000000000E+00 -0.35840079932E+02  0.35840080236E+02  0.46700000000E-02 0.  1.
         23    2    1    2    0    0  0.00000000000E+00  0.00000000000E+00  0.24776589680E+02  0.96456750027E+02  0.93220304814E+02 0.  0.
        -11    1    3    3    0    0  0.16269107838E+02  0.12707339135E+02  0.55628450562E+02  0.59335359188E+02  0.51100000000E-03 0. -1.
         11    1    3    3    0    0 -0.16269107838E+02 -0.12707339135E+02 -0.30851860882E+02  0.37121390840E+02  0.51100000000E-03 0.  1.
<mgrwt>
<rscale>  0 0.93220305E+02</rscale>
<asrwt>0</asrwt>
<pdfrwt beam="1">  1        1 0.93256415E-02 0.93220305E+02</pdfrwt>
<pdfrwt beam="2">  1       -1 0.55138585E-02 0.93220305E+02</pdfrwt>
<totfact> 0.90752937E+04</totfact>
</mgrwt>
</event>
<event>
 5   1  0.1357339E+00  0.9045136E+02  0.7818608E-02  0.1301762E+00
         -1   -1    0    0    0  501 -0.00000000000E+00  0.00000000000E+00  0.62103656654E+01  0.62103674212E+01  0.46700000000E-02 0.  1.
          1   -1    0    0  501    0  0.00000000000E+00 -0.00000000000E+00 -0.32934647459E+03  0.32934647462E+03  0.46700000000E-02 0. -1.
         23    2    1    2    0    0  0.00000000000E+00  0.00000000000E+00 -0.32313610893E+03  0.33555684205E+03  0.90451364566E+02 0.  0.
        -11    1    3    3    0    0 -0.36832277571E+02  0.25068925026E+02 -0.19037454937E+03  0.19551863523E+03  0.51100000000E-03 0. -1.
         11    1    3    3    0    0  0.36832277571E+02 -0.25068925026E+02 -0.13276155956E+03  0.14003820682E+03  0.51100000000E-03 0.  1.
<mgrwt>
<rscale>  0 0.90451365E+02</rscale>
<asrwt>0</asrwt>
<pdfrwt beam="2">  1        1 0.50668675E-01 0.90451365E+02</pdfrwt>
<pdfrwt beam="1">  1       -1 0.95544127E-03 0.90451365E+02</pdfrwt>
<totfact> 0.13318490E+05</totfact>
</mgrwt>
</event>
<event>
 5   1  0.1357339E+00  0.9345468E+02  0.7818608E-02  0.1294695E+00
          1   -1    0    0  501    0  0.00000000000E+00  0.00000000000E+00  0.12471768108E+03  0.12471768117E+03  0.46700000000E-02 0. -1.
         -1   -1    0    0    0  501 -0.00000000000E+00 -0.00000000000E+00 -0.17507093784E+02  0.17507094407E+02  0.46700000000E-02 0.  1.
         23    2    1    2    0    0  0.00000000000E+00  0.00000000000E+00  0.10721058730E+03  0.14222477558E+03  0.93454677568E+02 0.  0.
        -11    1    3    3    0    0  0.44517408713E+02  0.92793925045E+01  0.37247094840E+02  0.58781399082E+02  0.51100000000E-03 0. -1.
         11    1    3    3    0    0 -0.44517408713E+02 -0.92793925045E+01  0.69963492460E+02  0.83443376497E+02  0.51100000000E-03 0.  1.
<mgrwt>
<rscale>  0 0.93454678E+02</rscale>
<asrwt>0</asrwt>
<pdfrwt beam="1">  1        1 0.19187335E-01 0.93454678E+02</pdfrwt>
<pdfrwt beam="2">  1       -1 0.26933992E-02 0.93454678E+02</pdfrwt>
<totfact> 0.10143715E+05</totfact>
</mgrwt>
</event>
<event>
 5   1  0.1357339E+00  0.9716146E+02  0.7818608E-02  0.1286381E+00
         -1   -1    0    0    0  501 -0.00000000000E+00  0.00000000000E+00  0.67880869685E+02  0.67880869846E+02  0.46700000000E-02 0.  1.
          1   -1    0    0  501    0  0.00000000000E+00 -0.00000000000E+00 -0.34768079717E+02  0.34768080031E+02  0.46700000000E-02 0. -1.
         23    2    1    2    0    0  0.00000000000E+00  0.00000000000E+00  0.33112789968E+02  0.10264894988E+03  0.97161463818E+02 0.  0.
        -11    1    3    3    0    0  0.45507886968E+02 -0.14978784847E+02  0.25057974076E+02  0.54066938482E+02  0.51100000000E-03 0.  1.
         11    1    3    3    0    0 -0.45507886968E+02  0.14978784847E+02  0.80548158922E+01  0.48582011394E+02  0.51100000000E-03 0. -1.
<mgrwt>
<rscale>  0 0.97161464E+02</rscale>
<asrwt>0</asrwt>
<pdfrwt beam="2">  1        1 0.53489354E-02 0.97161464E+02</pdfrwt>
<pdfrwt beam="1">  1       -1 0.10443211E-01 0.97161464E+02</pdfrwt>
<totfact> 0.73955789E+04</totfact>
</mgrwt>
</event>
<event>
 5   1  0.1357339E+00  0.8983028E+02  0.7818608E-02  0.1303263E+00
          1   -1    0    0  501    0  0.00000000000E+00  0.00000000000E+00  0.82349846701E+02  0.82349846834E+02  0.46700000000E-02 0. -1.
         -1   -1    0    0    0  501 -0.00000000000E+00 -0.00000000000E+00 -0.24497553520E+02  0.24497553966E+02  0.46700000000E-02 0.  1.
         23    2    1    2    0    0  0.00000000000E+00  0.00000000000E+00  0.57852293181E+02  0.10684740080E+03  0.89830280147E+02 0.  0.
        -11    1    3    3    0    0  0.35714115201E+02 -0.25477246988E+02  0.17469110063E+02  0.47220312847E+02  0.51100000000E-03 0.  1.
         11    1    3    3    0    0 -0.35714115201E+02  0.25477246988E+02  0.40383183118E+02  0.59627087952E+02  0.51100000000E-03 0. -1.
<mgrwt>
<rscale>  0 0.89830280E+02</rscale>
<asrwt>0</asrwt>
<pdfrwt beam="1">  1        1 0.12669207E-01 0.89830280E+02</pdfrwt>
<pdfrwt beam="2">  1       -1 0.37688545E-02 0.89830280E+02</pdfrwt>
<totfact> 0.10541398E+05</totfact>
</mgrwt>
</event>
<event>
 5   1  0.1357339E+00  0.5757500E+02  0.7818608E-02  0.1408300E+00
         -1   -1    0    0    0  501 -0.00000000000E+00  0.00000000000E+00  0.54631015182E+02  0.54631015382E+02  0.46700000000E-02 0.  1.
          1   -1    0    0  501    0  0.00000000000E+00 -0.00000000000E+00 -0.15169407346E+02  0.15169408065E+02  0.46700000000E-02 0. -1.
         23    2    1    2    0    0  0.00000000000E+00  0.00000000000E+00  0.39461607836E+02  0.69800423447E+02  0.57574999960E+02 0.  0.
        -11    1    3    3    0    0 -0.24369499168E+02  0.67650550002E+01  0.36401312734E+02  0.44324869180E+02  0.51100000000E-03 0. -1.
         11    1    3    3    0    0  0.24369499168E+02 -0.67650550002E+01  0.30602951022E+01  0.25475554267E+02  0.51100000000E-03 0.  1.
<mgrwt>
<rscale>  0 0.57575000E+02</rscale>
<asrwt>0</asrwt>
<pdfrwt beam="2">  1        1 0.23337551E-02 0.57575000E+02</pdfrwt>
<pdfrwt beam="1">  1       -1 0.84047715E-02 0.57575000E+02</pdfrwt>
<totfact> 0.28543297E+05</totfact>
</mgrwt>
</event>
<event>
 5   1  0.1357339E+00  0.9111349E+02  0.7818608E-02  0.1300177E+00
         -1   -1    0    0    0  501 -0.00000000000E+00  0.00000000000E+00  0.23690328132E+02  0.23690328592E+02  0.46700000000E-02 0.  1.
          1   -1    0    0  501    0  0.00000000000E+00 -0.00000000000E+00 -0.87606084423E+02  0.87606084548E+02  0.46700000000E-02 0. -1.
         23    2    1    2    0    0  0.00000000000E+00  0.00000000000E+00 -0.63915756291E+02  0.11129641314E+03  0.91113487890E+02 0.  0.
        -11    1    3    3    0    0  0.24578739764E+02  0.35678298229E+02 -0.14753966868E+02  0.45768274509E+02  0.51100000000E-03 0.  1.
         11    1    3    3    0    0 -0.24578739764E+02 -0.35678298229E+02 -0.49161789423E+02  0.65528138631E+02  0.51100000000E-03 0. -1.
<mgrwt>
<rscale>  0 0.91113488E+02</rscale>
<asrwt>0</asrwt>
<pdfrwt beam="2">  1        1 0.13477859E-01 0.91113488E+02</pdfrwt>
<pdfrwt beam="1">  1       -1 0.36446660E-02 0.91113488E+02</pdfrwt>
<totfact> 0.10240872E+05</totfact>
</mgrwt>
</event>
<event>
 5   1  0.1357339E+00  0.9067619E+02  0.7818608E-02  0.1301222E+00
         -1   -1    0    0    0  501 -0.00000000000E+00  0.00000000000E+00  0.10425278758E+02  0.10425279804E+02  0.46700000000E-02 0.  1.
          1   -1    0    0  501    0  0.00000000000E+00 -0.00000000000E+00 -0.19716911146E+03  0.19716911152E+03  0.46700000000E-02 0. -1.
         23    2    1    2    0    0  0.00000000000E+00  0.00000000000E+00 -0.18674383271E+03  0.20759439132E+03  0.90676194534E+02 0.  0.
        -11    1    3    3    0    0  0.11775408826E+02  0.41737598359E+02 -0.12364538748E+03  0.13103003173E+03  0.51100000000E-03 0. -1.
         11    1    3    3    0    0 -0.11775408826E+02 -0.41737598359E+02 -0.63098445228E+02  0.76564359595E+02  0.51100000000E-03 0.  1.
<mgrwt>
<rscale>  0 0.90676195E+02</rscale>
<asrwt>0</asrwt>
<pdfrwt beam="2">  1        1 0.30333707E-01 0.90676195E+02</pdfrwt>
<pdfrwt beam="1">  1       -1 0.16038893E-02 0.90676195E+02</pdfrwt>
<totfact> 0.11983522E+05</totfact>
</mgrwt>
</event>
<event>
 5   1  0.1357339E+00  0.9077362E+02  0.7818608E-02  0.1300989E+00
         -1   -1    0    0    0  501 -0.00000000000E+00  0.00000000000E+00  0.42572304423E+02  0.42572304679E+02  0.46700000000E-02 0.  1.
          1   -1    0    0  501    0  0.00000000000E+00 -0.00000000000E+00 -0.48387384776E+02  0.48387385002E+02  0.46700000000E-02 0. -1.
         23    2    1    2    0    0  0.00000000000E+00  0.00000000000E+00 -0.58150803532E+01  0.90959689681E+02  0.90773619446E+02 0.  0.
        -11    1    3    3    0    0 -0.98104800100E+01  0.15068126102E+02 -0.44666318803E+02  0.48149496134E+02  0.51100000000E-03 0. -1.
         11    1    3    3    0    0  0.98104800100E+01 -0.15068126102E+02  0.38851238450E+02  0.42810193548E+02  0.51100000000E-03 0.  1.
<mgrwt>
<rscale>  0 0.90773619E+02</rscale>
<asrwt>0</asrwt>
<pdfrwt beam="2">  1        1 0.74442131E-02 0.90773619E+02</pdfrwt>
<pdfrwt beam="1">  1       -1 0.65495853E-02 0.90773619E+02</pdfrwt>
<totfact> 0.94467736E+04</totfact>
</mgrwt>
</event>
<event>
 5   1  0.1357339E+00  0.9293733E+02  0.7818608E-02  0.1295890E+00
          1   -1    0    0  501    0  0.00000000000E+00  0.00000000000E+00  0.13801888901E+02  0.13801889692E+02  0.46700000000E-02 0. -1.
         -1   -1    0    0    0  501 -0.00000000000E+00 -0.00000000000E+00 -0.15645226455E+03  0.15645226462E+03  0.46700000000E-02 0.  1.
         23    2    1    2    0    0  0.00000000000E+00  0.00000000000E+00 -0.14265037565E+03  0.17025415431E+03  0.92937330430E+02 0.  0.
        -11    1    3    3    0    0 -0.43723917449E+02 -0.54713592122E+01 -0.98349649083E+02  0.10776998749E+03  0.51100000000E-03 0.  1.
         11    1    3    3    0    0  0.43723917449E+02  0.54713592122E+01 -0.44300726564E+02  0.62484166819E+02  0.51100000000E-03 0. -1.
<mgrwt>
<rscale>  0 0.92937330E+02</rscale>
<asrwt>0</asrwt>
<pdfrwt beam="1">  1        1 0.21233677E-02 0.92937330E+02</pdfrwt>
<pdfrwt beam="2">  1       -1 0.24069578E-01 0.92937330E+02</pdfrwt>
<totfact> 0.70451915E+04</totfact>
</mgrwt>
</event>
<event>
 5   1  0.1357339E+00  0.8929595E+02  0.7818608E-02  0.1304566E+00
          1   -1    0    0  501    0  0.00000000000E+00  0.00000000000E+00  0.14807134897E+02  0.14807135633E+02  0.46700000000E-02 0. -1.
         -1   -1    0    0    0  501 -0.00000000000E+00 -0.00000000000E+00 -0.13462711255E+03  0.13462711263E+03  0.46700000000E-02 0.  1.
         23    2    1    2    0    0  0.00000000000E+00  0.00000000000E+00 -0.11981997765E+03  0.14943424826E+03  0.89295954607E+02 0.  0.
        -11    1    3    3    0    0  0.40125104083E+02 -0.25133482181E+01 -0.92407282069E+02  0.10077423617E+03  0.51100000000E-03 0.  1.
         11    1    3    3    0    0 -0.40125104083E+02  0.25133482181E+01 -0.27412695580E+02  0.48660012085E+02  0.51100000000E-03 0. -1.
<mgrwt>
<rscale>  0 0.89295955E+02</rscale>
<asrwt>0</asrwt>
<pdfrwt beam="1">  1        1 0.22780209E-02 0.89295955E+02</pdfrwt>
<pdfrwt beam="2">  1       -1 0.20711863E-01 0.89295955E+02</pdfrwt>
<totfact> 0.80888995E+04</totfact>
</mgrwt>
</event>
<event>
 5   1  0.1357339E+00  0.8651662E+02  0.7818608E-02  0.1311513E+00
         -1   -1    0    0    0  501 -0.00000000000E+00  0.00000000000E+00  0.85734408525E+02  0.85734408652E+02  0.46700000000E-02 0.  1.
          1   -1    0    0  501    0  0.00000000000E+00 -0.00000000000E+00 -0.21826490556E+02  0.21826491056E+02  0.46700000000E-02 0. -1.
         23    2    1    2    0    0  0.00000000000E+00  0.00000000000E+00  0.63907917968E+02  0.10756089971E+03  0.86516617866E+02 0.  0.
        -11    1    3    3    0    0 -0.38843720982E+02  0.18721617043E+02  0.36251270250E+02  0.56333721690E+02  0.51100000000E-03 0.  1.
         11    1    3    3    0    0  0.38843720982E+02 -0.18721617043E+02  0.27656647718E+02  0.51227178018E+02  0.51100000000E-03 0. -1.
<mgrwt>
<rscale>  0 0.86516618E+02</rscale>
<asrwt>0</asrwt>
<pdfrwt beam="2">  1        1 0.33579217E-02 0.86516618E+02</pdfrwt>
<pdfrwt beam="1">  1       -1 0.13189909E-01 0.86516618E+02</pdfrwt>
<totfact> 0.95681612E+04</totfact>
</mgrwt>
</event>
<event>
 5   1  0.1357339E+00  0.9258932E+02  0.7818608E-02  0.1296700E+00
         -1   -1    0    0    0  501 -0.00000000000E+00  0.00000000000E+00  0.12865518228E+02  0.12865519075E+02  0.46700000000E-02 0.  1.
          1   -1    0    0  501    0  0.00000000000E+00 -0.00000000000E+00 -0.16658446545E+03  0.16658446551E+03  0.46700000000E-02 0. -1.
         23    2    1    2    0    0  0.00000000000E+00  0.00000000000E+00 -0.15371894722E+03  0.17944998459E+03  0.92589320305E+02 0.  0.
        -11    1    3    3    0    0 -0.34648827797E+02  0.29730961874E+02 -0.62007263934E+02  0.77002416472E+02  0.51100000000E-03 0. -1.
         11    1    3    3    0    0  0.34648827797E+02 -0.29730961874E+02 -0.91711683286E+02  0.10244756812E+03  0.51100000000E-03 0.  1.
<mgrwt>
<rscale>  0 0.92589320E+02</rscale>
<asrwt>0</asrwt>
<pdfrwt beam="2">  1        1 0.25628378E-01 0.92589320E+02</pdfrwt>
<pdfrwt beam="1">  1       -1 0.19793107E-02 0.92589320E+02</pdfrwt>
<totfact> 0.10969677E+05</totfact>
</mgrwt>
</event>
<event>
 5   1  0.1357339E+00  0.9152567E+02  0.7818608E-02  0.1299199E+00
         -1   -1    0    0    0  501 -0.00000000000E+00  0.00000000000E+00  0.70175284593E+02  0.70175284748E+02  0.46700000000E-02 0.  1.
          1   -1    0    0  501    0  0.00000000000E+00 -0.00000000000E+00 -0.29842945554E+02  0.29842945920E+02  0.46700000000E-02 0. -1.
         23    2    1    2    0    0  0.00000000000E+00  0.00000000000E+00  0.40332339038E+02  0.10001823067E+03  0.91525673413E+02 0.  0.
        -11    1    3    3    0    0  0.41983002716E+02  0.94284859135E+01  0.31393992505E+01  0.43143072348E+02  0.51100000000E-03 0. -1.
         11    1    3    3    0    0 -0.41983002716E+02 -0.94284859135E+01  0.37192939788E+02  0.56875158321E+02  0.51100000000E-03 0.  1.
<mgrwt>
<rscale>  0 0.91525673E+02</rscale>
<asrwt>0</asrwt>
<pdfrwt beam="2">  1        1 0.45912224E-02 0.91525673E+02</pdfrwt>
<pdfrwt beam="1">  1       -1 0.10796198E-01 0.91525673E+02</pdfrwt>
<totfact> 0.85665243E+04</totfact>
</mgrwt>
</event>
<event>
 5   1  0.1357339E+00  0.9513038E+02  0.7818608E-02  0.1290883E+00
         -1   -1    0    0    0  501 -0.00000000000E+00  0.00000000000E+00  0.66657480374E+02  0.66657480538E+02  0.46700000000E-02 0.  1.
          1   -1    0    0  501    0  0.00000000000E+00 -0.00000000000E+00 -0.33941386870E+02  0.33941387192E+02  0.46700000000E-02 0. -1.
         23    2    1    2    0    0  0.00000000000E+00  0.00000000000E+00  0.32716093504E+02  0.10059886773E+03  0.95130381132E+02 0.  0.
        -11    1    3    3    0    0 -0.20512883313E+01 -0.42042706498E+02  0.39781986078E+02  0.57917211346E+02  0.51100000000E-03 0.  1.
         11    1    3    3    0    0  0.20512883313E+01  0.42042706498E+02 -0.70658925746E+01  0.42681656383E+02  0.51100000000E-03 0. -1.
<mgrwt>
<rscale>  0 0.95130381E+02</rscale>
<asrwt>0</asrwt>
<pdfrwt beam="2">  1        1 0.52217519E-02 0.95130381E+02</pdfrwt>
<pdfrwt beam="1">  1       -1 0.10254997E-01 0.95130381E+02</pdfrwt>
<totfact> 0.78281074E+04</totfact>
</mgrwt>
</event>
<event>
 5   1  0.1357339E+00  0.9253484E+02  0.7818608E-02  0.1296827E+00
          1   -1    0    0  501    0  0.00000000000E+00  0.00000000000E+00  0.14896258737E+03  0.14896258744E+03  0.46700000000E-02 0. -1.
         -1   -1    0    0    0  501 -0.00000000000E+00 -0.00000000000E+00 -0.14370548055E+02  0.14370548813E+02  0.46700000000E-02 0.  1.
         23    2    1    2    0    0  0.00000000000E+00  0.00000000000E+00  0.13459203932E+03  0.16333313626E+03  0.92534838587E+02 0.  0.
        -11    1    3    3    0    0  0.25184865155E+02 -0.14781551240E+02  0.13064075201E+03  0.13386477421E+03  0.51100000000E-03 0. -1.
         11    1    3    3    0    0 -0.25184865155E+02  0.14781551240E+02  0.39512873099E+01  0.29468362045E+02  0.51100000000E-03 0.  1.
<mgrwt>
<rscale>  0 0.92534839E+02</rscale>
<asrwt>0</asrwt>
<pdfrwt beam="1">  1        1 0.22917320E-01 0.92534839E+02</pdfrwt>
<pdfrwt beam="2">  1       -1 0.22108537E-02 0.92534839E+02</pdfrwt>
<totfact> 0.10760303E+05</totfact>
</mgrwt>
</event>
<event>
 5   1  0.1357339E+00  0.8603275E+02  0.7818608E-02  0.1312754E+00
          1   -1    0    0  501    0  0.00000000000E+00  0.00000000000E+00  0.51023925354E+02  0.51023925567E+02  0.46700000000E-02 0. -1.
         -1   -1    0    0    0  501 -0.00000000000E+00 -0.00000000000E+00 -0.36265508824E+02  0.36265509125E+02  0.46700000000E-02 0.  1.
         23    2    1    2    0    0  0.00000000000E+00  0.00000000000E+00  0.14758416530E+02  0.87289434692E+02  0.86032752777E+02 0.  0.
        -11    1    3    3    0    0 -0.33831162345E+01 -0.15600730259E+02  0.47907397946E+02  0.50497000290E+02  0.51100000000E-03 0. -1.
         11    1    3    3    0    0  0.33831162345E+01  0.15600730259E+02 -0.33148981416E+02  0.36792434402E+02  0.51100000000E-03 0.  1.
<mgrwt>
<rscale>  0 0.86032753E+02</rscale>
<asrwt>0</asrwt>
<pdfrwt beam="1">  1        1 0.78498347E-02 0.86032753E+02</pdfrwt>
<pdfrwt beam="2">  1       -1 0.55793091E-02 0.86032753E+02</pdfrwt>
<totfact> 0.11051149E+05</totfact>
</mgrwt>
</event>
<event>
 5   1  0.1357339E+00  0.1047221E+03  0.7818608E-02  0.1270668E+00
          1   -1    0    0  501    0  0.00000000000E+00  0.00000000000E+00  0.27907556575E+02  0.27907556966E+02  0.46700000000E-02 0. -1.
         -1   -1    0    0    0  501 -0.00000000000E+00 -0.00000000000E+00 -0.98241455014E+02  0.98241455125E+02  0.46700000000E-02 0.  1.
         23    2    1    2    0    0  0.00000000000E+00  0.00000000000E+00 -0.70333898439E+02  0.12614901209E+03  0.10472208927E+03 0.  0.
        -11    1    3    3    0    0 -0.15144314797E+02  0.42648177613E+02 -0.66888673538E+02  0.80760831920E+02  0.51100000000E-03 0.  1.
         11    1    3    3    0    0  0.15144314797E+02 -0.42648177613E+02 -0.34452249007E+01  0.45388180172E+02  0.51100000000E-03 0. -1.
<mgrwt>
<rscale>  0 0.10472209E+03</rscale>
<asrwt>0</asrwt>
<pdfrwt beam="1">  1        1 0.42934703E-02 0.10472209E+03</pdfrwt>
<pdfrwt beam="2">  1       -1 0.15114070E-01 0.10472209E+03</pdfrwt>
<totfact> 0.57108737E+04</totfact>
</mgrwt>
</event>
<event>
 5   1  0.1357339E+00  0.9470535E+02  0.7818608E-02  0.1291841E+00
          1   -1    0    0  501    0  0.00000000000E+00  0.00000000000E+00  0.37399083008E+02  0.37399083299E+02  0.46700000000E-02 0. -1.
         -1   -1    0    0    0  501 -0.00000000000E+00 -0.00000000000E+00 -0.59955370465E+02  0.59955370647E+02  0.46700000000E-02 0.  1.
         23    2    1    2    0    0  0.00000000000E+00  0.00000000000E+00 -0.22556287457E+02  0.97354453946E+02  0.94705351482E+02 0.  0.
        -11    1    3    3    0    0  0.90246486290E+01 -0.36237665873E+02 -0.41207196139E+02  0.55611561070E+02  0.51100000000E-03 0.  1.
         11    1    3    3    0    0 -0.90246486290E+01  0.36237665873E+02  0.18650908682E+02  0.41742892876E+02  0.51100000000E-03 0. -1.
<mgrwt>
<rscale>  0 0.94705351E+02</rscale>
<asrwt>0</asrwt>
<pdfrwt beam="1">  1        1 0.57537051E-02 0.94705351E+02</pdfrwt>
<pdfrwt beam="2">  1       -1 0.92239032E-02 0.94705351E+02</pdfrwt>
<totfact> 0.80543386E+04</totfact>
</mgrwt>
</event>
<event>
 5   1  0.1357339E+00  0.8997079E+02  0.7818608E-02  0.1302922E+00
         -1   -1    0    0    0  501 -0.00000000000E+00  0.00000000000E+00  0.10897961767E+03  0.10897961777E+03  0.46700000000E-02 0.  1.
          1   -1    0    0  501    0  0.00000000000E+00 -0.00000000000E+00 -0.18569397802E+02  0.18569398389E+02  0.46700000000E-02 0. -1.
         23    2    1    2    0    0  0.00000000000E+00  0.00000000000E+00  0.90410219870E+02  0.12754901616E+03  0.89970793408E+02 0.  0.
        -11    1    3    3    0    0 -0.27256168190E+02  0.36127885128E+01  0.95681675540E+02  0.99553673863E+02  0.51100000000E-03 0.  1.
         11    1    3    3    0    0  0.27256168190E+02 -0.36127885128E+01 -0.52714556693E+01  0.27995342298E+02  0.51100000000E-03 0. -1.
<mgrwt>
<rscale>  0 0.89970793E+02</rscale>
<asrwt>0</asrwt>
<pdfrwt beam="2">  1        1 0.28568305E-02 0.89970793E+02</pdfrwt>
<pdfrwt beam="1">  1       -1 0.16766095E-01 0.89970793E+02</pdfrwt>
<totfact> 0.82847478E+04</totfact>
</mgrwt>
</event>
<event>
 5   1  0.1357339E+00  0.9413079E+02  0.7818608E-02  0.1293146E+00
          1   -1    0    0  501    0  0.00000000000E+00  0.00000000000E+00  0.11232364936E+03  0.11232364946E+03  0.46700000000E-02 0. -1.
         -1   -1    0    0    0  501 -0.00000000000E+00 -0.00000000000E+00 -0.19721147866E+02  0.19721148419E+02  0.46700000000E-02 0.  1.
         23    2    1    2    0    0  0.00000000000E+00  0.00000000000E+00  0.92602501493E+02  0.13204479788E+03  0.94130788604E+02 0.  0.
        -11    1    3    3    0    0 -0.41389009704E+02  0.13224763151E+01  0.14923086109E+02  0.44017014519E+02  0.51100000000E-03 0. -1.
         11    1    3    3    0    0  0.41389009704E+02 -0.13224763151E+01  0.77679415384E+02  0.88027783356E+02  0.51100000000E-03 0.  1.
<mgrwt>
<rscale>  0 0.94130789E+02</rscale>
<asrwt>0</asrwt>
<pdfrwt beam="1">  1        1 0.17280562E-01 0.94130789E+02</pdfrwt>
<pdfrwt beam="2">  1       -1 0.30340227E-02 0.94130789E+02</pdfrwt>
<totfact> 0.97654798E+04</totfact>
</mgrwt>
</event>
<event>
 5   1  0.1357339E+00  0.9363744E+02  0.7818608E-02  0.1294275E+00
          1   -1    0    0  501    0  0.00000000000E+00  0.00000000000E+00  0.81755601826E+01  0.81755615164E+01  0.46700000000E-02 0. -1.
         -1   -1    0    0    0  501 -0.00000000000E+00 -0.00000000000E+00 -0.26811526738E+03  0.26811526742E+03  0.46700000000E-02 0.  1.
         23    2    1    2    0    0  0.00000000000E+00  0.00000000000E+00 -0.25993970719E+03  0.27629082893E+03  0.93637443241E+02 0.  0.
        -11    1    3    3    0    0  0.37690343622E+02  0.15231461010E+00 -0.21192171999E+03  0.21524730104E+03  0.51100000000E-03 0.  1.
         11    1    3    3    0    0 -0.37690343622E+02 -0.15231461010E+00 -0.48017987206E+02  0.61043527894E+02  0.51100000000E-03 0. -1.
<mgrwt>
<rscale>  0 0.93637443E+02</rscale>
<asrwt>0</asrwt>
<pdfrwt beam="1">  1        1 0.12577788E-02 0.93637443E+02</pdfrwt>
<pdfrwt beam="2">  1       -1 0.41248496E-01 0.93637443E+02</pdfrwt>
<totfact> 0.58948030E+04</totfact>
</mgrwt>
</event>
<event>
 5   1  0.1357339E+00  0.9183012E+02  0.7818608E-02  0.1298479E+00
          1   -1    0    0  501    0  0.00000000000E+00  0.00000000000E+00  0.27950659962E+03  0.27950659966E+03  0.46700000000E-02 0. -1.
         -1   -1    0    0    0  501 -0.00000000000E+00 -0.00000000000E+00 -0.75425501912E+01  0.75425516369E+01  0.46700000000E-02 0.  1.
         23    2    1    2    0    0  0.00000000000E+00  0.00000000000E+00  0.27196404943E+03  0.28704915130E+03  0.91830120756E+02 0.  0.
        -11    1    3    3    0    0  0.34818546479E+02  0.14515219901E+02  0.21780405950E+03  0.22104667182E+03  0.51100000000E-03 0. -1.
         11    1    3    3    0    0 -0.34818546479E+02 -0.14515219901E+02  0.54159989932E+02  0.66002479480E+02  0.51100000000E-03 0.  1.
<mgrwt>
<rscale>  0 0.91830121E+02</rscale>
<asrwt>0</asrwt>
<pdfrwt beam="1">  1        1 0.43001013E-01 0.91830121E+02</pdfrwt>
<pdfrwt beam="2">  1       -1 0.11603925E-02 0.91830121E+02</pdfrwt>
<totfact> 0.12400353E+05</totfact>
</mgrwt>
</event>
<event>
 5   1  0.1357339E+00  0.8489947E+02  0.7818608E-02  0.1315696E+00
         -1   -1    0    0    0  501 -0.00000000000E+00  0.00000000000E+00  0.34933497842E+02  0.34933498154E+02  0.46700000000E-02 0.  1.
          1   -1    0    0  501    0  0.00000000000E+00 -0.00000000000E+00 -0.51583156427E+02  0.51583156639E+02  0.46700000000E-02 0. -1.
         23    2    1    2    0    0  0.00000000000E+00  0.00000000000E+00 -0.16649658586E+02  0.86516654793E+02  0.84899472469E+02 0.  0.
        -11    1    3    3    0    0 -0.46329079791E+00  0.21690394541E+02 -0.45506716532E+02  0.50413778906E+02  0.51100000000E-03 0. -1.
         11    1    3    3    0    0  0.46329079791E+00 -0.21690394541E+02  0.28857057947E+02  0.36102875887E+02  0.51100000000E-03 0.  1.
<mgrwt>
<rscale>  0 0.84899472E+02</rscale>
<asrwt>0</asrwt>
<pdfrwt beam="2">  1        1 0.79358702E-02 0.84899472E+02</pdfrwt>
<pdfrwt beam="1">  1       -1 0.53743843E-02 0.84899472E+02</pdfrwt>
<totfact> 0.11481220E+05</totfact>
</mgrwt>
</event>
<event>
 5   1  0.1357339E+00  0.8764465E+02  0.7818608E-02  0.1308658E+00
         -1   -1    0    0    0  501 -0.00000000000E+00  0.00000000000E+00  0.21334332790E+02  0.21334333301E+02  0.46700000000E-02 0.  1.
          1   -1    0    0  501    0  0.00000000000E+00 -0.00000000000E+00 -0.90014344725E+02  0.90014344846E+02  0.46700000000E-02 0. -1.
         23    2    1    2    0    0  0.00000000000E+00  0.00000000000E+00 -0.68680011935E+02  0.11134867815E+03  0.87644646645E+02 0.  0.
        -11    1    3    3    0    0 -0.20413102984E+02  0.18492440257E+02 -0.77642453286E+02  0.82383345845E+02  0.51100000000E-03 0. -1.
         11    1    3    3    0    0  0.20413102984E+02 -0.18492440257E+02  0.89624413511E+01  0.28965332301E+02  0.51100000000E-03 0.  1.
<mgrwt>
<rscale>  0 0.87644647E+02</rscale>
<asrwt>0</asrwt>
<pdfrwt beam="2">  1        1 0.13848361E-01 0.87644647E+02</pdfrwt>
<pdfrwt beam="1">  1       -1 0.32822052E-02 0.87644647E+02</pdfrwt>
<totfact> 0.11433416E+05</totfact>
</mgrwt>
</event>
<event>
 5   1  0.1357339E+00  0.9172793E+02  0.7818608E-02  0.1298720E+00
         -1   -1    0    0    0  501 -0.00000000000E+00  0.00000000000E+00  0.36773623835E+03  0.36773623838E+03  0.46700000000E-02 0.  1.
          1   -1    0    0  501    0  0.00000000000E+00 -0.00000000000E+00 -0.57201410472E+01  0.57201429535E+01  0.46700000000E-02 0. -1.
         23    2    1    2    0    0  0.00000000000E+00  0.00000000000E+00  0.36201609730E+03  0.37345638134E+03  0.91727934961E+02 0.  0.
        -11    1    3    3    0    0 -0.34818085174E+02 -0.27496267058E+02  0.22834082367E+03  0.23261099611E+03  0.51100000000E-03 0.  1.
         11    1    3    3    0    0  0.34818085174E+02  0.27496267058E+02  0.13367527364E+03  0.14084538523E+03  0.51100000000E-03 0. -1.
<mgrwt>
<rscale>  0 0.91727935E+02</rscale>
<asrwt>0</asrwt>
<pdfrwt beam="2">  1        1 0.88002166E-03 0.91727935E+02</pdfrwt>
<pdfrwt beam="1">  1       -1 0.56574818E-01 0.91727935E+02</pdfrwt>
<totfact> 0.54646644E+04</totfact>
</mgrwt>
</event>
<event>
 5   1  0.1357339E+00  0.9184673E+02  0.7818608E-02  0.1298440E+00
          1   -1    0    0  501    0  0.00000000000E+00  0.00000000000E+00  0.66105020172E+02  0.66105020337E+02  0.46700000000E-02 0. -1.
         -1   -1    0    0    0  501 -0.00000000000E+00 -0.00000000000E+00 -0.31903104463E+02  0.31903104805E+02  0.46700000000E-02 0.  1.
         23    2    1    2    0    0  0.00000000000E+00  0.00000000000E+00  0.34201915708E+02  0.98008125142E+02  0.91846728606E+02 0.  0.
        -11    1    3    3    0    0  0.25301307980E+02 -0.23337231493E+02  0.49540520266E+02  0.60324503377E+02  0.51100000000E-03 0. -1.
         11    1    3    3    0    0 -0.25301307980E+02  0.23337231493E+02 -0.15338604557E+02  0.37683621764E+02  0.51100000000E-03 0.  1.
<mgrwt>
<rscale>  0 0.91846729E+02</rscale>
<asrwt>0</asrwt>
<pdfrwt beam="1">  1        1 0.10170003E-01 0.91846729E+02</pdfrwt>
<pdfrwt beam="2">  1       -1 0.49081700E-02 0.91846729E+02</pdfrwt>
<totfact> 0.95840978E+04</totfact>
</mgrwt>
</event>
<event>
 5   1  0.1357339E+00  0.1019067E+03  0.7818608E-02  0.1276337E+00
          1   -1    0    0  501    0  0.00000000000E+00  0.00000000000E+00  0.15603969484E+02  0.15603970183E+02  0.46700000000E-02 0. -1.
         -1   -1    0    0    0  501 -0.00000000000E+00 -0.00000000000E+00 -0.16638370544E+03  0.16638370551E+03  0.46700000000E-02 0.  1.
         23    2    1    2    0    0  0.00000000000E+00  0.00000000000E+00 -0.15077973596E+03  0.18198767569E+03  0.10190674819E+03 0.  0.
        -11    1    3    3    0    0  0.39973744740E+02  0.31527055497E+02 -0.79131943782E+02  0.94094208238E+02  0.51100000000E-03 0.  1.
         11    1    3    3    0    0 -0.39973744740E+02 -0.31527055497E+02 -0.71647792175E+02  0.87893467452E+02  0.51100000000E-03 0. -1.
<mgrwt>
<rscale>  0 0.10190675E+03</rscale>
<asrwt>0</asrwt>
<pdfrwt beam="1">  1        1 0.24006109E-02 0.10190675E+03</pdfrwt>
<pdfrwt beam="2">  1       -1 0.25597492E-01 0.10190675E+03</pdfrwt>
<totfact> 0.54564710E+04</totfact>
</mgrwt>
</event>
<event>
 5   1  0.1357339E+00  0.9121127E+02  0.7818608E-02  0.1299945E+00
         -1   -1    0    0    0  501 -0.00000000000E+00  0.00000000000E+00  0.12231278440E+02  0.12231279332E+02  0.46700000000E-02 0.  1.
          1   -1    0    0  501    0  0.00000000000E+00 -0.00000000000E+00 -0.17004550896E+03  0.17004550902E+03  0.46700000000E-02 0. -1.
         23    2    1    2    0    0  0.00000000000E+00  0.00000000000E+00 -0.15781423052E+03  0.18227678835E+03  0.91211272432E+02 0.  0.
        -11    1    3    3    0    0  0.28055095314E+02 -0.27221107090E+02 -0.31963933205E+02  0.50495247999E+02  0.51100000000E-03 0.  1.
         11    1    3    3    0    0 -0.28055095314E+02  0.27221107090E+02 -0.12585029731E+03  0.13178154035E+03  0.51100000000E-03 0. -1.
<mgrwt>
<rscale>  0 0.91211272E+02</rscale>
<asrwt>0</asrwt>
<pdfrwt beam="2">  1        1 0.26160846E-01 0.91211272E+02</pdfrwt>
<pdfrwt beam="1">  1       -1 0.18817353E-02 0.91211272E+02</pdfrwt>
<totfact> 0.11466466E+05</totfact>
</mgrwt>
</event>
<event>
 5   1  0.1357339E+00  0.9192508E+02  0.7818608E-02  0.1298256E+00
          1   -1    0    0  501    0  0.00000000000E+00  0.00000000000E+00  0.92638726807E+01  0.92638738578E+01  0.46700000000E-02 0. -1.
         -1   -1    0    0    0  501 -0.00000000000E+00 -0.00000000000E+00 -0.22804231916E+03  0.22804231920E+03  0.46700000000E-02 0.  1.
         23    2    1    2    0    0  0.00000000000E+00  0.00000000000E+00 -0.21877844648E+03  0.23730619306E+03  0.91925081579E+02 0.  0.
        -11    1    3    3    0    0  0.31351414157E+02  0.15787318460E+02 -0.18598700457E+03  0.18927048493E+03  0.51100000000E-03 0.  1.
         11    1    3    3    0    0 -0.31351414157E+02 -0.15787318460E+02 -0.32791441901E+02  0.48035708135E+02  0.51100000000E-03 0. -1.
<mgrwt>
<rscale>  0 0.91925082E+02</rscale>
<asrwt>0</asrwt>
<pdfrwt beam="1">  1        1 0.14252115E-02 0.91925082E+02</pdfrwt>
<pdfrwt beam="2">  1       -1 0.35083429E-01 0.91925082E+02</pdfrwt>
<totfact> 0.65331751E+04</totfact>
</mgrwt>
</event>
<event>
 5   1  0.1357339E+00  0.8055601E+02  0.7818608E-02  0.1327481E+00
          1   -1    0    0  501    0  0.00000000000E+00  0.00000000000E+00  0.52418355473E+02  0.52418355681E+02  0.46700000000E-02 0. -1.
         -1   -1    0    0    0  501 -0.00000000000E+00 -0.00000000000E+00 -0.30949421956E+02  0.30949422309E+02  0.46700000000E-02 0.  1.
         23    2    1    2    0    0  0.00000000000E+00  0.00000000000E+00  0.21468933517E+02  0.83367777990E+02  0.80556013435E+02 0.  0.
        -11    1    3    3    0    0 -0.38484097076E+02 -0.11572365677E+02  0.79244677115E+01  0.40960255906E+02  0.51100000000E-03 0.  1.
         11    1    3    3    0    0  0.38484097076E+02  0.11572365677E+02  0.13544465805E+02  0.42407522084E+02  0.51100000000E-03 0. -1.
<mgrwt>
<rscale>  0 0.80556013E+02</rscale>
<asrwt>0</asrwt>
<pdfrwt beam="1">  1        1 0.80643624E-02 0.80556013E+02</pdfrwt>
<pdfrwt beam="2">  1       -1 0.47614496E-02 0.80556013E+02</pdfrwt>
<totfact> 0.13292943E+05</totfact>
</mgrwt>
</event>
<event>
 5   1  0.1357339E+00  0.8917905E+02  0.7818608E-02  0.1304852E+00
          1   -1    0    0  501    0  0.00000000000E+00  0.00000000000E+00  0.22240076841E+02  0.22240077331E+02  0.46700000000E-02 0. -1.
         -1   -1    0    0    0  501 -0.00000000000E+00 -0.00000000000E+00 -0.89398329846E+02  0.89398329968E+02  0.46700000000E-02 0.  1.
         23    2    1    2    0    0  0.00000000000E+00  0.00000000000E+00 -0.67158253005E+02  0.11163840730E+03  0.89179050441E+02 0.  0.
        -11    1    3    3    0    0  0.85219904878E+01 -0.28758222042E+02  0.77235495785E+01  0.30972776357E+02  0.51100000000E-03 0. -1.
         11    1    3    3    0    0 -0.85219904878E+01  0.28758222042E+02 -0.74881802583E+02  0.80665630942E+02  0.51100000000E-03 0.  1.
<mgrwt>
<rscale>  0 0.89179050E+02</rscale>
<asrwt>0</asrwt>
<pdfrwt beam="1">  1        1 0.34215504E-02 0.89179050E+02</pdfrwt>
<pdfrwt beam="2">  1       -1 0.13753589E-01 0.89179050E+02</pdfrwt>
<totfact> 0.87895929E+04</totfact>
</mgrwt>
</event>
<event>
 5   1  0.1357339E+00  0.9452259E+02  0.7818608E-02  0.1292255E+00
          1   -1    0    0  501    0  0.00000000000E+00  0.00000000000E+00  0.34794693949E+02  0.34794694262E+02  0.46700000000E-02 0. -1.
         -1   -1    0    0    0  501 -0.00000000000E+00 -0.00000000000E+00 -0.64194551832E+02  0.64194552002E+02  0.46700000000E-02 0.  1.
         23    2    1    2    0    0  0.00000000000E+00  0.00000000000E+00 -0.29399857884E+02  0.98989246264E+02  0.94522585832E+02 0.  0.
        -11    1    3    3    0    0  0.81407359612E+01 -0.36593315310E+02  0.15440052265E+02  0.40543032959E+02  0.51100000000E-03 0. -1.
         11    1    3    3    0    0 -0.81407359612E+01  0.36593315310E+02 -0.44839910148E+02  0.58446213305E+02  0.51100000000E-03 0.  1.
<mgrwt>
<rscale>  0 0.94522586E+02</rscale>
<asrwt>0</asrwt>
<pdfrwt beam="1">  1        1 0.53530299E-02 0.94522586E+02</pdfrwt>
<pdfrwt beam="2">  1       -1 0.98760849E-02 0.94522586E+02</pdfrwt>
<totfact> 0.80057261E+04</totfact>
</mgrwt>
</event>
<event>
 5   1  0.1357339E+00  0.9129293E+02  0.7818608E-02  0.1299751E+00
         -1   -1    0    0    0  501 -0.00000000000E+00  0.00000000000E+00  0.19546460083E+03  0.19546460089E+03  0.46700000000E-02 0.  1.
          1   -1    0    0  501    0  0.00000000000E+00 -0.00000000000E+00 -0.10659727942E+02  0.10659728965E+02  0.46700000000E-02 0. -1.
         23    2    1    2    0    0  0.00000000000E+00  0.00000000000E+00  0.18480487289E+03  0.20612432986E+03  0.91292925870E+02 0.  0.
        -11    1    3    3    0    0 -0.26029500965E+02  0.36738794613E+02  0.10934757610E+03  0.11825466735E+03  0.51100000000E-03 0.  1.
         11    1    3    3    0    0  0.26029500965E+02 -0.36738794613E+02  0.75457296794E+02  0.87869662511E+02  0.51100000000E-03 0. -1.
<mgrwt>
<rscale>  0 0.91292926E+02</rscale>
<asrwt>0</asrwt>
<pdfrwt beam="2">  1        1 0.16399582E-02 0.91292926E+02</pdfrwt>
<pdfrwt beam="1">  1       -1 0.30071477E-01 0.91292926E+02</pdfrwt>
<totfact> 0.69646419E+04</totfact>
</mgrwt>
</event>
<event>
 5   1  0.1357339E+00  0.7744545E+02  0.7818608E-02  0.1336461E+00
         -1   -1    0    0    0  501 -0.00000000000E+00  0.00000000000E+00  0.10541499440E+03  0.10541499450E+03  0.46700000000E-02 0.  1.
          1   -1    0    0  501    0  0.00000000000E+00 -0.00000000000E+00 -0.14224251485E+02  0.14224252252E+02  0.46700000000E-02 0. -1.
         23    2    1    2    0    0  0.00000000000E+00  0.00000000000E+00  0.91190742914E+02  0.11963924675E+03  0.77445450291E+02 0.  0.
        -11    1    3    3    0    0  0.14343139879E+02  0.35824433790E+02  0.40629377352E+02  0.56034471732E+02  0.51100000000E-03 0. -1.
         11    1    3    3    0    0 -0.14343139879E+02 -0.35824433790E+02  0.50561365561E+02  0.63604775022E+02  0.51100000000E-03 0.  1.
<mgrwt>
<rscale>  0 0.77445450E+02</rscale>
<asrwt>0</asrwt>
<pdfrwt beam="2">  1        1 0.21883464E-02 0.77445450E+02</pdfrwt>
<pdfrwt beam="1">  1       -1 0.16217692E-01 0.77445450E+02</pdfrwt>
<totfact> 0.12252493E+05</totfact>
</mgrwt>
</event>
<event>
 5   1  0.1357339E+00  0.9093039E+02  0.7818608E-02  0.1300614E+00
          1   -1    0    0  501    0  0.00000000000E+00  0.00000000000E+00  0.14114497915E+02  0.14114498687E+02  0.46700000000E-02 0. -1.
         -1   -1    0    0    0  501 -0.00000000000E+00 -0.00000000000E+00 -0.14645110203E+03  0.14645110211E+03  0.46700000000E-02 0.  1.
         23    2    1    2    0    0  0.00000000000E+00  0.00000000000E+00 -0.13233660412E+03  0.16056560079E+03  0.90930387490E+02 0.  0.
        -11    1    3    3    0    0 -0.21432185408E+02  0.19390738291E+02 -0.12814148323E+03  0.13136049264E+03  0.51100000000E-03 0.  1.
         11    1    3    3    0    0  0.21432185408E+02 -0.19390738291E+02 -0.41951208918E+01  0.29205108155E+02  0.51100000000E-03 0. -1.
<mgrwt>
<rscale>  0 0.90930387E+02</rscale>
<asrwt>0</asrwt>
<pdfrwt beam="1">  1        1 0.21714614E-02 0.90930387E+02</pdfrwt>
<pdfrwt beam="2">  1       -1 0.22530938E-01 0.90930387E+02</pdfrwt>
<totfact> 0.75735811E+04</totfact>
</mgrwt>
</event>
<event>
 5   1  0.1357339E+00  0.7594376E+02  0.7818608E-02  0.1340973E+00
         -1   -1    0    0    0  501 -0.00000000000E+00  0.00000000000E+00  0.16373834268E+02  0.16373834934E+02  0.46700000000E-02 0. -1.
          1   -1    0    0  501    0  0.00000000000E+00 -0.00000000000E+00 -0.88059018969E+02  0.88059019093E+02  0.46700000000E-02 0.  1.
         23    2    1    2    0    0  0.00000000000E+00  0.00000000000E+00 -0.71685184701E+02  0.10443285403E+03  0.75943764027E+02 0.  0.
        -11    1    3    3    0    0 -0.19140792437E+02  0.13910067421E+02 -0.76682079937E+02  0.80249618656E+02  0.51100000000E-03 0.  1.
         11    1    3    3    0    0  0.19140792437E+02 -0.13910067421E+02  0.49968952358E+01  0.24183235371E+02  0.51100000000E-03 0. -1.
<mgrwt>
<rscale>  0 0.75943764E+02</rscale>
<asrwt>0</asrwt>
<pdfrwt beam="2">  1        1 0.13547541E-01 0.75943764E+02</pdfrwt>
<pdfrwt beam="1">  1       -1 0.25190515E-02 0.75943764E+02</pdfrwt>
<totfact> 0.16765946E+05</totfact>
</mgrwt>
</event>
<event>
 5   1  0.1357339E+00  0.9046848E+02  0.7818608E-02  0.1301721E+00
          1   -1    0    0  501    0  0.00000000000E+00  0.00000000000E+00  0.18322600934E+03  0.18322600940E+03  0.46700000000E-02 0. -1.
         -1   -1    0    0    0  501 -0.00000000000E+00 -0.00000000000E+00 -0.11167281922E+02  0.11167282899E+02  0.46700000000E-02 0.  1.
         23    2    1    2    0    0  0.00000000000E+00  0.00000000000E+00  0.17205872742E+03  0.19439329230E+03  0.90468482965E+02 0.  0.
        -11    1    3    3    0    0 -0.33948625351E+02  0.22713634974E+02  0.12779007984E+03  0.13415931903E+03  0.51100000000E-03 0.  1.
         11    1    3    3    0    0  0.33948625351E+02 -0.22713634974E+02  0.44268647577E+02  0.60233973267E+02  0.51100000000E-03 0. -1.
<mgrwt>
<rscale>  0 0.90468483E+02</rscale>
<asrwt>0</asrwt>
<pdfrwt beam="1">  1        1 0.28188614E-01 0.90468483E+02</pdfrwt>
<pdfrwt beam="2">  1       -1 0.17180436E-02 0.90468483E+02</pdfrwt>
<totfact> 0.11888418E+05</totfact>
</mgrwt>
</event>
<event>
 5   1  0.1357339E+00  0.8886238E+02  0.7818608E-02  0.1305630E+00
         -1   -1    0    0    0  501 -0.00000000000E+00  0.00000000000E+00  0.42815791504E+02  0.42815791759E+02  0.46700000000E-02 0.  1.
          1   -1    0    0  501    0  0.00000000000E+00 -0.00000000000E+00 -0.46107539278E+02  0.46107539515E+02  0.46700000000E-02 0. -1.
         23    2    1    2    0    0  0.00000000000E+00  0.00000000000E+00 -0.32917477746E+01  0.88923331273E+02  0.88862383725E+02 0.  0.
        -11    1    3    3    0    0  0.43271778609E+02 -0.99247254667E+01  0.13967345354E+00  0.44395568569E+02  0.51100000000E-03 0.  1.
         11    1    3    3    0    0 -0.43271778609E+02  0.99247254667E+01 -0.34314212282E+01  0.44527762705E+02  0.51100000000E-03 0. -1.
<mgrwt>
<rscale>  0 0.88862384E+02</rscale>
<asrwt>0</asrwt>
<pdfrwt beam="2">  1        1 0.70934676E-02 0.88862384E+02</pdfrwt>
<pdfrwt beam="1">  1       -1 0.65870449E-02 0.88862384E+02</pdfrwt>
<totfact> 0.99537306E+04</totfact>
</mgrwt>
</event>
<event>
 5   1  0.1357339E+00  0.9105517E+02  0.7818608E-02  0.1300316E+00
         -1   -1    0    0    0  501 -0.00000000000E+00  0.00000000000E+00  0.86943572592E+01  0.86943585134E+01  0.46700000000E-02 0.  1.
          1   -1    0    0  501    0  0.00000000000E+00 -0.00000000000E+00 -0.23840300652E+03  0.23840300657E+03  0.46700000000E-02 0. -1.
         23    2    1    2    0    0  0.00000000000E+00  0.00000000000E+00 -0.22970864926E+03  0.24709736508E+03  0.91055171649E+02 0.  0.
        -11    1    3    3    0    0  0.23765569743E+02  0.36610297149E+02 -0.14999083936E+03  0.15621257329E+03  0.51100000000E-03 0. -1.
         11    1    3    3    0    0 -0.23765569743E+02 -0.36610297149E+02 -0.79717809905E+02  0.90884791790E+02  0.51100000000E-03 0.  1.
<mgrwt>
<rscale>  0 0.91055172E+02</rscale>
<asrwt>0</asrwt>
<pdfrwt beam="2">  1        1 0.36677381E-01 0.91055172E+02</pdfrwt>
<pdfrwt beam="1">  1       -1 0.13375937E-02 0.91055172E+02</pdfrwt>
<totfact> 0.12296863E+05</totfact>
</mgrwt>
</event>
<event>
 5   1  0.1357339E+00  0.8848909E+02  0.7818608E-02  0.1306552E+00
          1   -1    0    0  501    0  0.00000000000E+00  0.00000000000E+00  0.13641920751E+02  0.13641921551E+02  0.46700000000E-02 0. -1.
         -1   -1    0    0    0  501 -0.00000000000E+00 -0.00000000000E+00 -0.14349737195E+03  0.14349737203E+03  0.46700000000E-02 0.  1.
         23    2    1    2    0    0  0.00000000000E+00  0.00000000000E+00 -0.12985545120E+03  0.15713929358E+03  0.88489091870E+02 0.  0.
        -11    1    3    3    0    0 -0.14781357896E+02 -0.26031936854E+02 -0.12278269242E+03  0.12637934893E+03  0.51100000000E-03 0.  1.
         11    1    3    3    0    0  0.14781357896E+02  0.26031936854E+02 -0.70727587769E+01  0.30759944646E+02  0.51100000000E-03 0. -1.
<mgrwt>
<rscale>  0 0.88489092E+02</rscale>
<asrwt>0</asrwt>
<pdfrwt beam="1">  1        1 0.20987572E-02 0.88489092E+02</pdfrwt>
<pdfrwt beam="2">  1       -1 0.22076518E-01 0.88489092E+02</pdfrwt>
<totfact> 0.81645315E+04</totfact>
</mgrwt>
</event>
<event>
 5   1  0.1357339E+00  0.9161094E+02  0.7818608E-02  0.1298997E+00
         -1   -1    0    0    0  501 -0.00000000000E+00  0.00000000000E+00  0.24382628649E+02  0.24382629097E+02  0.46700000000E-02 0.  1.
          1   -1    0    0  501    0  0.00000000000E+00 -0.00000000000E+00 -0.86050657328E+02  0.86050657454E+02  0.46700000000E-02 0. -1.
         23    2    1    2    0    0  0.00000000000E+00  0.00000000000E+00 -0.61668028678E+02  0.11043328655E+03  0.91610943764E+02 0.  0.
        -11    1    3    3    0    0 -0.24606638468E+02 -0.29284622150E+02 -0.61212204832E+02  0.72180397421E+02  0.51100000000E-03 0. -1.
         11    1    3    3    0    0  0.24606638468E+02  0.29284622150E+02 -0.45582384611E+00  0.38252889130E+02  0.51100000000E-03 0.  1.
<mgrwt>
<rscale>  0 0.91610944E+02</rscale>
<asrwt>0</asrwt>
<pdfrwt beam="2">  1        1 0.13238563E-01 0.91610944E+02</pdfrwt>
<pdfrwt beam="1">  1       -1 0.37511737E-02 0.91610944E+02</pdfrwt>
<totfact> 0.10060104E+05</totfact>
</mgrwt>
</event>
<event>
 5   1  0.1357339E+00  0.8861278E+02  0.7818608E-02  0.1306246E+00
          1   -1    0    0  501    0  0.00000000000E+00  0.00000000000E+00  0.67979745203E+02  0.67979745363E+02  0.46700000000E-02 0. -1.
         -1   -1    0    0    0  501 -0.00000000000E+00 -0.00000000000E+00 -0.28877075530E+02  0.28877075908E+02  0.46700000000E-02 0.  1.
         23    2    1    2    0    0  0.00000000000E+00  0.00000000000E+00  0.39102669672E+02  0.96856821271E+02  0.88612781534E+02 0.  0.
        -11    1    3    3    0    0  0.40058813041E+02  0.45623159976E+01 -0.52997253733E+00  0.40321261149E+02  0.51100000000E-03 0.  1.
         11    1    3    3    0    0 -0.40058813041E+02 -0.45623159976E+01  0.39632642209E+02  0.56535560122E+02  0.51100000000E-03 0. -1.
<mgrwt>
<rscale>  0 0.88612782E+02</rscale>
<asrwt>0</asrwt>
<pdfrwt beam="1">  1        1 0.10458422E-01 0.88612782E+02</pdfrwt>
<pdfrwt beam="2">  1       -1 0.44426271E-02 0.88612782E+02</pdfrwt>
<totfact> 0.10624665E+05</totfact>
</mgrwt>
</event>
<event>
 5   1  0.1357339E+00  0.9158084E+02  0.7818608E-02  0.1299068E+00
          1   -1    0    0  501    0  0.00000000000E+00  0.00000000000E+00  0.38275604584E+02  0.38275604869E+02  0.46700000000E-02 0. -1.
         -1   -1    0    0    0  501 -0.00000000000E+00 -0.00000000000E+00 -0.54780652517E+02  0.54780652716E+02  0.46700000000E-02 0.  1.
         23    2    1    2    0    0  0.00000000000E+00  0.00000000000E+00 -0.16505047934E+02  0.93056257585E+02  0.91580841165E+02 0.  0.
        -11    1    3    3    0    0  0.29772049962E+02  0.33312351214E+02  0.19428131184E+01  0.44719819156E+02  0.51100000000E-03 0. -1.
         11    1    3    3    0    0 -0.29772049962E+02 -0.33312351214E+02 -0.18447861052E+02  0.48336438429E+02  0.51100000000E-03 0.  1.
<mgrwt>
<rscale>  0 0.91580841E+02</rscale>
<asrwt>0</asrwt>
<pdfrwt beam="1">  1        1 0.58885546E-02 0.91580841E+02</pdfrwt>
<pdfrwt beam="2">  1       -1 0.84277927E-02 0.91580841E+02</pdfrwt>
<totfact> 0.88934957E+04</totfact>
</mgrwt>
</event>
<event>
 5   1  0.1357339E+00  0.8501742E+02  0.7818608E-02  0.1315387E+00
          1   -1    0    0  501    0  0.00000000000E+00  0.00000000000E+00  0.59220275921E+01  0.59220294334E+01  0.46700000000E-02 0. -1.
         -1   -1    0    0    0  501 -0.00000000000E+00 -0.00000000000E+00 -0.30513028184E+03  0.30513028187E+03  0.46700000000E-02 0.  1.
         23    2    1    2    0    0  0.00000000000E+00  0.00000000000E+00 -0.29920825425E+03  0.31105231131E+03  0.85017415632E+02 0.  0.
        -11    1    3    3    0    0  0.13599151411E+02  0.40070033679E+02 -0.13476692535E+03  0.14125391566E+03  0.51100000000E-03 0.  1.
         11    1    3    3    0    0 -0.13599151411E+02 -0.40070033679E+02 -0.16444132889E+03  0.16979839565E+03  0.51100000000E-03 0. -1.
<mgrwt>
<rscale>  0 0.85017416E+02</rscale>
<asrwt>0</asrwt>
<pdfrwt beam="1">  1        1 0.91108155E-03 0.85017416E+02</pdfrwt>
<pdfrwt beam="2">  1       -1 0.46943108E-01 0.85017416E+02</pdfrwt>
<totfact> 0.72222398E+04</totfact>
</mgrwt>
</event>
<event>
 5   1  0.1357339E+00  0.9220464E+02  0.7818608E-02  0.1297599E+00
         -1   -1    0    0    0  501 -0.00000000000E+00  0.00000000000E+00  0.34157755772E+03  0.34157755775E+03  0.46700000000E-02 0.  1.
          1   -1    0    0  501    0  0.00000000000E+00 -0.00000000000E+00 -0.62223741652E+01  0.62223759177E+01  0.46700000000E-02 0. -1.
         23    2    1    2    0    0  0.00000000000E+00  0.00000000000E+00  0.33535518356E+03  0.34779993367E+03  0.92204635044E+02 0.  0.
        -11    1    3    3    0    0 -0.21965538608E+02  0.35417920192E+02  0.93328154128E+02  0.10221085221E+03  0.51100000000E-03 0. -1.
         11    1    3    3    0    0  0.21965538608E+02 -0.35417920192E+02  0.24202702943E+03  0.24558908146E+03  0.51100000000E-03 0.  1.
<mgrwt>
<rscale>  0 0.92204635E+02</rscale>
<asrwt>0</asrwt>
<pdfrwt beam="2">  1        1 0.95728827E-03 0.92204635E+02</pdfrwt>
<pdfrwt beam="1">  1       -1 0.52550405E-01 0.92204635E+02</pdfrwt>
<totfact> 0.55742390E+04</totfact>
</mgrwt>
</event>
<event>
 5   1  0.1357339E+00  0.8625293E+02  0.7818608E-02  0.1312188E+00
          1   -1    0    0  501    0  0.00000000000E+00  0.00000000000E+00  0.94629704114E+01  0.94629715637E+01  0.46700000000E-02 0. -1.
         -1   -1    0    0    0  501 -0.00000000000E+00 -0.00000000000E+00 -0.19654421141E+03  0.19654421147E+03  0.46700000000E-02 0.  1.
         23    2    1    2    0    0  0.00000000000E+00  0.00000000000E+00 -0.18708124100E+03  0.20600718303E+03  0.86252934594E+02 0.  0.
        -11    1    3    3    0    0  0.40150957869E+02  0.42401857371E+01 -0.12974793677E+03  0.13588453072E+03  0.51100000000E-03 0.  1.
         11    1    3    3    0    0 -0.40150957869E+02 -0.42401857371E+01 -0.57333304234E+02  0.70122652313E+02  0.51100000000E-03 0. -1.
<mgrwt>
<rscale>  0 0.86252935E+02</rscale>
<asrwt>0</asrwt>
<pdfrwt beam="1">  1        1 0.14558418E-02 0.86252935E+02</pdfrwt>
<pdfrwt beam="2">  1       -1 0.30237568E-01 0.86252935E+02</pdfrwt>
<totfact> 0.80598328E+04</totfact>
</mgrwt>
</event>
<event>
 5   1  0.1357339E+00  0.8982839E+02  0.7818608E-02  0.1303268E+00
         -1   -1    0    0    0  501 -0.00000000000E+00  0.00000000000E+00  0.10492611469E+03  0.10492611479E+03  0.46700000000E-02 0.  1.
          1   -1    0    0  501    0  0.00000000000E+00 -0.00000000000E+00 -0.19225765437E+02  0.19225766004E+02  0.46700000000E-02 0. -1.
         23    2    1    2    0    0  0.00000000000E+00  0.00000000000E+00  0.85700349252E+02  0.12415188080E+03  0.89828389964E+02 0.  0.
        -11    1    3    3    0    0  0.34794353387E+02  0.28390360773E+02  0.43943081765E+02  0.62830359284E+02  0.51100000000E-03 0.  1.
         11    1    3    3    0    0 -0.34794353387E+02 -0.28390360773E+02  0.41757267486E+02  0.61321521513E+02  0.51100000000E-03 0. -1.
<mgrwt>
<rscale>  0 0.89828390E+02</rscale>
<asrwt>0</asrwt>
<pdfrwt beam="2">  1        1 0.29578101E-02 0.89828390E+02</pdfrwt>
<pdfrwt beam="1">  1       -1 0.16142479E-01 0.89828390E+02</pdfrwt>
<totfact> 0.83792060E+04</totfact>
</mgrwt>
</event>
<event>
 5   1  0.1357339E+00  0.9172350E+02  0.7818608E-02  0.1298731E+00
          1   -1    0    0  501    0  0.00000000000E+00  0.00000000000E+00  0.28655314851E+02  0.28655315232E+02  0.46700000000E-02 0. -1.
         -1   -1    0    0    0  501 -0.00000000000E+00 -0.00000000000E+00 -0.73399992655E+02  0.73399992803E+02  0.46700000000E-02 0.  1.
         23    2    1    2    0    0  0.00000000000E+00  0.00000000000E+00 -0.44744677804E+02  0.10205530804E+03  0.91723495934E+02 0.  0.
        -11    1    3    3    0    0 -0.29738028061E+02  0.28877618921E+02 -0.44204856965E+02  0.60599806659E+02  0.51100000000E-03 0.  1.
         11    1    3    3    0    0  0.29738028061E+02 -0.28877618921E+02 -0.53982083820E+00  0.41455501376E+02  0.51100000000E-03 0. -1.
<mgrwt>
<rscale>  0 0.91723496E+02</rscale>
<asrwt>0</asrwt>
<pdfrwt beam="1">  1        1 0.44085100E-02 0.91723496E+02</pdfrwt>
<pdfrwt beam="2">  1       -1 0.11292307E-01 0.91723496E+02</pdfrwt>
<totfact> 0.84571065E+04</totfact>
</mgrwt>
</event>
<event>
 5   1  0.1357339E+00  0.9182230E+02  0.7818608E-02  0.1298498E+00
          1   -1    0    0  501    0  0.00000000000E+00  0.00000000000E+00  0.35118789597E+03  0.35118789600E+03  0.46700000000E-02 0. -1.
         -1   -1    0    0    0  501 -0.00000000000E+00 -0.00000000000E+00 -0.60020107055E+01  0.60020125223E+01  0.46700000000E-02 0.  1.
         23    2    1    2    0    0  0.00000000000E+00  0.00000000000E+00  0.34518588526E+03  0.35718990852E+03  0.91822303200E+02 0.  0.
        -11    1    3    3    0    0  0.44675132545E+02  0.10426940720E+02  0.17960066856E+03  0.18536717268E+03  0.51100000000E-03 0.  1.
         11    1    3    3    0    0 -0.44675132545E+02 -0.10426940720E+02  0.16558521671E+03  0.17182273584E+03  0.51100000000E-03 0. -1.
<mgrwt>
<rscale>  0 0.91822303E+02</rscale>
<asrwt>0</asrwt>
<pdfrwt beam="1">  1        1 0.54028904E-01 0.91822303E+02</pdfrwt>
<pdfrwt beam="2">  1       -1 0.92338645E-03 0.91822303E+02</pdfrwt>
<totfact> 0.12945865E+05</totfact>
</mgrwt>
</event>
<event>
 5   1  0.1357339E+00  0.9136200E+02  0.7818608E-02  0.1299587E+00
          1   -1    0    0  501    0  0.00000000000E+00  0.00000000000E+00  0.52392668140E+02  0.52392668348E+02  0.46700000000E-02 0. -1.
         -1   -1    0    0    0  501 -0.00000000000E+00 -0.00000000000E+00 -0.39829114260E+02  0.39829114534E+02  0.46700000000E-02 0.  1.
         23    2    1    2    0    0  0.00000000000E+00  0.00000000000E+00  0.12563553880E+02  0.92221782882E+02  0.91361996212E+02 0.  0.
        -11    1    3    3    0    0  0.11970980614E+02  0.30449123902E+02 -0.25897694801E+02  0.41727019058E+02  0.51100000000E-03 0.  1.
         11    1    3    3    0    0 -0.11970980614E+02 -0.30449123902E+02  0.38461248681E+02  0.50494763824E+02  0.51100000000E-03 0. -1.
<mgrwt>
<rscale>  0 0.91361996E+02</rscale>
<asrwt>0</asrwt>
<pdfrwt beam="1">  1        1 0.80604105E-02 0.91361996E+02</pdfrwt>
<pdfrwt beam="2">  1       -1 0.61275561E-02 0.91361996E+02</pdfrwt>
<totfact> 0.93890710E+04</totfact>
</mgrwt>
</event>
<event>
 5   1  0.1357339E+00  0.9162281E+02  0.7818608E-02  0.1298969E+00
         -1   -1    0    0    0  501 -0.00000000000E+00  0.00000000000E+00  0.79418714352E+01  0.79418728083E+01  0.46700000000E-02 0.  1.
          1   -1    0    0  501    0  0.00000000000E+00 -0.00000000000E+00 -0.26425566884E+03  0.26425566889E+03  0.46700000000E-02 0. -1.
         23    2    1    2    0    0  0.00000000000E+00  0.00000000000E+00 -0.25631379741E+03  0.27219754169E+03  0.91622808088E+02 0.  0.
        -11    1    3    3    0    0 -0.11664047655E+02  0.44273799950E+02 -0.13282157704E+03  0.14049124776E+03  0.51100000000E-03 0.  1.
         11    1    3    3    0    0  0.11664047655E+02 -0.44273799950E+02 -0.12349222037E+03  0.13170629394E+03  0.51100000000E-03 0. -1.
<mgrwt>
<rscale>  0 0.91622808E+02</rscale>
<asrwt>0</asrwt>
<pdfrwt beam="2">  1        1 0.40654712E-01 0.91622808E+02</pdfrwt>
<pdfrwt beam="1">  1       -1 0.12218267E-02 0.91622808E+02</pdfrwt>
<totfact> 0.12339708E+05</totfact>
</mgrwt>
</event>
<event>
 5   1  0.1357339E+00  0.9142667E+02  0.7818608E-02  0.1299433E+00
         -1   -1    0    0    0  501 -0.00000000000E+00  0.00000000000E+00  0.83190485982E+01  0.83190499090E+01  0.46700000000E-02 0.  1.
          1   -1    0    0  501    0  0.00000000000E+00 -0.00000000000E+00 -0.25119567147E+03  0.25119567152E+03  0.46700000000E-02 0. -1.
         23    2    1    2    0    0  0.00000000000E+00  0.00000000000E+00 -0.24287662288E+03  0.25951472143E+03  0.91426673884E+02 0.  0.
        -11    1    3    3    0    0  0.38264142850E+02  0.15176725395E+02 -0.65007683532E+02  0.76944632952E+02  0.51100000000E-03 0.  1.
         11    1    3    3    0    0 -0.38264142850E+02 -0.15176725395E+02 -0.17786893934E+03  0.18257008847E+03  0.51100000000E-03 0. -1.
<mgrwt>
<rscale>  0 0.91426674E+02</rscale>
<asrwt>0</asrwt>
<pdfrwt beam="2">  1        1 0.38645482E-01 0.91426674E+02</pdfrwt>
<pdfrwt beam="1">  1       -1 0.12798539E-02 0.91426674E+02</pdfrwt>
<totfact> 0.12288263E+05</totfact>
</mgrwt>
</event>
<event>
 5   1  0.1357339E+00  0.8934160E+02  0.7818608E-02  0.1304454E+00
          1   -1    0    0  501    0  0.00000000000E+00  0.00000000000E+00  0.12836471630E+02  0.12836472479E+02  0.46700000000E-02 0. -1.
         -1   -1    0    0    0  501 -0.00000000000E+00 -0.00000000000E+00 -0.15545396667E+03  0.15545396674E+03  0.46700000000E-02 0.  1.
         23    2    1    2    0    0  0.00000000000E+00  0.00000000000E+00 -0.14261749504E+03  0.16829043922E+03  0.89341603082E+02 0.  0.
        -11    1    3    3    0    0 -0.25799069381E+02 -0.15885777668E+02 -0.94757203967E+01  0.31744908101E+02  0.51100000000E-03 0. -1.
         11    1    3    3    0    0  0.25799069381E+02  0.15885777668E+02 -0.13314177464E+03  0.13654553112E+03  0.51100000000E-03 0.  1.
<mgrwt>
<rscale>  0 0.89341603E+02</rscale>
<asrwt>0</asrwt>
<pdfrwt beam="1">  1        1 0.19748420E-02 0.89341603E+02</pdfrwt>
<pdfrwt beam="2">  1       -1 0.23915994E-01 0.89341603E+02</pdfrwt>
<totfact> 0.78174239E+04</totfact>
</mgrwt>
</event>
<event>
 5   1  0.1357339E+00  0.9589194E+02  0.7818608E-02  0.1289180E+00
          1   -1    0    0  501    0  0.00000000000E+00  0.00000000000E+00  0.17639043357E+03  0.17639043363E+03  0.46700000000E-02 0. -1.
         -1   -1    0    0    0  501 -0.00000000000E+00 -0.00000000000E+00 -0.13032542233E+02  0.13032543070E+02  0.46700000000E-02 0.  1.
         23    2    1    2    0    0  0.00000000000E+00  0.00000000000E+00  0.16335789133E+03  0.18942297670E+03  0.95891936264E+02 0.  0.
        -11    1    3    3    0    0  0.41792255654E+02 -0.14604686592E+01  0.12800950529E+03  0.13466684465E+03  0.51100000000E-03 0. -1.
         11    1    3    3    0    0 -0.41792255654E+02  0.14604686592E+01  0.35348386038E+02  0.54756132050E+02  0.51100000000E-03 0.  1.
<mgrwt>
<rscale>  0 0.95891936E+02</rscale>
<asrwt>0</asrwt>
<pdfrwt beam="1">  1        1 0.27136987E-01 0.95891936E+02</pdfrwt>
<pdfrwt beam="2">  1       -1 0.20050068E-02 0.95891936E+02</pdfrwt>
<totfact> 0.10087920E+05</totfact>
</mgrwt>
</event>
<event>
 5   1  0.1357339E+00  0.9098457E+02  0.7818608E-02  0.1300485E+00
         -1   -1    0    0    0  501 -0.00000000000E+00  0.00000000000E+00  0.79318636367E+02  0.79318636505E+02  0.46700000000E-02 0.  1.
          1   -1    0    0  501    0  0.00000000000E+00 -0.00000000000E+00 -0.26091573040E+02  0.26091573458E+02  0.46700000000E-02 0. -1.
         23    2    1    2    0    0  0.00000000000E+00  0.00000000000E+00  0.53227063327E+02  0.10541020996E+03  0.90984570636E+02 0.  0.
        -11    1    3    3    0    0  0.36414700304E+02 -0.25632270940E+02  0.37388941697E+02  0.58146166454E+02  0.51100000000E-03 0.  1.
         11    1    3    3    0    0 -0.36414700304E+02  0.25632270940E+02  0.15838121630E+02  0.47264043509E+02  0.51100000000E-03 0. -1.
<mgrwt>
<rscale>  0 0.90984571E+02</rscale>
<asrwt>0</asrwt>
<pdfrwt beam="2">  1        1 0.40140882E-02 0.90984571E+02</pdfrwt>
<pdfrwt beam="1">  1       -1 0.12202867E-01 0.90984571E+02</pdfrwt>
<totfact> 0.85232414E+04</totfact>
</mgrwt>
</event>
<event>
 5   1  0.1357339E+00  0.9134578E+02  0.7818608E-02  0.1299625E+00
          1   -1    0    0  501    0  0.00000000000E+00  0.00000000000E+00  0.33505838094E+02  0.33505838419E+02  0.46700000000E-02 0. -1.
         -1   -1    0    0    0  501 -0.00000000000E+00 -0.00000000000E+00 -0.62258185799E+02  0.62258185974E+02  0.46700000000E-02 0.  1.
         23    2    1    2    0    0  0.00000000000E+00  0.00000000000E+00 -0.28752347706E+02  0.95764024393E+02  0.91345776418E+02 0.  0.
        -11    1    3    3    0    0 -0.44501696910E+02  0.10256036939E+02 -0.13692403313E+02  0.47676715809E+02  0.51100000000E-03 0. -1.
         11    1    3    3    0    0  0.44501696910E+02 -0.10256036939E+02 -0.15059944393E+02  0.48087308585E+02  0.51100000000E-03 0.  1.
<mgrwt>
<rscale>  0 0.91345776E+02</rscale>
<asrwt>0</asrwt>
<pdfrwt beam="1">  1        1 0.51547444E-02 0.91345776E+02</pdfrwt>
<pdfrwt beam="2">  1       -1 0.95781824E-02 0.91345776E+02</pdfrwt>
<totfact> 0.87755881E+04</totfact>
</mgrwt>
</event>
<event>
 5   1  0.1357339E+00  0.9164561E+02  0.7818608E-02  0.1298915E+00
         -1   -1    0    0    0  501 -0.00000000000E+00  0.00000000000E+00  0.71280429301E+01  0.71280444599E+01  0.46700000000E-02 0.  1.
          1   -1    0    0  501    0  0.00000000000E+00 -0.00000000000E+00 -0.29457300131E+03  0.29457300134E+03  0.46700000000E-02 0. -1.
         23    2    1    2    0    0  0.00000000000E+00  0.00000000000E+00 -0.28744495838E+03  0.30170104580E+03  0.91645605148E+02 0.  0.
        -11    1    3    3    0    0 -0.40563203846E+02 -0.76550947521E+01 -0.78231947442E+02  0.88454573555E+02  0.51100000000E-03 0.  1.
         11    1    3    3    0    0  0.40563203846E+02  0.76550947521E+01 -0.20921301093E+03  0.21324647225E+03  0.51100000000E-03 0. -1.
<mgrwt>
<rscale>  0 0.91645605E+02</rscale>
<asrwt>0</asrwt>
<pdfrwt beam="2">  1        1 0.45318914E-01 0.91645605E+02</pdfrwt>
<pdfrwt beam="1">  1       -1 0.10966223E-02 0.91645605E+02</pdfrwt>
<totfact> 0.12594096E+05</totfact>
</mgrwt>
</event>
<event>
 5   1  0.1357339E+00  0.9143053E+02  0.7818608E-02  0.1299424E+00
          1   -1    0    0  501    0  0.00000000000E+00  0.00000000000E+00  0.14618980612E+03  0.14618980620E+03  0.46700000000E-02 0. -1.
         -1   -1    0    0    0  501 -0.00000000000E+00 -0.00000000000E+00 -0.14295698156E+02  0.14295698918E+02  0.46700000000E-02 0.  1.
         23    2    1    2    0    0  0.00000000000E+00  0.00000000000E+00  0.13189410797E+03  0.16048550511E+03  0.91430529014E+02 0.  0.
        -11    1    3    3    0    0 -0.10350224761E+02 -0.44510476182E+02  0.63743668610E+02  0.78431912705E+02  0.51100000000E-03 0.  1.
         11    1    3    3    0    0  0.10350224761E+02  0.44510476182E+02  0.68150439355E+02  0.82053592409E+02  0.51100000000E-03 0. -1.
<mgrwt>
<rscale>  0 0.91430529E+02</rscale>
<asrwt>0</asrwt>
<pdfrwt beam="1">  1        1 0.22490741E-01 0.91430529E+02</pdfrwt>
<pdfrwt beam="2">  1       -1 0.21993381E-02 0.91430529E+02</pdfrwt>
<totfact> 0.11077022E+05</totfact>
</mgrwt>
</event>
<event>
 5   1  0.1357339E+00  0.8570715E+02  0.7818608E-02  0.1313594E+00
         -1   -1    0    0    0  501 -0.00000000000E+00  0.00000000000E+00  0.37057528046E+02  0.37057528340E+02  0.46700000000E-02 0.  1.
          1   -1    0    0  501    0  0.00000000000E+00 -0.00000000000E+00 -0.49556161459E+02  0.49556161679E+02  0.46700000000E-02 0. -1.
         23    2    1    2    0    0  0.00000000000E+00  0.00000000000E+00 -0.12498633413E+02  0.86613690019E+02  0.85707149418E+02 0.  0.
        -11    1    3    3    0    0  0.21842522644E+02  0.16763435194E+02 -0.39434435989E+02  0.48095564213E+02  0.51100000000E-03 0. -1.
         11    1    3    3    0    0 -0.21842522644E+02 -0.16763435194E+02  0.26935802576E+02  0.38518125806E+02  0.51100000000E-03 0.  1.
<mgrwt>
<rscale>  0 0.85707149E+02</rscale>
<asrwt>0</asrwt>
<pdfrwt beam="2">  1        1 0.76240249E-02 0.85707149E+02</pdfrwt>
<pdfrwt beam="1">  1       -1 0.57011582E-02 0.85707149E+02</pdfrwt>
<totfact> 0.11121198E+05</totfact>
</mgrwt>
</event>
<event>
 5   1  0.1357339E+00  0.9162646E+02  0.7818608E-02  0.1298960E+00
         -1   -1    0    0    0  501 -0.00000000000E+00  0.00000000000E+00  0.68537749124E+02  0.68537749283E+02  0.46700000000E-02 0.  1.
          1   -1    0    0  501    0  0.00000000000E+00 -0.00000000000E+00 -0.30623296912E+02  0.30623297268E+02  0.46700000000E-02 0. -1.
         23    2    1    2    0    0  0.00000000000E+00  0.00000000000E+00  0.37914452213E+02  0.99161046551E+02  0.91626456150E+02 0.  0.
        -11    1    3    3    0    0 -0.26491336263E+02  0.75424598640E+00  0.59399861765E+02  0.65043857219E+02  0.51100000000E-03 0.  1.
         11    1    3    3    0    0  0.26491336263E+02 -0.75424598640E+00 -0.21485409552E+02  0.34117189332E+02  0.51100000000E-03 0. -1.
<mgrwt>
<rscale>  0 0.91626456E+02</rscale>
<asrwt>0</asrwt>
<pdfrwt beam="2">  1        1 0.47112765E-02 0.91626456E+02</pdfrwt>
<pdfrwt beam="1">  1       -1 0.10544269E-01 0.91626456E+02</pdfrwt>
<totfact> 0.85751822E+04</totfact>
</mgrwt>
</event>
<event>
 5   1  0.1357339E+00  0.9353961E+02  0.7818608E-02  0.1294500E+00
         -1   -1    0    0    0  501 -0.00000000000E+00  0.00000000000E+00  0.14946155488E+03  0.14946155496E+03  0.46700000000E-02 0.  1.
          1   -1    0    0  501    0  0.00000000000E+00 -0.00000000000E+00 -0.14635300881E+02  0.14635301626E+02  0.46700000000E-02 0. -1.
         23    2    1    2    0    0  0.00000000000E+00  0.00000000000E+00  0.13482625400E+03  0.16409685658E+03  0.93539614986E+02 0.  0.
        -11    1    3    3    0    0  0.30088623504E+02 -0.18713037388E+02  0.12096715031E+03  0.12604980955E+03  0.51100000000E-03 0.  1.
         11    1    3    3    0    0 -0.30088623504E+02  0.18713037388E+02  0.13859103693E+02  0.38047047035E+02  0.51100000000E-03 0. -1.
<mgrwt>
<rscale>  0 0.93539615E+02</rscale>
<asrwt>0</asrwt>
<pdfrwt beam="2">  1        1 0.22515847E-02 0.93539615E+02</pdfrwt>
<pdfrwt beam="1">  1       -1 0.22994087E-01 0.93539615E+02</pdfrwt>
<totfact> 0.70035771E+04</totfact>
</mgrwt>
</event>
<event>
 5   1  0.1357339E+00  0.9131923E+02  0.7818608E-02  0.1299688E+00
          1   -1    0    0  501    0  0.00000000000E+00  0.00000000000E+00  0.11911007422E+03  0.11911007431E+03  0.46700000000E-02 0. -1.
         -1   -1    0    0    0  501 -0.00000000000E+00 -0.00000000000E+00 -0.17503141822E+02  0.17503142445E+02  0.46700000000E-02 0.  1.
         23    2    1    2    0    0  0.00000000000E+00  0.00000000000E+00  0.10160693240E+03  0.13661321676E+03  0.91319232811E+02 0.  0.
        -11    1    3    3    0    0  0.15321105474E+02  0.23209406016E+02  0.10497810542E+03  0.10859933433E+03  0.51100000000E-03 0. -1.
         11    1    3    3    0    0 -0.15321105474E+02 -0.23209406016E+02 -0.33711730199E+01  0.28013882422E+02  0.51100000000E-03 0.  1.
<mgrwt>
<rscale>  0 0.91319233E+02</rscale>
<asrwt>0</asrwt>
<pdfrwt beam="1">  1        1 0.18324627E-01 0.91319233E+02</pdfrwt>
<pdfrwt beam="2">  1       -1 0.26927911E-02 0.91319233E+02</pdfrwt>
<totfact> 0.10714466E+05</totfact>
</mgrwt>
</event>
<event>
 5   1  0.1357339E+00  0.8705597E+02  0.7818608E-02  0.1310142E+00
          1   -1    0    0  501    0  0.00000000000E+00  0.00000000000E+00  0.31133621903E+02  0.31133622254E+02  0.46700000000E-02 0. -1.
         -1   -1    0    0    0  501 -0.00000000000E+00 -0.00000000000E+00 -0.60856575695E+02  0.60856575874E+02  0.46700000000E-02 0.  1.
         23    2    1    2    0    0  0.00000000000E+00  0.00000000000E+00 -0.29722953792E+02  0.91990198128E+02  0.87055973772E+02 0.  0.
        -11    1    3    3    0    0  0.79602755256E+01 -0.42420130381E+02 -0.20825133847E+02  0.47922016318E+02  0.51100000000E-03 0.  1.
         11    1    3    3    0    0 -0.79602755256E+01  0.42420130381E+02 -0.88978199443E+01  0.44068181810E+02  0.51100000000E-03 0. -1.
<mgrwt>
<rscale>  0 0.87055974E+02</rscale>
<asrwt>0</asrwt>
<pdfrwt beam="1">  1        1 0.47897880E-02 0.87055974E+02</pdfrwt>
<pdfrwt beam="2">  1       -1 0.93625501E-02 0.87055974E+02</pdfrwt>
<totfact> 0.99486847E+04</totfact>
</mgrwt>
</event>
<event>
 5   1  0.1357339E+00  0.9091162E+02  0.7818608E-02  0.1300659E+00
         -1   -1    0    0    0  501 -0.00000000000E+00  0.00000000000E+00  0.15057688144E+02  0.15057688868E+02  0.46700000000E-02 0.  1.
          1   -1    0    0  501    0  0.00000000000E+00 -0.00000000000E+00 -0.13722096734E+03  0.13722096742E+03  0.46700000000E-02 0. -1.
         23    2    1    2    0    0  0.00000000000E+00  0.00000000000E+00 -0.12216327920E+03  0.15227865629E+03  0.90911618493E+02 0.  0.
        -11    1    3    3    0    0 -0.24529445773E+02 -0.23789159873E+02 -0.11129345646E+03  0.11642100879E+03  0.51100000000E-03 0. -1.
         11    1    3    3    0    0  0.24529445773E+02  0.23789159873E+02 -0.10869822739E+02  0.35857647497E+02  0.51100000000E-03 0.  1.
<mgrwt>
<rscale>  0 0.90911618E+02</rscale>
<asrwt>0</asrwt>
<pdfrwt beam="2">  1        1 0.21110917E-01 0.90911618E+02</pdfrwt>
<pdfrwt beam="1">  1       -1 0.23165676E-02 0.90911618E+02</pdfrwt>
<totfact> 0.11120196E+05</totfact>
</mgrwt>
</event>
<event>
 5   1  0.1357339E+00  0.9191368E+02  0.7818608E-02  0.1298283E+00
         -1   -1    0    0    0  501 -0.00000000000E+00  0.00000000000E+00  0.59463732159E+01  0.59463750497E+01  0.46700000000E-02 0.  1.
          1   -1    0    0  501    0  0.00000000000E+00 -0.00000000000E+00 -0.35517965748E+03  0.35517965751E+03  0.46700000000E-02 0. -1.
         23    2    1    2    0    0  0.00000000000E+00  0.00000000000E+00 -0.34923328427E+03  0.36112603256E+03  0.91913679912E+02 0.  0.
        -11    1    3    3    0    0  0.43428970113E+02  0.13249861285E+02 -0.20250869128E+03  0.20753651320E+03  0.51100000000E-03 0. -1.
         11    1    3    3    0    0 -0.43428970113E+02 -0.13249861285E+02 -0.14672459299E+03  0.15358951936E+03  0.51100000000E-03 0.  1.
<mgrwt>
<rscale>  0 0.91913680E+02</rscale>
<asrwt>0</asrwt>
<pdfrwt beam="2">  1        1 0.54643008E-01 0.91913680E+02</pdfrwt>
<pdfrwt beam="1">  1       -1 0.91482707E-03 0.91913680E+02</pdfrwt>
<totfact> 0.12937612E+05</totfact>
</mgrwt>
</event>
<event>
 5   1  0.1357339E+00  0.9115956E+02  0.7818608E-02  0.1300068E+00
         -1   -1    0    0    0  501 -0.00000000000E+00  0.00000000000E+00  0.74655273136E+02  0.74655273282E+02  0.46700000000E-02 0.  1.
          1   -1    0    0  501    0  0.00000000000E+00 -0.00000000000E+00 -0.27828128224E+02  0.27828128616E+02  0.46700000000E-02 0. -1.
         23    2    1    2    0    0  0.00000000000E+00  0.00000000000E+00  0.46827144912E+02  0.10248340190E+03  0.91159564304E+02 0.  0.
        -11    1    3    3    0    0  0.41006868161E+02 -0.16543294981E+02  0.10982287100E+02  0.45561546017E+02  0.51100000000E-03 0. -1.
         11    1    3    3    0    0 -0.41006868161E+02  0.16543294981E+02  0.35844857812E+02  0.56921855882E+02  0.51100000000E-03 0.  1.
<mgrwt>
<rscale>  0 0.91159564E+02</rscale>
<asrwt>0</asrwt>
<pdfrwt beam="2">  1        1 0.42812506E-02 0.91159564E+02</pdfrwt>
<pdfrwt beam="1">  1       -1 0.11485427E-01 0.91159564E+02</pdfrwt>
<totfact> 0.85675468E+04</totfact>
</mgrwt>
</event>
<event>
 5   1  0.1357339E+00  0.9170199E+02  0.7818608E-02  0.1298782E+00
         -1   -1    0    0    0  501 -0.00000000000E+00  0.00000000000E+00  0.15390087350E+03  0.15390087357E+03  0.46700000000E-02 0.  1.
          1   -1    0    0  501    0  0.00000000000E+00 -0.00000000000E+00 -0.13660179147E+02  0.13660179945E+02  0.46700000000E-02 0. -1.
         23    2    1    2    0    0  0.00000000000E+00  0.00000000000E+00  0.14024069435E+03  0.16756105352E+03  0.91701986362E+02 0.  0.
        -11    1    3    3    0    0 -0.11004701654E+02 -0.43660940773E+02  0.85937527545E+02  0.97018760292E+02  0.51100000000E-03 0.  1.
         11    1    3    3    0    0  0.11004701654E+02  0.43660940773E+02  0.54303166808E+02  0.70542293225E+02  0.51100000000E-03 0. -1.
<mgrwt>
<rscale>  0 0.91701986E+02</rscale>
<asrwt>0</asrwt>
<pdfrwt beam="2">  1        1 0.21015662E-02 0.91701986E+02</pdfrwt>
<pdfrwt beam="1">  1       -1 0.23677056E-01 0.91701986E+02</pdfrwt>
<totfact> 0.73235097E+04</totfact>
</mgrwt>
</event>
<event>
 5   1  0.1357339E+00  0.9729958E+02  0.7818608E-02  0.1286079E+00
          1   -1    0    0  501    0  0.00000000000E+00  0.00000000000E+00  0.52648705148E+02  0.52648705356E+02  0.46700000000E-02 0. -1.
         -1   -1    0    0    0  501 -0.00000000000E+00 -0.00000000000E+00 -0.44954608582E+02  0.44954608825E+02  0.46700000000E-02 0.  1.
         23    2    1    2    0    0  0.00000000000E+00  0.00000000000E+00  0.76940965659E+01  0.97603314181E+02  0.97299577682E+02 0.  0.
        -11    1    3    3    0    0  0.27631374589E+02 -0.18208729067E+02 -0.31925897208E+02  0.45981665788E+02  0.51100000000E-03 0.  1.
         11    1    3    3    0    0 -0.27631374589E+02  0.18208729067E+02  0.39619993773E+02  0.51621648392E+02  0.51100000000E-03 0. -1.
<mgrwt>
<rscale>  0 0.97299578E+02</rscale>
<asrwt>0</asrwt>
<pdfrwt beam="1">  1        1 0.80998009E-02 0.97299578E+02</pdfrwt>
<pdfrwt beam="2">  1       -1 0.69160936E-02 0.97299578E+02</pdfrwt>
<totfact> 0.78742627E+04</totfact>
</mgrwt>
</event>
<event>
 5   1  0.1357339E+00  0.9111426E+02  0.7818608E-02  0.1300176E+00
         -1   -1    0    0    0  501 -0.00000000000E+00  0.00000000000E+00  0.42362947304E+02  0.42362947561E+02  0.46700000000E-02 0.  1.
          1   -1    0    0  501    0  0.00000000000E+00 -0.00000000000E+00 -0.48992149994E+02  0.48992150216E+02  0.46700000000E-02 0. -1.
         23    2    1    2    0    0  0.00000000000E+00  0.00000000000E+00 -0.66292026901E+01  0.91355097777E+02  0.91114255534E+02 0.  0.
        -11    1    3    3    0    0 -0.29206828615E+02 -0.33974065172E+02 -0.11593299506E+02  0.46278294435E+02  0.51100000000E-03 0. -1.
         11    1    3    3    0    0  0.29206828615E+02  0.33974065172E+02  0.49640968161E+01  0.45076803342E+02  0.51100000000E-03 0.  1.
<mgrwt>
<rscale>  0 0.91114256E+02</rscale>
<asrwt>0</asrwt>
<pdfrwt beam="2">  1        1 0.75372539E-02 0.91114256E+02</pdfrwt>
<pdfrwt beam="1">  1       -1 0.65173766E-02 0.91114256E+02</pdfrwt>
<totfact> 0.93657697E+04</totfact>
</mgrwt>
</event>
<event>
 5   1  0.1357339E+00  0.9858275E+02  0.7818608E-02  0.1283305E+00
          1   -1    0    0  501    0  0.00000000000E+00  0.00000000000E+00  0.13491686708E+03  0.13491686717E+03  0.46700000000E-02 0. -1.
         -1   -1    0    0    0  501 -0.00000000000E+00 -0.00000000000E+00 -0.18008421550E+02  0.18008422155E+02  0.46700000000E-02 0.  1.
         23    2    1    2    0    0  0.00000000000E+00  0.00000000000E+00  0.11690844553E+03  0.15292528932E+03  0.98582754458E+02 0.  0.
        -11    1    3    3    0    0 -0.50661830929E+01  0.23313656376E+02  0.12536360551E+03  0.12761358224E+03  0.51100000000E-03 0. -1.
         11    1    3    3    0    0  0.50661830929E+01 -0.23313656376E+02 -0.84551599790E+01  0.25311707080E+02  0.51100000000E-03 0.  1.
<mgrwt>
<rscale>  0 0.98582754E+02</rscale>
<asrwt>0</asrwt>
<pdfrwt beam="1">  1        1 0.20756441E-01 0.98582754E+02</pdfrwt>
<pdfrwt beam="2">  1       -1 0.27705265E-02 0.98582754E+02</pdfrwt>
<totfact> 0.88951643E+04</totfact>
</mgrwt>
</event>
<event>
 5   1  0.1357339E+00  0.9066459E+02  0.7818608E-02  0.1301250E+00
         -1   -1    0    0    0  501 -0.00000000000E+00  0.00000000000E+00  0.71977817315E+01  0.71977832465E+01  0.46700000000E-02 0.  1.
          1   -1    0    0  501    0  0.00000000000E+00 -0.00000000000E+00 -0.28550695404E+03  0.28550695407E+03  0.46700000000E-02 0. -1.
         23    2    1    2    0    0  0.00000000000E+00  0.00000000000E+00 -0.27830917230E+03  0.29270473732E+03  0.90664589897E+02 0.  0.
        -11    1    3    3    0    0  0.31586858980E+02  0.30772454094E+02 -0.17306750568E+03  0.17859741071E+03  0.51100000000E-03 0. -1.
         11    1    3    3    0    0 -0.31586858980E+02 -0.30772454094E+02 -0.10524166663E+03  0.11410732661E+03  0.51100000000E-03 0.  1.
<mgrwt>
<rscale>  0 0.90664590E+02</rscale>
<asrwt>0</asrwt>
<pdfrwt beam="2">  1        1 0.43924138E-01 0.90664590E+02</pdfrwt>
<pdfrwt beam="1">  1       -1 0.11073514E-02 0.90664590E+02</pdfrwt>
<totfact> 0.12883003E+05</totfact>
</mgrwt>
</event>
<event>
 5   1  0.1357339E+00  0.9069900E+02  0.7818608E-02  0.1301168E+00
          1   -1    0    0  501    0  0.00000000000E+00  0.00000000000E+00  0.33364006247E+02  0.33364006574E+02  0.46700000000E-02 0. -1.
         -1   -1    0    0    0  501 -0.00000000000E+00 -0.00000000000E+00 -0.61640587431E+02  0.61640587608E+02  0.46700000000E-02 0.  1.
         23    2    1    2    0    0  0.00000000000E+00  0.00000000000E+00 -0.28276581184E+02  0.95004594182E+02  0.90698995983E+02 0.  0.
        -11    1    3    3    0    0 -0.27455750744E+02  0.34892145348E+02 -0.23812350705E+02  0.50381624649E+02  0.51100000000E-03 0. -1.
         11    1    3    3    0    0  0.27455750744E+02 -0.34892145348E+02 -0.44642304790E+01  0.44622969533E+02  0.51100000000E-03 0.  1.
<mgrwt>
<rscale>  0 0.90698996E+02</rscale>
<asrwt>0</asrwt>
<pdfrwt beam="1">  1        1 0.51329241E-02 0.90698996E+02</pdfrwt>
<pdfrwt beam="2">  1       -1 0.94831673E-02 0.90698996E+02</pdfrwt>
<totfact> 0.89492689E+04</totfact>
</mgrwt>
</event>
<event>
 5   1  0.1357339E+00  0.9064446E+02  0.7818608E-02  0.1301299E+00
          1   -1    0    0  501    0  0.00000000000E+00  0.00000000000E+00  0.22437412972E+03  0.22437412977E+03  0.46700000000E-02 0. -1.
         -1   -1    0    0    0  501 -0.00000000000E+00 -0.00000000000E+00 -0.91548176421E+01  0.91548188333E+01  0.46700000000E-02 0.  1.
         23    2    1    2    0    0  0.00000000000E+00  0.00000000000E+00  0.21521931208E+03  0.23352894860E+03  0.90644456773E+02 0.  0.
        -11    1    3    3    0    0  0.10502149390E+02 -0.35974667127E+02  0.41944743766E+02  0.56247963043E+02  0.51100000000E-03 0.  1.
         11    1    3    3    0    0 -0.10502149390E+02  0.35974667127E+02  0.17327456831E+03  0.17728098556E+03  0.51100000000E-03 0. -1.
<mgrwt>
<rscale>  0 0.90644457E+02</rscale>
<asrwt>0</asrwt>
<pdfrwt beam="1">  1        1 0.34519100E-01 0.90644457E+02</pdfrwt>
<pdfrwt beam="2">  1       -1 0.14084334E-02 0.90644457E+02</pdfrwt>
<totfact> 0.12299939E+05</totfact>
</mgrwt>
</event>
<event>
 5   1  0.1357339E+00  0.9254781E+02  0.7818608E-02  0.1296797E+00
          1   -1    0    0  501    0  0.00000000000E+00  0.00000000000E+00  0.14563916803E+03  0.14563916810E+03  0.46700000000E-02 0. -1.
         -1   -1    0    0    0  501 -0.00000000000E+00 -0.00000000000E+00 -0.14702599676E+02  0.14702600418E+02  0.46700000000E-02 0.  1.
         23    2    1    2    0    0  0.00000000000E+00  0.00000000000E+00  0.13093656835E+03  0.16034176852E+03  0.92547813592E+02 0.  0.
        -11    1    3    3    0    0  0.30847331743E+02 -0.13281399333E+02  0.12061936514E+03  0.12520776609E+03  0.51100000000E-03 0. -1.
         11    1    3    3    0    0 -0.30847331743E+02  0.13281399333E+02  0.10317203211E+02  0.35134002423E+02  0.51100000000E-03 0.  1.
<mgrwt>
<rscale>  0 0.92547814E+02</rscale>
<asrwt>0</asrwt>
<pdfrwt beam="1">  1        1 0.22406026E-01 0.92547814E+02</pdfrwt>
<pdfrwt beam="2">  1       -1 0.22619384E-02 0.92547814E+02</pdfrwt>
<totfact> 0.10711650E+05</totfact>
</mgrwt>
</event>
<event>
 5   1  0.1357339E+00  0.9094518E+02  0.7818608E-02  0.1300579E+00
         -1   -1    0    0    0  501 -0.00000000000E+00  0.00000000000E+00  0.13820012959E+02  0.13820013748E+02  0.46700000000E-02 0.  1.
          1   -1    0    0  501    0  0.00000000000E+00 -0.00000000000E+00 -0.14962044205E+03  0.14962044212E+03  0.46700000000E-02 0. -1.
         23    2    1    2    0    0  0.00000000000E+00  0.00000000000E+00 -0.13580042909E+03  0.16344045587E+03  0.90945181697E+02 0.  0.
        -11    1    3    3    0    0  0.40367521675E+02  0.91493363176E+01 -0.34063068858E+02  0.53605408510E+02  0.51100000000E-03 0.  1.
         11    1    3    3    0    0 -0.40367521675E+02 -0.91493363176E+01 -0.10173736023E+03  0.10983504736E+03  0.51100000000E-03 0. -1.
<mgrwt>
<rscale>  0 0.90945182E+02</rscale>
<asrwt>0</asrwt>
<pdfrwt beam="2">  1        1 0.23018528E-01 0.90945182E+02</pdfrwt>
<pdfrwt beam="1">  1       -1 0.21261560E-02 0.90945182E+02</pdfrwt>
<totfact> 0.11285247E+05</totfact>
</mgrwt>
</event>
<event>
 5   1  0.1357339E+00  0.8951112E+02  0.7818608E-02  0.1304040E+00
         -1   -1    0    0    0  501 -0.00000000000E+00  0.00000000000E+00  0.30366593257E+02  0.30366593616E+02  0.46700000000E-02 0.  1.
          1   -1    0    0  501    0  0.00000000000E+00 -0.00000000000E+00 -0.65962624695E+02  0.65962624861E+02  0.46700000000E-02 0. -1.
         23    2    1    2    0    0  0.00000000000E+00  0.00000000000E+00 -0.35596031438E+02  0.96329218477E+02  0.89511121534E+02 0.  0.
        -11    1    3    3    0    0 -0.64436096516E+01  0.29583723236E+02  0.17672263724E+02  0.35057462704E+02  0.51100000000E-03 0.  1.
         11    1    3    3    0    0  0.64436096516E+01 -0.29583723236E+02 -0.53268295162E+02  0.61271755773E+02  0.51100000000E-03 0. -1.
<mgrwt>
<rscale>  0 0.89511122E+02</rscale>
<asrwt>0</asrwt>
<pdfrwt beam="2">  1        1 0.10148096E-01 0.89511122E+02</pdfrwt>
<pdfrwt beam="1">  1       -1 0.46717837E-02 0.89511122E+02</pdfrwt>
<totfact> 0.10287056E+05</totfact>
</mgrwt>
</event>
<event>
 5   1  0.1357339E+00  0.8888052E+02  0.7818608E-02  0.1305586E+00
         -1   -1    0    0    0  501 -0.00000000000E+00  0.00000000000E+00  0.32568684481E+02  0.32568684816E+02  0.46700000000E-02 0.  1.
          1   -1    0    0  501    0  0.00000000000E+00 -0.00000000000E+00 -0.60639128186E+02  0.60639128365E+02  0.46700000000E-02 0. -1.
         23    2    1    2    0    0  0.00000000000E+00  0.00000000000E+00 -0.28070443705E+02  0.93207813181E+02  0.88880518834E+02 0.  0.
        -11    1    3    3    0    0 -0.42466076386E+02 -0.44461443101E+01 -0.11146186959E+01  0.42712740698E+02  0.51100000000E-03 0. -1.
         11    1    3    3    0    0  0.42466076386E+02  0.44461443101E+01 -0.26955825009E+02  0.50495072483E+02  0.51100000000E-03 0.  1.
<mgrwt>
<rscale>  0 0.88880519E+02</rscale>
<asrwt>0</asrwt>
<pdfrwt beam="2">  1        1 0.93290966E-02 0.88880519E+02</pdfrwt>
<pdfrwt beam="1">  1       -1 0.50105669E-02 0.88880519E+02</pdfrwt>
<totfact> 0.10357989E+05</totfact>
</mgrwt>
</event>
<event>
 5   1  0.1357339E+00  0.9178662E+02  0.7818608E-02  0.1298582E+00
          1   -1    0    0  501    0  0.00000000000E+00  0.00000000000E+00  0.38149020520E+02  0.38149020805E+02  0.46700000000E-02 0. -1.
         -1   -1    0    0    0  501 -0.00000000000E+00 -0.00000000000E+00 -0.55209697598E+02  0.55209697796E+02  0.46700000000E-02 0.  1.
         23    2    1    2    0    0  0.00000000000E+00  0.00000000000E+00 -0.17060677079E+02  0.93358718601E+02  0.91786620139E+02 0.  0.
        -11    1    3    3    0    0 -0.40569377024E+02  0.99992894786E+01 -0.27837978427E+02  0.50207700458E+02  0.51100000000E-03 0. -1.
         11    1    3    3    0    0  0.40569377024E+02 -0.99992894786E+01  0.10777301348E+02  0.43151018143E+02  0.51100000000E-03 0.  1.
<mgrwt>
<rscale>  0 0.91786620E+02</rscale>
<asrwt>0</asrwt>
<pdfrwt beam="1">  1        1 0.58690801E-02 0.91786620E+02</pdfrwt>
<pdfrwt beam="2">  1       -1 0.84937997E-02 0.91786620E+02</pdfrwt>
<totfact> 0.88325478E+04</totfact>
</mgrwt>
</event>
<event>
 5   1  0.1357339E+00  0.9425822E+02  0.7818608E-02  0.1292856E+00
          1   -1    0    0  501    0  0.00000000000E+00  0.00000000000E+00  0.75223300774E+01  0.75223315270E+01  0.46700000000E-02 0. -1.
         -1   -1    0    0    0  501 -0.00000000000E+00 -0.00000000000E+00 -0.29527459681E+03  0.29527459684E+03  0.46700000000E-02 0.  1.
         23    2    1    2    0    0  0.00000000000E+00  0.00000000000E+00 -0.28775226673E+03  0.30279692837E+03  0.94258224166E+02 0.  0.
        -11    1    3    3    0    0 -0.40490819475E+02  0.24077362129E+02 -0.13941633210E+03  0.14716025104E+03  0.51100000000E-03 0.  1.
         11    1    3    3    0    0  0.40490819475E+02 -0.24077362129E+02 -0.14833593463E+03  0.15563667733E+03  0.51100000000E-03 0. -1.
<mgrwt>
<rscale>  0 0.94258224E+02</rscale>
<asrwt>0</asrwt>
<pdfrwt beam="1">  1        1 0.11572819E-02 0.94258224E+02</pdfrwt>
<pdfrwt beam="2">  1       -1 0.45426852E-01 0.94258224E+02</pdfrwt>
<totfact> 0.55880576E+04</totfact>
</mgrwt>
</event>
<event>
 4   1  0.1357339E+00  0.5069164E+02  0.7818608E-02  0.1441646E+00
          1   -1    0    0  501    0  0.00000000000E+00  0.00000000000E+00  0.25840093981E+03  0.25840093986E+03  0.46700000000E-02 0. -1.
         -1   -1    0    0    0  501 -0.00000000000E+00 -0.00000000000E+00 -0.24860978775E+01  0.24861022636E+01  0.46700000000E-02 0.  1.
        -11    1    1    2    0    0  0.23392904200E+02 -0.93342017839E+01  0.14256430030E+03  0.14477201045E+03  0.51100000000E-03 0. -1.
         11    1    1    2    0    0 -0.23392904200E+02  0.93342017839E+01  0.11335054164E+03  0.11611503167E+03  0.51100000000E-03 0.  1.
<mgrwt>
<rscale>  0 0.50691641E+02</rscale>
<asrwt>0</asrwt>
<pdfrwt beam="1">  1        1 0.39753976E-01 0.50691641E+02</pdfrwt>
<pdfrwt beam="2">  1       -1 0.38247708E-03 0.50691641E+02</pdfrwt>
<totfact> 0.56805376E+05</totfact>
</mgrwt>
</event>
<event>
 5   1  0.1357339E+00  0.9126922E+02  0.7818608E-02  0.1299807E+00
         -1   -1    0    0    0  501 -0.00000000000E+00  0.00000000000E+00  0.59973761471E+02  0.59973761652E+02  0.46700000000E-02 0.  1.
          1   -1    0    0  501    0  0.00000000000E+00 -0.00000000000E+00 -0.34723813572E+02  0.34723813886E+02  0.46700000000E-02 0. -1.
         23    2    1    2    0    0  0.00000000000E+00  0.00000000000E+00  0.25249947899E+02  0.94697575538E+02  0.91269222326E+02 0.  0.
        -11    1    3    3    0    0  0.30183884544E+01  0.16504158076E+02  0.56657515935E+02  0.59089525425E+02  0.51100000000E-03 0.  1.
         11    1    3    3    0    0 -0.30183884544E+01 -0.16504158076E+02 -0.31407568037E+02  0.35608050114E+02  0.51100000000E-03 0. -1.
<mgrwt>
<rscale>  0 0.91269222E+02</rscale>
<asrwt>0</asrwt>
<pdfrwt beam="2">  1        1 0.53421252E-02 0.91269222E+02</pdfrwt>
<pdfrwt beam="1">  1       -1 0.92267326E-02 0.91269222E+02</pdfrwt>
<totfact> 0.88458924E+04</totfact>
</mgrwt>
</event>
<event>
 5   1  0.1357339E+00  0.9070277E+02  0.7818608E-02  0.1301159E+00
          1   -1    0    0  501    0  0.00000000000E+00  0.00000000000E+00  0.11332672348E+03  0.11332672358E+03  0.46700000000E-02 0. -1.
         -1   -1    0    0    0  501 -0.00000000000E+00 -0.00000000000E+00 -0.18148835675E+02  0.18148836275E+02  0.46700000000E-02 0.  1.
         23    2    1    2    0    0  0.00000000000E+00  0.00000000000E+00  0.95177887809E+02  0.13147555985E+03  0.90702770142E+02 0.  0.
        -11    1    3    3    0    0  0.12429482673E+02  0.33957187680E+02  0.79142704947E+01  0.37016460020E+02  0.51100000000E-03 0.  1.
         11    1    3    3    0    0 -0.12429482673E+02 -0.33957187680E+02  0.87263617314E+02  0.94459099835E+02  0.51100000000E-03 0. -1.
<mgrwt>
<rscale>  0 0.90702770E+02</rscale>
<asrwt>0</asrwt>
<pdfrwt beam="1">  1        1 0.17434880E-01 0.90702770E+02</pdfrwt>
<pdfrwt beam="2">  1       -1 0.27921287E-02 0.90702770E+02</pdfrwt>
<totfact> 0.10820089E+05</totfact>
</mgrwt>
</event>
<event>
 5   1  0.1357339E+00  0.8834847E+02  0.7818608E-02  0.1306901E+00
         -1   -1    0    0    0  501 -0.00000000000E+00  0.00000000000E+00  0.49662049257E+01  0.49662071215E+01  0.46700000000E-02 0. -1.
          1   -1    0    0  501    0  0.00000000000E+00 -0.00000000000E+00 -0.39292835721E+03  0.39292835723E+03  0.46700000000E-02 0.  1.
         23    2    1    2    0    0  0.00000000000E+00  0.00000000000E+00 -0.38796215228E+03  0.39789456436E+03  0.88348473340E+02 0.  0.
        -11    1    3    3    0    0 -0.29267433512E+02  0.32911915455E+02 -0.20931107511E+03  0.21389460724E+03  0.51100000000E-03 0.  1.
         11    1    3    3    0    0  0.29267433512E+02 -0.32911915455E+02 -0.17865107718E+03  0.18399995712E+03  0.51100000000E-03 0. -1.
<mgrwt>
<rscale>  0 0.88348473E+02</rscale>
<asrwt>0</asrwt>
<pdfrwt beam="2">  1        1 0.60450492E-01 0.88348473E+02</pdfrwt>
<pdfrwt beam="1">  1       -1 0.76403201E-03 0.88348473E+02</pdfrwt>
<totfact> 0.14621068E+05</totfact>
</mgrwt>
</event>
<event>
 5   1  0.1357339E+00  0.9108717E+02  0.7818608E-02  0.1300240E+00
          1   -1    0    0  501    0  0.00000000000E+00  0.00000000000E+00  0.91203527668E+01  0.91203539624E+01  0.46700000000E-02 0. -1.
         -1   -1    0    0    0  501 -0.00000000000E+00 -0.00000000000E+00 -0.22742739995E+03  0.22742740000E+03  0.46700000000E-02 0.  1.
         23    2    1    2    0    0  0.00000000000E+00  0.00000000000E+00 -0.21830704718E+03  0.23654775396E+03  0.91087172828E+02 0.  0.
        -11    1    3    3    0    0  0.38222298953E+02  0.51029696867E+01 -0.46222160561E+02  0.60195286892E+02  0.51100000000E-03 0. -1.
         11    1    3    3    0    0 -0.38222298953E+02 -0.51029696867E+01 -0.17208488662E+03  0.17635246707E+03  0.51100000000E-03 0.  1.
<mgrwt>
<rscale>  0 0.91087173E+02</rscale>
<asrwt>0</asrwt>
<pdfrwt beam="1">  1        1 0.14031315E-02 0.91087173E+02</pdfrwt>
<pdfrwt beam="2">  1       -1 0.34988827E-01 0.91087173E+02</pdfrwt>
<totfact> 0.66970036E+04</totfact>
</mgrwt>
</event>
<event>
 5   1  0.1357339E+00  0.1052579E+03  0.7818608E-02  0.1269612E+00
         -1   -1    0    0    0  501 -0.00000000000E+00  0.00000000000E+00  0.61118829078E+02  0.61118829257E+02  0.46700000000E-02 0.  1.
          1   -1    0    0  501    0  0.00000000000E+00 -0.00000000000E+00 -0.45318403334E+02  0.45318403575E+02  0.46700000000E-02 0. -1.
         23    2    1    2    0    0  0.00000000000E+00  0.00000000000E+00  0.15800425744E+02  0.10643723283E+03  0.10525792644E+03 0.  0.
        -11    1    3    3    0    0  0.44385689723E+02 -0.18198528392E+02 -0.13987900978E+02  0.49969363233E+02  0.51100000000E-03 0.  1.
         11    1    3    3    0    0 -0.44385689723E+02  0.18198528392E+02  0.29788326722E+02  0.56467869599E+02  0.51100000000E-03 0. -1.
<mgrwt>
<rscale>  0 0.10525793E+03</rscale>
<asrwt>0</asrwt>
<pdfrwt beam="2">  1        1 0.69720621E-02 0.10525793E+03</pdfrwt>
<pdfrwt beam="1">  1       -1 0.94028967E-02 0.10525793E+03</pdfrwt>
<totfact> 0.61414263E+04</totfact>
</mgrwt>
</event>
<event>
 5   1  0.1357339E+00  0.9182784E+02  0.7818608E-02  0.1298485E+00
         -1   -1    0    0    0  501 -0.00000000000E+00  0.00000000000E+00  0.13899998874E+02  0.13899999659E+02  0.46700000000E-02 0.  1.
          1   -1    0    0  501    0  0.00000000000E+00 -0.00000000000E+00 -0.15166101819E+03  0.15166101826E+03  0.46700000000E-02 0. -1.
         23    2    1    2    0    0  0.00000000000E+00  0.00000000000E+00 -0.13776101932E+03  0.16556101792E+03  0.91827840070E+02 0.  0.
        -11    1    3    3    0    0 -0.29440386050E+02  0.15030337901E+01 -0.54153170514E+01  0.29972005278E+02  0.51100000000E-03 0.  1.
         11    1    3    3    0    0  0.29440386050E+02 -0.15030337901E+01 -0.13234570227E+03  0.13558901264E+03  0.51100000000E-03 0. -1.
<mgrwt>
<rscale>  0 0.91827840E+02</rscale>
<asrwt>0</asrwt>
<pdfrwt beam="2">  1        1 0.23332463E-01 0.91827840E+02</pdfrwt>
<pdfrwt beam="1">  1       -1 0.21384615E-02 0.91827840E+02</pdfrwt>
<totfact> 0.11022200E+05</totfact>
</mgrwt>
</event>
<event>
 5   1  0.1357339E+00  0.9038691E+02  0.7818608E-02  0.1301917E+00
         -1   -1    0    0    0  501 -0.00000000000E+00  0.00000000000E+00  0.77016482923E+01  0.77016497082E+01  0.46700000000E-02 0.  1.
          1   -1    0    0  501    0  0.00000000000E+00 -0.00000000000E+00 -0.26519621889E+03  0.26519621893E+03  0.46700000000E-02 0. -1.
         23    2    1    2    0    0  0.00000000000E+00  0.00000000000E+00 -0.25749457060E+03  0.27289786864E+03  0.90386906245E+02 0.  0.
        -11    1    3    3    0    0 -0.19118990996E+02 -0.33344100222E+02 -0.56975973379E+02  0.68728643076E+02  0.51100000000E-03 0.  1.
         11    1    3    3    0    0  0.19118990996E+02  0.33344100222E+02 -0.20051859722E+03  0.20416922556E+03  0.51100000000E-03 0. -1.
<mgrwt>
<rscale>  0 0.90386906E+02</rscale>
<asrwt>0</asrwt>
<pdfrwt beam="2">  1        1 0.40799411E-01 0.90386906E+02</pdfrwt>
<pdfrwt beam="1">  1       -1 0.11848693E-02 0.90386906E+02</pdfrwt>
<totfact> 0.12804004E+05</totfact>
</mgrwt>
</event>
<event>
 5   1  0.1357339E+00  0.8989682E+02  0.7818608E-02  0.1303102E+00
         -1   -1    0    0    0  501 -0.00000000000E+00  0.00000000000E+00  0.47053374164E+03  0.47053374167E+03  0.46700000000E-02 0.  1.
          1   -1    0    0  501    0  0.00000000000E+00 -0.00000000000E+00 -0.42937604155E+01  0.42937629551E+01  0.46700000000E-02 0. -1.
         23    2    1    2    0    0  0.00000000000E+00  0.00000000000E+00  0.46623998123E+03  0.47482750462E+03  0.89896824471E+02 0.  0.
        -11    1    3    3    0    0  0.16589557073E+02  0.41708595573E+02  0.24555148720E+03  0.24962041826E+03  0.51100000000E-03 0.  1.
         11    1    3    3    0    0 -0.16589557073E+02 -0.41708595573E+02  0.22068849403E+03  0.22520708636E+03  0.51100000000E-03 0. -1.
<mgrwt>
<rscale>  0 0.89896824E+02</rscale>
<asrwt>0</asrwt>
<pdfrwt beam="2">  1        1 0.66057898E-03 0.89896824E+02</pdfrwt>
<pdfrwt beam="1">  1       -1 0.72389778E-01 0.89896824E+02</pdfrwt>
<totfact> 0.50630183E+04</totfact>
</mgrwt>
</event>
<event>
 5   1  0.1357339E+00  0.9221055E+02  0.7818608E-02  0.1297585E+00
          1   -1    0    0  501    0  0.00000000000E+00  0.00000000000E+00  0.12294451138E+03  0.12294451147E+03  0.46700000000E-02 0. -1.
         -1   -1    0    0    0  501 -0.00000000000E+00 -0.00000000000E+00 -0.17289883060E+02  0.17289883691E+02  0.46700000000E-02 0.  1.
         23    2    1    2    0    0  0.00000000000E+00  0.00000000000E+00  0.10565462832E+03  0.14023439516E+03  0.92210547663E+02 0.  0.
        -11    1    3    3    0    0 -0.70706249629E+01  0.36301462276E+02  0.94695266781E+02  0.10166112065E+03  0.51100000000E-03 0.  1.
         11    1    3    3    0    0  0.70706249629E+01 -0.36301462276E+02  0.10959361537E+02  0.38573274508E+02  0.51100000000E-03 0. -1.
<mgrwt>
<rscale>  0 0.92210548E+02</rscale>
<asrwt>0</asrwt>
<pdfrwt beam="1">  1        1 0.18914540E-01 0.92210548E+02</pdfrwt>
<pdfrwt beam="2">  1       -1 0.26599821E-02 0.92210548E+02</pdfrwt>
<totfact> 0.10493431E+05</totfact>
</mgrwt>
</event>
<event>
 5   1  0.1357339E+00  0.9457854E+02  0.7818608E-02  0.1292128E+00
         -1   -1    0    0    0  501 -0.00000000000E+00  0.00000000000E+00  0.16031925567E+02  0.16031926247E+02  0.46700000000E-02 0.  1.
          1   -1    0    0  501    0  0.00000000000E+00 -0.00000000000E+00 -0.13948886638E+03  0.13948886646E+03  0.46700000000E-02 0. -1.
         23    2    1    2    0    0  0.00000000000E+00  0.00000000000E+00 -0.12345694081E+03  0.15552079270E+03  0.94578542645E+02 0.  0.
        -11    1    3    3    0    0 -0.16164644832E+02 -0.42515834993E+02 -0.40454341069E+02  0.60872372052E+02  0.51100000000E-03 0.  1.
         11    1    3    3    0    0  0.16164644832E+02  0.42515834993E+02 -0.83002599743E+02  0.94648420652E+02  0.51100000000E-03 0. -1.
<mgrwt>
<rscale>  0 0.94578543E+02</rscale>
<asrwt>0</asrwt>
<pdfrwt beam="2">  1        1 0.21459825E-01 0.94578543E+02</pdfrwt>
<pdfrwt beam="1">  1       -1 0.24664502E-02 0.94578543E+02</pdfrwt>
<totfact> 0.10019882E+05</totfact>
</mgrwt>
</event>
<event>
 5   1  0.1357339E+00  0.8618020E+02  0.7818608E-02  0.1312375E+00
         -1   -1    0    0    0  501 -0.00000000000E+00  0.00000000000E+00  0.71005817489E+02  0.71005817642E+02  0.46700000000E-02 0.  1.
          1   -1    0    0  501    0  0.00000000000E+00 -0.00000000000E+00 -0.26149361391E+02  0.26149361808E+02  0.46700000000E-02 0. -1.
         23    2    1    2    0    0  0.00000000000E+00  0.00000000000E+00  0.44856456098E+02  0.97155179450E+02  0.86180202137E+02 0.  0.
        -11    1    3    3    0    0 -0.34925508303E+02 -0.15564456825E+02  0.44825718747E+02  0.58918490374E+02  0.51100000000E-03 0.  1.
         11    1    3    3    0    0  0.34925508303E+02  0.15564456825E+02  0.30737350550E-01  0.38236689076E+02  0.51100000000E-03 0. -1.
<mgrwt>
<rscale>  0 0.86180202E+02</rscale>
<asrwt>0</asrwt>
<pdfrwt beam="2">  1        1 0.40229788E-02 0.86180202E+02</pdfrwt>
<pdfrwt beam="1">  1       -1 0.10923972E-01 0.86180202E+02</pdfrwt>
<totfact> 0.99667191E+04</totfact>
</mgrwt>
</event>
<event>
 5   1  0.1357339E+00  0.9126277E+02  0.7818608E-02  0.1299822E+00
         -1   -1    0    0    0  501 -0.00000000000E+00  0.00000000000E+00  0.11839619451E+03  0.11839619460E+03  0.46700000000E-02 0.  1.
          1   -1    0    0  501    0  0.00000000000E+00 -0.00000000000E+00 -0.17586908366E+02  0.17586908986E+02  0.46700000000E-02 0. -1.
         23    2    1    2    0    0  0.00000000000E+00  0.00000000000E+00  0.10080928614E+03  0.13598310358E+03  0.91262765071E+02 0.  0.
        -11    1    3    3    0    0  0.90881608820E+00 -0.25932509082E+02  0.10633295792E+03  0.10945327275E+03  0.51100000000E-03 0.  1.
         11    1    3    3    0    0 -0.90881608820E+00  0.25932509082E+02 -0.55236717848E+01  0.26529830837E+02  0.51100000000E-03 0. -1.
<mgrwt>
<rscale>  0 0.91262765E+02</rscale>
<asrwt>0</asrwt>
<pdfrwt beam="2">  1        1 0.27056782E-02 0.91262765E+02</pdfrwt>
<pdfrwt beam="1">  1       -1 0.18214800E-01 0.91262765E+02</pdfrwt>
<totfact> 0.78554596E+04</totfact>
</mgrwt>
</event>
<event>
 5   1  0.1357339E+00  0.8783612E+02  0.7818608E-02  0.1308178E+00
         -1   -1    0    0    0  501 -0.00000000000E+00  0.00000000000E+00  0.81972251525E+02  0.81972251658E+02  0.46700000000E-02 0.  1.
          1   -1    0    0  501    0  0.00000000000E+00 -0.00000000000E+00 -0.23529863769E+02  0.23529864232E+02  0.46700000000E-02 0. -1.
         23    2    1    2    0    0  0.00000000000E+00  0.00000000000E+00  0.58442387756E+02  0.10550211589E+03  0.87836118827E+02 0.  0.
        -11    1    3    3    0    0 -0.27130560593E+02  0.33203509906E+02  0.17810159837E+02  0.46429970728E+02  0.51100000000E-03 0. -1.
         11    1    3    3    0    0  0.27130560593E+02 -0.33203509906E+02  0.40632227918E+02  0.59072145162E+02  0.51100000000E-03 0.  1.
<mgrwt>
<rscale>  0 0.87836119E+02</rscale>
<asrwt>0</asrwt>
<pdfrwt beam="2">  1        1 0.36199791E-02 0.87836119E+02</pdfrwt>
<pdfrwt beam="1">  1       -1 0.12611116E-01 0.87836119E+02</pdfrwt>
<totfact> 0.92748310E+04</totfact>
</mgrwt>
</event>
<event>
 5   1  0.1357339E+00  0.1067613E+03  0.7818608E-02  0.1266688E+00
         -1   -1    0    0    0  501 -0.00000000000E+00  0.00000000000E+00  0.87440420173E+02  0.87440420297E+02  0.46700000000E-02 0.  1.
          1   -1    0    0  501    0  0.00000000000E+00 -0.00000000000E+00 -0.32587827196E+02  0.32587827531E+02  0.46700000000E-02 0. -1.
         23    2    1    2    0    0  0.00000000000E+00  0.00000000000E+00  0.54852592977E+02  0.12002824783E+03  0.10676129130E+03 0.  0.
        -11    1    3    3    0    0 -0.44964116410E+02 -0.14025029864E+02 -0.81543019719E+00  0.47107729237E+02  0.51100000000E-03 0.  1.
         11    1    3    3    0    0  0.44964116410E+02  0.14025029864E+02  0.55668023174E+02  0.72920518591E+02  0.51100000000E-03 0. -1.
<mgrwt>
<rscale>  0 0.10676129E+03</rscale>
<asrwt>0</asrwt>
<pdfrwt beam="2">  1        1 0.50135119E-02 0.10676129E+03</pdfrwt>
<pdfrwt beam="1">  1       -1 0.13452372E-01 0.10676129E+03</pdfrwt>
<totfact> 0.55561334E+04</totfact>
</mgrwt>
</event>
<event>
 5   1  0.1357339E+00  0.9695959E+02  0.7818608E-02  0.1286823E+00
         -1   -1    0    0    0  501 -0.00000000000E+00  0.00000000000E+00  0.98022165568E+01  0.98022176693E+01  0.46700000000E-02 0.  1.
          1   -1    0    0  501    0  0.00000000000E+00 -0.00000000000E+00 -0.23977130814E+03  0.23977130818E+03  0.46700000000E-02 0. -1.
         23    2    1    2    0    0  0.00000000000E+00  0.00000000000E+00 -0.22996909158E+03  0.24957352585E+03  0.96959588097E+02 0.  0.
        -11    1    3    3    0    0  0.47666670696E+02 -0.83038293839E+01 -0.10716648128E+03  0.11758282097E+03  0.51100000000E-03 0.  1.
         11    1    3    3    0    0 -0.47666670696E+02  0.83038293839E+01 -0.12280261030E+03  0.13199070488E+03  0.51100000000E-03 0. -1.
<mgrwt>
<rscale>  0 0.96959588E+02</rscale>
<asrwt>0</asrwt>
<pdfrwt beam="2">  1        1 0.36887889E-01 0.96959588E+02</pdfrwt>
<pdfrwt beam="1">  1       -1 0.15080336E-02 0.96959588E+02</pdfrwt>
<totfact> 0.10400466E+05</totfact>
</mgrwt>
</event>
<event>
 5   1  0.1357339E+00  0.9965297E+02  0.7818608E-02  0.1281027E+00
          1   -1    0    0  501    0  0.00000000000E+00  0.00000000000E+00  0.19544418071E+02  0.19544418629E+02  0.46700000000E-02 0. -1.
         -1   -1    0    0    0  501 -0.00000000000E+00 -0.00000000000E+00 -0.12702748787E+03  0.12702748796E+03  0.46700000000E-02 0.  1.
         23    2    1    2    0    0  0.00000000000E+00  0.00000000000E+00 -0.10748306980E+03  0.14657190659E+03  0.99652965370E+02 0.  0.
        -11    1    3    3    0    0 -0.13420574061E+02 -0.28494020134E+02  0.30455308262E+01  0.31643265473E+02  0.51100000000E-03 0. -1.
         11    1    3    3    0    0  0.13420574061E+02  0.28494020134E+02 -0.11052860063E+03  0.11492864112E+03  0.51100000000E-03 0.  1.
<mgrwt>
<rscale>  0 0.99652965E+02</rscale>
<asrwt>0</asrwt>
<pdfrwt beam="1">  1        1 0.30068337E-02 0.99652965E+02</pdfrwt>
<pdfrwt beam="2">  1       -1 0.19542690E-01 0.99652965E+02</pdfrwt>
<totfact> 0.61622577E+04</totfact>
</mgrwt>
</event>
<event>
 5   1  0.1357339E+00  0.9012329E+02  0.7818608E-02  0.1302553E+00
         -1   -1    0    0    0  501 -0.00000000000E+00  0.00000000000E+00  0.28225522206E+02  0.28225522592E+02  0.46700000000E-02 0.  1.
          1   -1    0    0  501    0  0.00000000000E+00 -0.00000000000E+00 -0.71940270562E+02  0.71940270714E+02  0.46700000000E-02 0. -1.
         23    2    1    2    0    0  0.00000000000E+00  0.00000000000E+00 -0.43714748357E+02  0.10016579331E+03  0.90123287361E+02 0.  0.
        -11    1    3    3    0    0  0.10406385631E+02 -0.95935026898E+01  0.25690869833E+02  0.29331705521E+02  0.51100000000E-03 0.  1.
         11    1    3    3    0    0 -0.10406385631E+02  0.95935026898E+01 -0.69405618189E+02  0.70834087784E+02  0.51100000000E-03 0. -1.
<mgrwt>
<rscale>  0 0.90123287E+02</rscale>
<asrwt>0</asrwt>
<pdfrwt beam="2">  1        1 0.11067734E-01 0.90123287E+02</pdfrwt>
<pdfrwt beam="1">  1       -1 0.43423881E-02 0.90123287E+02</pdfrwt>
<totfact> 0.10230428E+05</totfact>
</mgrwt>
</event>
<event>
 5   1  0.1357339E+00  0.9193784E+02  0.7818608E-02  0.1298226E+00
         -1   -1    0    0    0  501 -0.00000000000E+00  0.00000000000E+00  0.14596602000E+03  0.14596602008E+03  0.46700000000E-02 0.  1.
          1   -1    0    0  501    0  0.00000000000E+00 -0.00000000000E+00 -0.14476941260E+02  0.14476942013E+02  0.46700000000E-02 0. -1.
         23    2    1    2    0    0  0.00000000000E+00  0.00000000000E+00  0.13148907874E+03  0.16044296209E+03  0.91937839086E+02 0.  0.
        -11    1    3    3    0    0 -0.36962302531E+02  0.37791749659E+01  0.18508449229E+02  0.41509717717E+02  0.51100000000E-03 0. -1.
         11    1    3    3    0    0  0.36962302531E+02 -0.37791749659E+01  0.11298062951E+03  0.11893324437E+03  0.51100000000E-03 0.  1.
<mgrwt>
<rscale>  0 0.91937839E+02</rscale>
<asrwt>0</asrwt>
<pdfrwt beam="2">  1        1 0.22272218E-02 0.91937839E+02</pdfrwt>
<pdfrwt beam="1">  1       -1 0.22456311E-01 0.91937839E+02</pdfrwt>
<totfact> 0.73655851E+04</totfact>
</mgrwt>
</event>
<event>
 5   1  0.1357339E+00  0.9262897E+02  0.7818608E-02  0.1296607E+00
         -1   -1    0    0    0  501 -0.00000000000E+00  0.00000000000E+00  0.13658815176E+02  0.13658815974E+02  0.46700000000E-02 0.  1.
          1   -1    0    0  501    0  0.00000000000E+00 -0.00000000000E+00 -0.15704372640E+03  0.15704372647E+03  0.46700000000E-02 0. -1.
         23    2    1    2    0    0  0.00000000000E+00  0.00000000000E+00 -0.14338491123E+03  0.17070254245E+03  0.92628965396E+02 0.  0.
        -11    1    3    3    0    0 -0.27877162639E+02 -0.23133142612E+02 -0.18512100484E+02  0.40681400523E+02  0.51100000000E-03 0.  1.
         11    1    3    3    0    0  0.27877162639E+02  0.23133142612E+02 -0.12487281075E+03  0.13002114193E+03  0.51100000000E-03 0. -1.
<mgrwt>
<rscale>  0 0.92628965E+02</rscale>
<asrwt>0</asrwt>
<pdfrwt beam="2">  1        1 0.24160572E-01 0.92628965E+02</pdfrwt>
<pdfrwt beam="1">  1       -1 0.21013564E-02 0.92628965E+02</pdfrwt>
<totfact> 0.10836459E+05</totfact>
</mgrwt>
</event>
<event>
 5   1  0.1357339E+00  0.9059144E+02  0.7818608E-02  0.1301426E+00
         -1   -1    0    0    0  501 -0.00000000000E+00  0.00000000000E+00  0.21638564800E+02  0.21638565304E+02  0.46700000000E-02 0.  1.
          1   -1    0    0  501    0  0.00000000000E+00 -0.00000000000E+00 -0.94816935917E+02  0.94816936032E+02  0.46700000000E-02 0. -1.
         23    2    1    2    0    0  0.00000000000E+00  0.00000000000E+00 -0.73178371117E+02  0.11645550134E+03  0.90591444364E+02 0.  0.
        -11    1    3    3    0    0 -0.41148259393E+02  0.66671964709E+00 -0.12263669736E+02  0.42942069836E+02  0.51100000000E-03 0. -1.
         11    1    3    3    0    0  0.41148259393E+02 -0.66671964709E+00 -0.60914701381E+02  0.73513431499E+02  0.51100000000E-03 0.  1.
<mgrwt>
<rscale>  0 0.90591444E+02</rscale>
<asrwt>0</asrwt>
<pdfrwt beam="2">  1        1 0.14587221E-01 0.90591444E+02</pdfrwt>
<pdfrwt beam="1">  1       -1 0.33290101E-02 0.90591444E+02</pdfrwt>
<totfact> 0.10537262E+05</totfact>
</mgrwt>
</event>
<event>
 5   1  0.1357339E+00  0.9091010E+02  0.7818608E-02  0.1300663E+00
          1   -1    0    0  501    0  0.00000000000E+00  0.00000000000E+00  0.27987927756E+02  0.27987928145E+02  0.46700000000E-02 0. -1.
         -1   -1    0    0    0  501 -0.00000000000E+00 -0.00000000000E+00 -0.73823316835E+02  0.73823316982E+02  0.46700000000E-02 0.  1.
         23    2    1    2    0    0  0.00000000000E+00  0.00000000000E+00 -0.45835389079E+02  0.10181124513E+03  0.90910102532E+02 0.  0.
        -11    1    3    3    0    0  0.91303974636E+01  0.10728923770E+02 -0.71316621501E+02  0.72694803567E+02  0.51100000000E-03 0.  1.
         11    1    3    3    0    0 -0.91303974636E+01 -0.10728923770E+02  0.25481232422E+02  0.29116441560E+02  0.51100000000E-03 0. -1.
<mgrwt>
<rscale>  0 0.90910103E+02</rscale>
<asrwt>0</asrwt>
<pdfrwt beam="1">  1        1 0.43058351E-02 0.90910103E+02</pdfrwt>
<pdfrwt beam="2">  1       -1 0.11357433E-01 0.90910103E+02</pdfrwt>
<totfact> 0.86436501E+04</totfact>
</mgrwt>
</event>
<event>
 5   1  0.1357339E+00  0.9157760E+02  0.7818608E-02  0.1299076E+00
         -1   -1    0    0    0  501 -0.00000000000E+00  0.00000000000E+00  0.12226454638E+03  0.12226454647E+03  0.46700000000E-02 0.  1.
          1   -1    0    0  501    0  0.00000000000E+00 -0.00000000000E+00 -0.17148178845E+02  0.17148179481E+02  0.46700000000E-02 0. -1.
         23    2    1    2    0    0  0.00000000000E+00  0.00000000000E+00  0.10511636754E+03  0.13941272595E+03  0.91577603337E+02 0.  0.
        -11    1    3    3    0    0  0.94179281700E+00  0.31722687708E+02  0.10280476593E+03  0.10759198756E+03  0.51100000000E-03 0.  1.
         11    1    3    3    0    0 -0.94179281700E+00 -0.31722687708E+02  0.23116016015E+01  0.31820738385E+02  0.51100000000E-03 0. -1.
<mgrwt>
<rscale>  0 0.91577603E+02</rscale>
<asrwt>0</asrwt>
<pdfrwt beam="2">  1        1 0.26381815E-02 0.91577603E+02</pdfrwt>
<pdfrwt beam="1">  1       -1 0.18809930E-01 0.91577603E+02</pdfrwt>
<totfact> 0.77346130E+04</totfact>
</mgrwt>
</event>
<event>
 5   1  0.1357339E+00  0.8540352E+02  0.7818608E-02  0.1314381E+00
         -1   -1    0    0    0  501 -0.00000000000E+00  0.00000000000E+00  0.24475590052E+02  0.24475590497E+02  0.46700000000E-02 0.  1.
          1   -1    0    0  501    0  0.00000000000E+00 -0.00000000000E+00 -0.74500352873E+02  0.74500353019E+02  0.46700000000E-02 0. -1.
         23    2    1    2    0    0  0.00000000000E+00  0.00000000000E+00 -0.50024762821E+02  0.98975943516E+02  0.85403515734E+02 0.  0.
        -11    1    3    3    0    0  0.54585084296E+01 -0.18139666724E+02  0.19339598922E+02  0.27071440853E+02  0.51100000000E-03 0.  1.
         11    1    3    3    0    0 -0.54585084296E+01  0.18139666724E+02 -0.69364361743E+02  0.71904502664E+02  0.51100000000E-03 0. -1.
<mgrwt>
<rscale>  0 0.85403516E+02</rscale>
<asrwt>0</asrwt>
<pdfrwt beam="2">  1        1 0.11461593E-01 0.85403516E+02</pdfrwt>
<pdfrwt beam="1">  1       -1 0.37654755E-02 0.85403516E+02</pdfrwt>
<totfact> 0.11915655E+05</totfact>
</mgrwt>
</event>
<event>
 5   1  0.1357339E+00  0.8892719E+02  0.7818608E-02  0.1305471E+00
          1   -1    0    0  501    0  0.00000000000E+00  0.00000000000E+00  0.52824456374E+01  0.52824477017E+01  0.46700000000E-02 0. -1.
         -1   -1    0    0    0  501 -0.00000000000E+00 -0.00000000000E+00 -0.37426056764E+03  0.37426056767E+03  0.46700000000E-02 0.  1.
         23    2    1    2    0    0  0.00000000000E+00  0.00000000000E+00 -0.36897812200E+03  0.37954301537E+03  0.88927194942E+02 0.  0.
        -11    1    3    3    0    0  0.74638811842E+01 -0.42203827632E+02 -0.23501399779E+03  0.23889004112E+03  0.51100000000E-03 0.  1.
         11    1    3    3    0    0 -0.74638811842E+01  0.42203827632E+02 -0.13396412421E+03  0.14065297425E+03  0.51100000000E-03 0. -1.
<mgrwt>
<rscale>  0 0.88927195E+02</rscale>
<asrwt>0</asrwt>
<pdfrwt beam="1">  1        1 0.81268440E-03 0.88927195E+02</pdfrwt>
<pdfrwt beam="2">  1       -1 0.57578528E-01 0.88927195E+02</pdfrwt>
<totfact> 0.58775347E+04</totfact>
</mgrwt>
</event>
<event>
 5   1  0.1357339E+00  0.9040235E+02  0.7818608E-02  0.1301880E+00
         -1   -1    0    0    0  501 -0.00000000000E+00  0.00000000000E+00  0.61302350871E+02  0.61302351049E+02  0.46700000000E-02 0.  1.
          1   -1    0    0  501    0  0.00000000000E+00 -0.00000000000E+00 -0.33328999296E+02  0.33328999623E+02  0.46700000000E-02 0. -1.
         23    2    1    2    0    0  0.00000000000E+00  0.00000000000E+00  0.27973351575E+02  0.94631350673E+02  0.90402345831E+02 0.  0.
        -11    1    3    3    0    0  0.12416765475E+02 -0.41610217193E+02  0.27126151592E+02  0.51199749415E+02  0.51100000000E-03 0.  1.
         11    1    3    3    0    0 -0.12416765475E+02  0.41610217193E+02  0.84719998366E+00  0.43431601257E+02  0.51100000000E-03 0. -1.
<mgrwt>
<rscale>  0 0.90402346E+02</rscale>
<asrwt>0</asrwt>
<pdfrwt beam="2">  1        1 0.51275385E-02 0.90402346E+02</pdfrwt>
<pdfrwt beam="1">  1       -1 0.94311307E-02 0.90402346E+02</pdfrwt>
<totfact> 0.90316361E+04</totfact>
</mgrwt>
</event>
<event>
 5   1  0.1357339E+00  0.8764735E+02  0.7818608E-02  0.1308651E+00
          1   -1    0    0  501    0  0.00000000000E+00  0.00000000000E+00  0.36958672685E+02  0.36958672980E+02  0.46700000000E-02 0. -1.
         -1   -1    0    0    0  501 -0.00000000000E+00 -0.00000000000E+00 -0.51963835189E+02  0.51963835399E+02  0.46700000000E-02 0.  1.
         23    2    1    2    0    0  0.00000000000E+00  0.00000000000E+00 -0.15005162504E+02  0.88922508379E+02  0.87647347904E+02 0.  0.
        -11    1    3    3    0    0 -0.12270782933E+02  0.68328305231E+01 -0.49618634190E+02  0.51568096202E+02  0.51100000000E-03 0.  1.
         11    1    3    3    0    0  0.12270782933E+02 -0.68328305231E+01  0.34613471685E+02  0.37354412178E+02  0.51100000000E-03 0. -1.
<mgrwt>
<rscale>  0 0.87647348E+02</rscale>
<asrwt>0</asrwt>
<pdfrwt beam="1">  1        1 0.56859497E-02 0.87647348E+02</pdfrwt>
<pdfrwt beam="2">  1       -1 0.79944362E-02 0.87647348E+02</pdfrwt>
<totfact> 0.10013998E+05</totfact>
</mgrwt>
</event>
<event>
 5   1  0.1357339E+00  0.9316958E+02  0.7818608E-02  0.1295353E+00
          1   -1    0    0  501    0  0.00000000000E+00  0.00000000000E+00  0.10393070324E+02  0.10393071373E+02  0.46700000000E-02 0. -1.
         -1   -1    0    0    0  501 -0.00000000000E+00 -0.00000000000E+00 -0.20880666576E+03  0.20880666581E+03  0.46700000000E-02 0.  1.
         23    2    1    2    0    0  0.00000000000E+00  0.00000000000E+00 -0.19841359544E+03  0.21919973719E+03  0.93169576195E+02 0.  0.
        -11    1    3    3    0    0  0.38947111128E+02  0.31764767284E+01 -0.15887328778E+03  0.16360834038E+03  0.51100000000E-03 0.  1.
         11    1    3    3    0    0 -0.38947111128E+02 -0.31764767284E+01 -0.39540307654E+02  0.55591396809E+02  0.51100000000E-03 0. -1.
<mgrwt>
<rscale>  0 0.93169576E+02</rscale>
<asrwt>0</asrwt>
<pdfrwt beam="1">  1        1 0.15989341E-02 0.93169576E+02</pdfrwt>
<pdfrwt beam="2">  1       -1 0.32124099E-01 0.93169576E+02</pdfrwt>
<totfact> 0.64798290E+04</totfact>
</mgrwt>
</event>
<event>
 5   1  0.1357339E+00  0.9115629E+02  0.7818608E-02  0.1300075E+00
         -1   -1    0    0    0  501 -0.00000000000E+00  0.00000000000E+00  0.95268768434E+01  0.95268779880E+01  0.46700000000E-02 0.  1.
          1   -1    0    0  501    0  0.00000000000E+00 -0.00000000000E+00 -0.21805332335E+03  0.21805332340E+03  0.46700000000E-02 0. -1.
         23    2    1    2    0    0  0.00000000000E+00  0.00000000000E+00 -0.20852644651E+03  0.22758020139E+03  0.91156289806E+02 0.  0.
        -11    1    3    3    0    0  0.47243603644E+01 -0.43018389324E+02 -0.13996240586E+03  0.14650043159E+03  0.51100000000E-03 0.  1.
         11    1    3    3    0    0 -0.47243603644E+01  0.43018389324E+02 -0.68564040645E+02  0.81079769799E+02  0.51100000000E-03 0. -1.
<mgrwt>
<rscale>  0 0.91156290E+02</rscale>
<asrwt>0</asrwt>
<pdfrwt beam="2">  1        1 0.33546661E-01 0.91156290E+02</pdfrwt>
<pdfrwt beam="1">  1       -1 0.14656736E-02 0.91156290E+02</pdfrwt>
<totfact> 0.12048701E+05</totfact>
</mgrwt>
</event>
<event>
 5   1  0.1357339E+00  0.9290246E+02  0.7818608E-02  0.1295971E+00
          1   -1    0    0  501    0  0.00000000000E+00  0.00000000000E+00  0.22388784255E+02  0.22388784742E+02  0.46700000000E-02 0. -1.
         -1   -1    0    0    0  501 -0.00000000000E+00 -0.00000000000E+00 -0.96374889932E+02  0.96374890045E+02  0.46700000000E-02 0.  1.
         23    2    1    2    0    0  0.00000000000E+00  0.00000000000E+00 -0.73986105677E+02  0.11876367479E+03  0.92902457533E+02 0.  0.
        -11    1    3    3    0    0  0.18021597399E+02  0.42458663397E+02 -0.29967765515E+02  0.55005300113E+02  0.51100000000E-03 0.  1.
         11    1    3    3    0    0 -0.18021597399E+02 -0.42458663397E+02 -0.44018340162E+02  0.63758374674E+02  0.51100000000E-03 0. -1.
<mgrwt>
<rscale>  0 0.92902458E+02</rscale>
<asrwt>0</asrwt>
<pdfrwt beam="1">  1        1 0.34444284E-02 0.92902458E+02</pdfrwt>
<pdfrwt beam="2">  1       -1 0.14826906E-01 0.92902458E+02</pdfrwt>
<totfact> 0.78063446E+04</totfact>
</mgrwt>
</event>
<event>
 5   1  0.1357339E+00  0.9111843E+02  0.7818608E-02  0.1300166E+00
          1   -1    0    0  501    0  0.00000000000E+00  0.00000000000E+00  0.24539339720E+03  0.24539339724E+03  0.46700000000E-02 0. -1.
         -1   -1    0    0    0  501 -0.00000000000E+00 -0.00000000000E+00 -0.84584256021E+01  0.84584268913E+01  0.46700000000E-02 0.  1.
         23    2    1    2    0    0  0.00000000000E+00  0.00000000000E+00  0.23693497159E+03  0.25385182413E+03  0.91118427614E+02 0.  0.
        -11    1    3    3    0    0 -0.43473096578E+02  0.29203440601E+01  0.15555349741E+03  0.16154048747E+03  0.51100000000E-03 0. -1.
         11    1    3    3    0    0  0.43473096578E+02 -0.29203440601E+01  0.81381474183E+02  0.92311336661E+02  0.51100000000E-03 0.  1.
<mgrwt>
<rscale>  0 0.91118428E+02</rscale>
<asrwt>0</asrwt>
<pdfrwt beam="1">  1        1 0.37752823E-01 0.91118428E+02</pdfrwt>
<pdfrwt beam="2">  1       -1 0.13012966E-02 0.91118428E+02</pdfrwt>
<totfact> 0.12343404E+05</totfact>
</mgrwt>
</event>
<event>
 5   1  0.1357339E+00  0.9313825E+02  0.7818608E-02  0.1295425E+00
         -1   -1    0    0    0  501 -0.00000000000E+00  0.00000000000E+00  0.66185262982E+02  0.66185263147E+02  0.46700000000E-02 0.  1.
          1   -1    0    0  501    0  0.00000000000E+00 -0.00000000000E+00 -0.32766863054E+02  0.32766863387E+02  0.46700000000E-02 0. -1.
         23    2    1    2    0    0  0.00000000000E+00  0.00000000000E+00  0.33418399928E+02  0.98952126533E+02  0.93138251496E+02 0.  0.
        -11    1    3    3    0    0  0.38320221958E+02 -0.74672542383E+01  0.43680580754E+02  0.58584916420E+02  0.51100000000E-03 0.  1.
         11    1    3    3    0    0 -0.38320221958E+02  0.74672542383E+01 -0.10262180826E+02  0.40367210113E+02  0.51100000000E-03 0. -1.
<mgrwt>
<rscale>  0 0.93138251E+02</rscale>
<asrwt>0</asrwt>
<pdfrwt beam="2">  1        1 0.50410559E-02 0.93138251E+02</pdfrwt>
<pdfrwt beam="1">  1       -1 0.10182348E-01 0.93138251E+02</pdfrwt>
<totfact> 0.82712883E+04</totfact>
</mgrwt>
</event>
<event>
 5   1  0.1357339E+00  0.8224698E+02  0.7818608E-02  0.1322793E+00
          1   -1    0    0  501    0  0.00000000000E+00  0.00000000000E+00  0.91922165289E+02  0.91922165408E+02  0.46700000000E-02 0. -1.
         -1   -1    0    0    0  501 -0.00000000000E+00 -0.00000000000E+00 -0.18397536777E+02  0.18397537370E+02  0.46700000000E-02 0.  1.
         23    2    1    2    0    0  0.00000000000E+00  0.00000000000E+00  0.73524628512E+02  0.11031970278E+03  0.82246980632E+02 0.  0.
        -11    1    3    3    0    0  0.10400456950E+02 -0.13917164405E+02  0.86757560586E+02  0.88480118043E+02  0.51100000000E-03 0. -1.
         11    1    3    3    0    0 -0.10400456950E+02  0.13917164405E+02 -0.13232932074E+02  0.21839584735E+02  0.51100000000E-03 0.  1.
<mgrwt>
<rscale>  0 0.82246981E+02</rscale>
<asrwt>0</asrwt>
<pdfrwt beam="1">  1        1 0.14141872E-01 0.82246981E+02</pdfrwt>
<pdfrwt beam="2">  1       -1 0.28303904E-02 0.82246981E+02</pdfrwt>
<totfact> 0.13624585E+05</totfact>
</mgrwt>
</event>
<event>
 5   1  0.1357339E+00  0.9250050E+02  0.7818608E-02  0.1296907E+00
          1   -1    0    0  501    0  0.00000000000E+00  0.00000000000E+00  0.26262990732E+02  0.26262991148E+02  0.46700000000E-02 0.  1.
         -1   -1    0    0    0  501 -0.00000000000E+00 -0.00000000000E+00 -0.81448671947E+02  0.81448672081E+02  0.46700000000E-02 0. -1.
         23    2    1    2    0    0  0.00000000000E+00  0.00000000000E+00 -0.55185681214E+02  0.10771166323E+03  0.92500502616E+02 0.  0.
        -11    1    3    3    0    0  0.20345724207E+02  0.32191868877E+02 -0.58154137194E+02  0.69513801423E+02  0.51100000000E-03 0. -1.
         11    1    3    3    0    0 -0.20345724207E+02 -0.32191868877E+02  0.29684559796E+01  0.38197861805E+02  0.51100000000E-03 0.  1.
<mgrwt>
<rscale>  0 0.92500503E+02</rscale>
<asrwt>0</asrwt>
<pdfrwt beam="1">  1        1 0.40404602E-02 0.92500503E+02</pdfrwt>
<pdfrwt beam="2">  1       -1 0.12530565E-01 0.92500503E+02</pdfrwt>
<totfact> 0.81331204E+04</totfact>
</mgrwt>
</event>
<event>
 5   1  0.1357339E+00  0.8976159E+02  0.7818608E-02  0.1303430E+00
          1   -1    0    0  501    0  0.00000000000E+00  0.00000000000E+00  0.13272815141E+03  0.13272815149E+03  0.46700000000E-02 0. -1.
         -1   -1    0    0    0  501 -0.00000000000E+00 -0.00000000000E+00 -0.15176023775E+02  0.15176024494E+02  0.46700000000E-02 0.  1.
         23    2    1    2    0    0  0.00000000000E+00  0.00000000000E+00  0.11755212763E+03  0.14790417599E+03  0.89761587345E+02 0.  0.
        -11    1    3    3    0    0 -0.34985877918E+02  0.20400397020E+02  0.26906033075E+02  0.48622242527E+02  0.51100000000E-03 0.  1.
         11    1    3    3    0    0  0.34985877918E+02 -0.20400397020E+02  0.90646094560E+02  0.99281933460E+02  0.51100000000E-03 0. -1.
<mgrwt>
<rscale>  0 0.89761587E+02</rscale>
<asrwt>0</asrwt>
<pdfrwt beam="1">  1        1 0.20419716E-01 0.89761587E+02</pdfrwt>
<pdfrwt beam="2">  1       -1 0.23347729E-02 0.89761587E+02</pdfrwt>
<totfact> 0.11440580E+05</totfact>
</mgrwt>
</event>
<event>
 5   1  0.1357339E+00  0.8873394E+02  0.7818608E-02  0.1305947E+00
         -1   -1    0    0    0  501 -0.00000000000E+00  0.00000000000E+00  0.11502691196E+03  0.11502691206E+03  0.46700000000E-02 0.  1.
          1   -1    0    0  501    0  0.00000000000E+00 -0.00000000000E+00 -0.17112761177E+02  0.17112761814E+02  0.46700000000E-02 0. -1.
         23    2    1    2    0    0  0.00000000000E+00  0.00000000000E+00  0.97914150787E+02  0.13213967387E+03  0.88733942134E+02 0.  0.
        -11    1    3    3    0    0  0.22670154497E+02  0.81661826104E+01  0.10443341327E+03  0.10717723756E+03  0.51100000000E-03 0.  1.
         11    1    3    3    0    0 -0.22670154497E+02 -0.81661826104E+01 -0.65192624790E+01  0.24962436317E+02  0.51100000000E-03 0. -1.
<mgrwt>
<rscale>  0 0.88733942E+02</rscale>
<asrwt>0</asrwt>
<pdfrwt beam="2">  1        1 0.26327326E-02 0.88733942E+02</pdfrwt>
<pdfrwt beam="1">  1       -1 0.17696448E-01 0.88733942E+02</pdfrwt>
<totfact> 0.84952819E+04</totfact>
</mgrwt>
</event>
<event>
 5   1  0.1357339E+00  0.8754220E+02  0.7818608E-02  0.1308915E+00
         -1   -1    0    0    0  501 -0.00000000000E+00  0.00000000000E+00  0.11703257466E+02  0.11703258397E+02  0.46700000000E-02 0.  1.
          1   -1    0    0  501    0  0.00000000000E+00 -0.00000000000E+00 -0.16370733973E+03  0.16370733980E+03  0.46700000000E-02 0. -1.
         23    2    1    2    0    0  0.00000000000E+00  0.00000000000E+00 -0.15200408227E+03  0.17541059820E+03  0.87542200875E+02 0.  0.
        -11    1    3    3    0    0 -0.31631813528E+02 -0.14565207841E+02 -0.12913639824E+03  0.13374949068E+03  0.51100000000E-03 0. -1.
         11    1    3    3    0    0  0.31631813528E+02  0.14565207841E+02 -0.22867684027E+02  0.41661107516E+02  0.51100000000E-03 0.  1.
<mgrwt>
<rscale>  0 0.87542201E+02</rscale>
<asrwt>0</asrwt>
<pdfrwt beam="2">  1        1 0.25185743E-01 0.87542201E+02</pdfrwt>
<pdfrwt beam="1">  1       -1 0.18005013E-02 0.87542201E+02</pdfrwt>
<totfact> 0.12711507E+05</totfact>
</mgrwt>
</event>
<event>
 5   1  0.1357339E+00  0.9126051E+02  0.7818608E-02  0.1299828E+00
          1   -1    0    0  501    0  0.00000000000E+00  0.00000000000E+00  0.26536674910E+03  0.26536674915E+03  0.46700000000E-02 0. -1.
         -1   -1    0    0    0  501 -0.00000000000E+00 -0.00000000000E+00 -0.78461984165E+01  0.78461998063E+01  0.46700000000E-02 0.  1.
         23    2    1    2    0    0  0.00000000000E+00  0.00000000000E+00  0.25752055069E+03  0.27321294895E+03  0.91260514180E+02 0.  0.
        -11    1    3    3    0    0  0.34185022183E+02  0.23205311888E+02  0.70784776529E+02  0.81960885976E+02  0.51100000000E-03 0.  1.
         11    1    3    3    0    0 -0.34185022183E+02 -0.23205311888E+02  0.18673577416E+03  0.19125206298E+03  0.51100000000E-03 0. -1.
<mgrwt>
<rscale>  0 0.91260514E+02</rscale>
<asrwt>0</asrwt>
<pdfrwt beam="1">  1        1 0.40825655E-01 0.91260514E+02</pdfrwt>
<pdfrwt beam="2">  1       -1 0.12071075E-02 0.91260514E+02</pdfrwt>
<totfact> 0.12481267E+05</totfact>
</mgrwt>
</event>
<event>
 5   1  0.1357339E+00  0.9151096E+02  0.7818608E-02  0.1299233E+00
         -1   -1    0    0    0  501 -0.00000000000E+00  0.00000000000E+00  0.46239912813E+03  0.46239912815E+03  0.46700000000E-02 0.  1.
          1   -1    0    0  501    0  0.00000000000E+00 -0.00000000000E+00 -0.45276106175E+01  0.45276130259E+01  0.46700000000E-02 0. -1.
         23    2    1    2    0    0  0.00000000000E+00  0.00000000000E+00  0.45787151751E+03  0.46692674118E+03  0.91510956062E+02 0.  0.
        -11    1    3    3    0    0 -0.42904808717E+02  0.14280570150E+02  0.19328946560E+03  0.19850837465E+03  0.51100000000E-03 0. -1.
         11    1    3    3    0    0  0.42904808717E+02 -0.14280570150E+02  0.26458205191E+03  0.26841836653E+03  0.51100000000E-03 0.  1.
<mgrwt>
<rscale>  0 0.91510956E+02</rscale>
<asrwt>0</asrwt>
<pdfrwt beam="2">  1        1 0.69655591E-03 0.91510956E+02</pdfrwt>
<pdfrwt beam="1">  1       -1 0.71138303E-01 0.91510956E+02</pdfrwt>
<totfact> 0.48813612E+04</totfact>
</mgrwt>
</event>
<event>
 5   1  0.1357339E+00  0.9164865E+02  0.7818608E-02  0.1298908E+00
         -1   -1    0    0    0  501 -0.00000000000E+00  0.00000000000E+00  0.11069942482E+03  0.11069942492E+03  0.46700000000E-02 0.  1.
          1   -1    0    0  501    0  0.00000000000E+00 -0.00000000000E+00 -0.18969102033E+02  0.18969102608E+02  0.46700000000E-02 0. -1.
         23    2    1    2    0    0  0.00000000000E+00  0.00000000000E+00  0.91730322791E+02  0.12966852753E+03  0.91648649267E+02 0.  0.
        -11    1    3    3    0    0 -0.26782957149E+02 -0.36888437238E+02  0.39261441988E+02  0.60162649732E+02  0.51100000000E-03 0.  1.
         11    1    3    3    0    0  0.26782957149E+02  0.36888437238E+02  0.52468880804E+02  0.69505877799E+02  0.51100000000E-03 0. -1.
<mgrwt>
<rscale>  0 0.91648649E+02</rscale>
<asrwt>0</asrwt>
<pdfrwt beam="2">  1        1 0.29183235E-02 0.91648649E+02</pdfrwt>
<pdfrwt beam="1">  1       -1 0.17030681E-01 0.91648649E+02</pdfrwt>
<totfact> 0.78751225E+04</totfact>
</mgrwt>
</event>
<event>
 5   1  0.1357339E+00  0.9155055E+02  0.7818608E-02  0.1299140E+00
         -1   -1    0    0    0  501 -0.00000000000E+00  0.00000000000E+00  0.58800741864E+02  0.58800742050E+02  0.46700000000E-02 0.  1.
          1   -1    0    0  501    0  0.00000000000E+00 -0.00000000000E+00 -0.35635189650E+02  0.35635189956E+02  0.46700000000E-02 0. -1.
         23    2    1    2    0    0  0.00000000000E+00  0.00000000000E+00  0.23165552214E+02  0.94435932005E+02  0.91550545844E+02 0.  0.
        -11    1    3    3    0    0 -0.75167209428E+01 -0.14568789159E+02  0.55668808916E+02  0.58032465031E+02  0.51100000000E-03 0.  1.
         11    1    3    3    0    0  0.75167209428E+01  0.14568789159E+02 -0.32503256701E+02  0.36403466974E+02  0.51100000000E-03 0. -1.
<mgrwt>
<rscale>  0 0.91550546E+02</rscale>
<asrwt>0</asrwt>
<pdfrwt beam="2">  1        1 0.54823370E-02 0.91550546E+02</pdfrwt>
<pdfrwt beam="1">  1       -1 0.90462679E-02 0.91550546E+02</pdfrwt>
<totfact> 0.88041214E+04</totfact>
</mgrwt>
</event>
<event>
 5   1  0.1357339E+00  0.9104272E+02  0.7818608E-02  0.1300346E+00
         -1   -1    0    0    0  501 -0.00000000000E+00  0.00000000000E+00  0.58976404883E+02  0.58976405068E+02  0.46700000000E-02 0.  1.
          1   -1    0    0  501    0  0.00000000000E+00 -0.00000000000E+00 -0.35135987359E+02  0.35135987669E+02  0.46700000000E-02 0. -1.
         23    2    1    2    0    0  0.00000000000E+00  0.00000000000E+00  0.23840417524E+02  0.94112392737E+02  0.91042720516E+02 0.  0.
        -11    1    3    3    0    0  0.33369872439E+02  0.23524854039E+02  0.32729190389E+02  0.52327498009E+02  0.51100000000E-03 0.  1.
         11    1    3    3    0    0 -0.33369872439E+02 -0.23524854039E+02 -0.88887728645E+01  0.41784894728E+02  0.51100000000E-03 0. -1.
<mgrwt>
<rscale>  0 0.91042721E+02</rscale>
<asrwt>0</asrwt>
<pdfrwt beam="2">  1        1 0.54055366E-02 0.91042721E+02</pdfrwt>
<pdfrwt beam="1">  1       -1 0.90732930E-02 0.91042721E+02</pdfrwt>
<totfact> 0.89250774E+04</totfact>
</mgrwt>
</event>
<event>
 5   1  0.1357339E+00  0.9075251E+02  0.7818608E-02  0.1301040E+00
          1   -1    0    0  501    0  0.00000000000E+00  0.00000000000E+00  0.11901613245E+03  0.11901613254E+03  0.46700000000E-02 0. -1.
         -1   -1    0    0    0  501 -0.00000000000E+00 -0.00000000000E+00 -0.17300214795E+02  0.17300215425E+02  0.46700000000E-02 0.  1.
         23    2    1    2    0    0  0.00000000000E+00  0.00000000000E+00  0.10171591765E+03  0.13631634796E+03  0.90752514116E+02 0.  0.
        -11    1    3    3    0    0 -0.64453777103E+01  0.41666949028E+02  0.25664075406E+02  0.49359115692E+02  0.51100000000E-03 0.  1.
         11    1    3    3    0    0  0.64453777103E+01 -0.41666949028E+02  0.76051842246E+02  0.86957232272E+02  0.51100000000E-03 0. -1.
<mgrwt>
<rscale>  0 0.90752514E+02</rscale>
<asrwt>0</asrwt>
<pdfrwt beam="1">  1        1 0.18310175E-01 0.90752514E+02</pdfrwt>
<pdfrwt beam="2">  1       -1 0.26615715E-02 0.90752514E+02</pdfrwt>
<totfact> 0.10895414E+05</totfact>
</mgrwt>
</event>
<event>
 5   1  0.1357339E+00  0.9167559E+02  0.7818608E-02  0.1298844E+00
         -1   -1    0    0    0  501 -0.00000000000E+00  0.00000000000E+00  0.10622451290E+03  0.10622451300E+03  0.46700000000E-02 0.  1.
          1   -1    0    0  501    0  0.00000000000E+00 -0.00000000000E+00 -0.19779834241E+02  0.19779834793E+02  0.46700000000E-02 0. -1.
         23    2    1    2    0    0  0.00000000000E+00  0.00000000000E+00  0.86444678656E+02  0.12600434779E+03  0.91675586689E+02 0.  0.
        -11    1    3    3    0    0  0.30117926030E+01 -0.28570421906E+02 -0.58703587869E+01  0.29322363737E+02  0.51100000000E-03 0. -1.
         11    1    3    3    0    0 -0.30117926030E+01  0.28570421906E+02  0.92315037443E+02  0.96681984056E+02  0.51100000000E-03 0.  1.
<mgrwt>
<rscale>  0 0.91675587E+02</rscale>
<asrwt>0</asrwt>
<pdfrwt beam="2">  1        1 0.30430514E-02 0.91675587E+02</pdfrwt>
<pdfrwt beam="1">  1       -1 0.16342233E-01 0.91675587E+02</pdfrwt>
<totfact> 0.79323523E+04</totfact>
</mgrwt>
</event>
<event>
 5   1  0.1357339E+00  0.8758502E+02  0.7818608E-02  0.1308808E+00
         -1   -1    0    0    0  501 -0.00000000000E+00  0.00000000000E+00  0.19821587948E+02  0.19821588498E+02  0.46700000000E-02 0.  1.
          1   -1    0    0  501    0  0.00000000000E+00 -0.00000000000E+00 -0.96752281435E+02  0.96752281548E+02  0.46700000000E-02 0. -1.
         23    2    1    2    0    0  0.00000000000E+00  0.00000000000E+00 -0.76930693487E+02  0.11657387005E+03  0.87585019136E+02 0.  0.
        -11    1    3    3    0    0  0.21262894304E+02  0.14032367776E+02 -0.85874492480E+02  0.89573693005E+02  0.51100000000E-03 0. -1.
         11    1    3    3    0    0 -0.21262894304E+02 -0.14032367776E+02  0.89437989927E+01  0.27000177041E+02  0.51100000000E-03 0.  1.
<mgrwt>
<rscale>  0 0.87585019E+02</rscale>
<asrwt>0</asrwt>
<pdfrwt beam="2">  1        1 0.14884966E-01 0.87585019E+02</pdfrwt>
<pdfrwt beam="1">  1       -1 0.30494752E-02 0.87585019E+02</pdfrwt>
<totfact> 0.11587953E+05</totfact>
</mgrwt>
</event>
<event>
 5   1  0.1357339E+00  0.9179977E+02  0.7818608E-02  0.1298551E+00
         -1   -1    0    0    0  501 -0.00000000000E+00  0.00000000000E+00  0.22096964279E+03  0.22096964283E+03  0.46700000000E-02 0.  1.
          1   -1    0    0  501    0  0.00000000000E+00 -0.00000000000E+00 -0.95343385451E+01  0.95343396888E+01  0.46700000000E-02 0. -1.
         23    2    1    2    0    0  0.00000000000E+00  0.00000000000E+00  0.21143530424E+03  0.23050398252E+03  0.91799771677E+02 0.  0.
        -11    1    3    3    0    0 -0.12631467248E+02  0.31773014523E+02  0.18260832777E+03  0.18578180694E+03  0.51100000000E-03 0.  1.
         11    1    3    3    0    0  0.12631467248E+02 -0.31773014523E+02  0.28826976470E+02  0.44722175588E+02  0.51100000000E-03 0. -1.
<mgrwt>
<rscale>  0 0.91799772E+02</rscale>
<asrwt>0</asrwt>
<pdfrwt beam="2">  1        1 0.14668213E-02 0.91799772E+02</pdfrwt>
<pdfrwt beam="1">  1       -1 0.33995332E-01 0.91799772E+02</pdfrwt>
<totfact> 0.66212360E+04</totfact>
</mgrwt>
</event>
<event>
 5   1  0.1357339E+00  0.9093453E+02  0.7818608E-02  0.1300604E+00
         -1   -1    0    0    0  501 -0.00000000000E+00  0.00000000000E+00  0.11499646160E+03  0.11499646169E+03  0.46700000000E-02 0.  1.
          1   -1    0    0  501    0  0.00000000000E+00 -0.00000000000E+00 -0.17976833670E+02  0.17976834276E+02  0.46700000000E-02 0. -1.
         23    2    1    2    0    0  0.00000000000E+00  0.00000000000E+00  0.97019627928E+02  0.13297329597E+03  0.90934532701E+02 0.  0.
        -11    1    3    3    0    0 -0.10869874256E+02  0.29245200426E+02  0.96872652075E+02  0.10177301526E+03  0.51100000000E-03 0.  1.
         11    1    3    3    0    0  0.10869874256E+02 -0.29245200426E+02  0.14697585353E+00  0.31200280711E+02  0.51100000000E-03 0. -1.
<mgrwt>
<rscale>  0 0.90934533E+02</rscale>
<asrwt>0</asrwt>
<pdfrwt beam="2">  1        1 0.27656668E-02 0.90934533E+02</pdfrwt>
<pdfrwt beam="1">  1       -1 0.17691763E-01 0.90934533E+02</pdfrwt>
<totfact> 0.79756017E+04</totfact>
</mgrwt>
</event>
<event>
 5   1  0.1357339E+00  0.9163485E+02  0.7818608E-02  0.1298940E+00
         -1   -1    0    0    0  501 -0.00000000000E+00  0.00000000000E+00  0.18831755806E+02  0.18831756385E+02  0.46700000000E-02 0.  1.
          1   -1    0    0  501    0  0.00000000000E+00 -0.00000000000E+00 -0.11147321908E+03  0.11147321917E+03  0.46700000000E-02 0. -1.
         23    2    1    2    0    0  0.00000000000E+00  0.00000000000E+00 -0.92641463269E+02  0.13030497556E+03  0.91634851114E+02 0.  0.
        -11    1    3    3    0    0 -0.87530848056E+01  0.43050422867E+02 -0.64822129107E+02  0.78306218303E+02  0.51100000000E-03 0.  1.
         11    1    3    3    0    0  0.87530848056E+01 -0.43050422867E+02 -0.27819334162E+02  0.51998757256E+02  0.51100000000E-03 0. -1.
<mgrwt>
<rscale>  0 0.91634851E+02</rscale>
<asrwt>0</asrwt>
<pdfrwt beam="2">  1        1 0.17149726E-01 0.91634851E+02</pdfrwt>
<pdfrwt beam="1">  1       -1 0.28971933E-02 0.91634851E+02</pdfrwt>
<totfact> 0.10494002E+05</totfact>
</mgrwt>
</event>
<event>
 5   1  0.1357339E+00  0.9445966E+02  0.7818608E-02  0.1292398E+00
         -1   -1    0    0    0  501 -0.00000000000E+00  0.00000000000E+00  0.13405036286E+02  0.13405037100E+02  0.46700000000E-02 0.  1.
          1   -1    0    0  501    0  0.00000000000E+00 -0.00000000000E+00 -0.16640436839E+03  0.16640436845E+03  0.46700000000E-02 0. -1.
         23    2    1    2    0    0  0.00000000000E+00  0.00000000000E+00 -0.15299933210E+03  0.17980940555E+03  0.94459656477E+02 0.  0.
        -11    1    3    3    0    0  0.45287870188E+02 -0.87941683402E+01 -0.95755550985E+02  0.10628948268E+03  0.51100000000E-03 0. -1.
         11    1    3    3    0    0 -0.45287870188E+02  0.87941683402E+01 -0.57243781116E+02  0.73519922876E+02  0.51100000000E-03 0.  1.
<mgrwt>
<rscale>  0 0.94459656E+02</rscale>
<asrwt>0</asrwt>
<pdfrwt beam="2">  1        1 0.25600671E-01 0.94459656E+02</pdfrwt>
<pdfrwt beam="1">  1       -1 0.20623135E-02 0.94459656E+02</pdfrwt>
<totfact> 0.10390640E+05</totfact>
</mgrwt>
</event>
<event>
 5   1  0.1357339E+00  0.9115246E+02  0.7818608E-02  0.1300085E+00
         -1   -1    0    0    0  501 -0.00000000000E+00  0.00000000000E+00  0.16342973822E+03  0.16342973829E+03  0.46700000000E-02 0.  1.
          1   -1    0    0  501    0  0.00000000000E+00 -0.00000000000E+00 -0.12710004601E+02  0.12710005459E+02  0.46700000000E-02 0. -1.
         23    2    1    2    0    0  0.00000000000E+00  0.00000000000E+00  0.15071973362E+03  0.17613974375E+03  0.91152461432E+02 0.  0.
        -11    1    3    3    0    0 -0.99398788451E-01 -0.31422062271E+02  0.13915238108E+03  0.14265602349E+03  0.51100000000E-03 0.  1.
         11    1    3    3    0    0  0.99398788451E-01  0.31422062271E+02  0.11567352546E+02  0.33483720264E+02  0.51100000000E-03 0. -1.
<mgrwt>
<rscale>  0 0.91152461E+02</rscale>
<asrwt>0</asrwt>
<pdfrwt beam="2">  1        1 0.19553855E-02 0.91152461E+02</pdfrwt>
<pdfrwt beam="1">  1       -1 0.25143035E-01 0.91152461E+02</pdfrwt>
<totfact> 0.73310883E+04</totfact>
</mgrwt>
</event>
<event>
 5   1  0.1357339E+00  0.9261317E+02  0.7818608E-02  0.1296644E+00
         -1   -1    0    0    0  501 -0.00000000000E+00  0.00000000000E+00  0.18102493174E+02  0.18102493777E+02  0.46700000000E-02 0.  1.
          1   -1    0    0  501    0  0.00000000000E+00 -0.00000000000E+00 -0.11845328779E+03  0.11845328788E+03  0.46700000000E-02 0. -1.
         23    2    1    2    0    0  0.00000000000E+00  0.00000000000E+00 -0.10035079461E+03  0.13655578165E+03  0.92613171439E+02 0.  0.
        -11    1    3    3    0    0 -0.14844161672E+02  0.37117553450E+02 -0.84636429314E+02  0.93602281368E+02  0.51100000000E-03 0. -1.
         11    1    3    3    0    0  0.14844161672E+02 -0.37117553450E+02 -0.15714365297E+02  0.42953500286E+02  0.51100000000E-03 0.  1.
<mgrwt>
<rscale>  0 0.92613171E+02</rscale>
<asrwt>0</asrwt>
<pdfrwt beam="2">  1        1 0.18223582E-01 0.92613171E+02</pdfrwt>
<pdfrwt beam="1">  1       -1 0.27849991E-02 0.92613171E+02</pdfrwt>
<totfact> 0.10302530E+05</totfact>
</mgrwt>
</event>
<event>
 5   1  0.1357339E+00  0.8897957E+02  0.7818608E-02  0.1305342E+00
         -1   -1    0    0    0  501 -0.00000000000E+00  0.00000000000E+00  0.10640673124E+02  0.10640674149E+02  0.46700000000E-02 0.  1.
          1   -1    0    0  501    0  0.00000000000E+00 -0.00000000000E+00 -0.18601650318E+03  0.18601650324E+03  0.46700000000E-02 0. -1.
         23    2    1    2    0    0  0.00000000000E+00  0.00000000000E+00 -0.17537583006E+03  0.19665717739E+03  0.88979568722E+02 0.  0.
        -11    1    3    3    0    0  0.15793414784E+02  0.33286313311E+02 -0.14280552353E+03  0.14748161972E+03  0.51100000000E-03 0. -1.
         11    1    3    3    0    0 -0.15793414784E+02 -0.33286313311E+02 -0.32570306524E+02  0.49175557665E+02  0.51100000000E-03 0.  1.
<mgrwt>
<rscale>  0 0.88979569E+02</rscale>
<asrwt>0</asrwt>
<pdfrwt beam="2">  1        1 0.28617921E-01 0.88979569E+02</pdfrwt>
<pdfrwt beam="1">  1       -1 0.16370269E-02 0.88979569E+02</pdfrwt>
<totfact> 0.12464841E+05</totfact>
</mgrwt>
</event>
<event>
 5   1  0.1357339E+00  0.8923740E+02  0.7818608E-02  0.1304709E+00
          1   -1    0    0  501    0  0.00000000000E+00  0.00000000000E+00  0.12473252506E+02  0.12473253380E+02  0.46700000000E-02 0. -1.
         -1   -1    0    0    0  501 -0.00000000000E+00 -0.00000000000E+00 -0.15960777967E+03  0.15960777974E+03  0.46700000000E-02 0.  1.
         23    2    1    2    0    0  0.00000000000E+00  0.00000000000E+00 -0.14713452716E+03  0.17208103312E+03  0.89237396170E+02 0.  0.
        -11    1    3    3    0    0 -0.32277856743E+02  0.22201887397E+02 -0.11474757897E+03  0.12125094111E+03  0.51100000000E-03 0.  1.
         11    1    3    3    0    0  0.32277856743E+02 -0.22201887397E+02 -0.32386948188E+02  0.50830092004E+02  0.51100000000E-03 0. -1.
<mgrwt>
<rscale>  0 0.89237396E+02</rscale>
<asrwt>0</asrwt>
<pdfrwt beam="1">  1        1 0.19189621E-02 0.89237396E+02</pdfrwt>
<pdfrwt beam="2">  1       -1 0.24555042E-01 0.89237396E+02</pdfrwt>
<totfact> 0.77914299E+04</totfact>
</mgrwt>
</event>
<event>
 5   1  0.1357339E+00  0.9258821E+02  0.7818608E-02  0.1296702E+00
          1   -1    0    0  501    0  0.00000000000E+00  0.00000000000E+00  0.17329016253E+03  0.17329016259E+03  0.46700000000E-02 0. -1.
         -1   -1    0    0    0  501 -0.00000000000E+00 -0.00000000000E+00 -0.12367373107E+02  0.12367373989E+02  0.46700000000E-02 0.  1.
         23    2    1    2    0    0  0.00000000000E+00  0.00000000000E+00  0.16092278942E+03  0.18565753658E+03  0.92588210557E+02 0.  0.
        -11    1    3    3    0    0  0.11420243520E+02 -0.38396713020E+02  0.33933293731E+02  0.52499504346E+02  0.51100000000E-03 0.  1.
         11    1    3    3    0    0 -0.11420243520E+02  0.38396713020E+02  0.12698949569E+03  0.13315803224E+03  0.51100000000E-03 0. -1.
<mgrwt>
<rscale>  0 0.92588211E+02</rscale>
<asrwt>0</asrwt>
<pdfrwt beam="1">  1        1 0.26660023E-01 0.92588211E+02</pdfrwt>
<pdfrwt beam="2">  1       -1 0.19026730E-02 0.92588211E+02</pdfrwt>
<totfact> 0.11052220E+05</totfact>
</mgrwt>
</event>
<event>
 5   1  0.1357339E+00  0.9015467E+02  0.7818608E-02  0.1302478E+00
          1   -1    0    0  501    0  0.00000000000E+00  0.00000000000E+00  0.12274839051E+03  0.12274839060E+03  0.46700000000E-02 0. -1.
         -1   -1    0    0    0  501 -0.00000000000E+00 -0.00000000000E+00 -0.16553913279E+02  0.16553913938E+02  0.46700000000E-02 0.  1.
         23    2    1    2    0    0  0.00000000000E+00  0.00000000000E+00  0.10619447723E+03  0.13930230454E+03  0.90154672951E+02 0.  0.
        -11    1    3    3    0    0  0.10616688321E+02  0.35088680047E+02  0.93627170042E+02  0.10054837895E+03  0.51100000000E-03 0. -1.
         11    1    3    3    0    0 -0.10616688321E+02 -0.35088680047E+02  0.12567307187E+02  0.38753925589E+02  0.51100000000E-03 0.  1.
<mgrwt>
<rscale>  0 0.90154673E+02</rscale>
<asrwt>0</asrwt>
<pdfrwt beam="1">  1        1 0.18884367E-01 0.90154673E+02</pdfrwt>
<pdfrwt beam="2">  1       -1 0.25467561E-02 0.90154673E+02</pdfrwt>
<totfact> 0.11151706E+05</totfact>
</mgrwt>
</event>
<event>
 5   1  0.1357339E+00  0.8969097E+02  0.7818608E-02  0.1303602E+00
          1   -1    0    0  501    0  0.00000000000E+00  0.00000000000E+00  0.66039621081E+02  0.66039621247E+02  0.46700000000E-02 0. -1.
         -1   -1    0    0    0  501 -0.00000000000E+00 -0.00000000000E+00 -0.30453197508E+02  0.30453197866E+02  0.46700000000E-02 0.  1.
         23    2    1    2    0    0  0.00000000000E+00  0.00000000000E+00  0.35586423574E+02  0.96492819112E+02  0.89690972776E+02 0.  0.
        -11    1    3    3    0    0  0.31636525007E+02  0.28710006723E+02  0.32465012137E+02  0.53657350045E+02  0.51100000000E-03 0.  1.
         11    1    3    3    0    0 -0.31636525007E+02 -0.28710006723E+02  0.31214114369E+01  0.42835469067E+02  0.51100000000E-03 0. -1.
<mgrwt>
<rscale>  0 0.89690973E+02</rscale>
<asrwt>0</asrwt>
<pdfrwt beam="1">  1        1 0.10159942E-01 0.89690973E+02</pdfrwt>
<pdfrwt beam="2">  1       -1 0.46851074E-02 0.89690973E+02</pdfrwt>
<totfact> 0.10232148E+05</totfact>
</mgrwt>
</event>
<event>
 5   1  0.1357339E+00  0.8986771E+02  0.7818608E-02  0.1303172E+00
          1   -1    0    0  501    0  0.00000000000E+00  0.00000000000E+00  0.27911839445E+02  0.27911839836E+02  0.46700000000E-02 0. -1.
         -1   -1    0    0    0  501 -0.00000000000E+00 -0.00000000000E+00 -0.72336738309E+02  0.72336738460E+02  0.46700000000E-02 0.  1.
         23    2    1    2    0    0  0.00000000000E+00  0.00000000000E+00 -0.44424898865E+02  0.10024857830E+03  0.89867712841E+02 0.  0.
        -11    1    3    3    0    0  0.38338722633E+01  0.28324853770E+02 -0.60888026251E+02  0.67263271245E+02  0.51100000000E-03 0.  1.
         11    1    3    3    0    0 -0.38338722633E+01 -0.28324853770E+02  0.16463127386E+02  0.32985307051E+02  0.51100000000E-03 0. -1.
<mgrwt>
<rscale>  0 0.89867713E+02</rscale>
<asrwt>0</asrwt>
<pdfrwt beam="1">  1        1 0.42941292E-02 0.89867713E+02</pdfrwt>
<pdfrwt beam="2">  1       -1 0.11128729E-01 0.89867713E+02</pdfrwt>
<totfact> 0.89311850E+04</totfact>
</mgrwt>
</event>
<event>
 5   1  0.1357339E+00  0.8964666E+02  0.7818608E-02  0.1303710E+00
         -1   -1    0    0    0  501 -0.00000000000E+00  0.00000000000E+00  0.16487120950E+02  0.16487121612E+02  0.46700000000E-02 0.  1.
          1   -1    0    0  501    0  0.00000000000E+00 -0.00000000000E+00 -0.12186062625E+03  0.12186062634E+03  0.46700000000E-02 0. -1.
         23    2    1    2    0    0  0.00000000000E+00  0.00000000000E+00 -0.10537350530E+03  0.13834774795E+03  0.89646660530E+02 0.  0.
        -11    1    3    3    0    0  0.26147469700E+01  0.44569802555E+02 -0.58826261544E+02  0.73850072776E+02  0.51100000000E-03 0. -1.
         11    1    3    3    0    0 -0.26147469700E+01 -0.44569802555E+02 -0.46547243758E+02  0.64497675178E+02  0.51100000000E-03 0.  1.
<mgrwt>
<rscale>  0 0.89646661E+02</rscale>
<asrwt>0</asrwt>
<pdfrwt beam="2">  1        1 0.18747788E-01 0.89646661E+02</pdfrwt>
<pdfrwt beam="1">  1       -1 0.25364803E-02 0.89646661E+02</pdfrwt>
<totfact> 0.11309085E+05</totfact>
</mgrwt>
</event>
<event>
 5   1  0.1357339E+00  0.9113384E+02  0.7818608E-02  0.1300129E+00
          1   -1    0    0  501    0  0.00000000000E+00  0.00000000000E+00  0.12731339358E+03  0.12731339366E+03  0.46700000000E-02 0. -1.
         -1   -1    0    0    0  501 -0.00000000000E+00 -0.00000000000E+00 -0.16308922933E+02  0.16308923602E+02  0.46700000000E-02 0.  1.
         23    2    1    2    0    0  0.00000000000E+00  0.00000000000E+00  0.11100447064E+03  0.14362231727E+03  0.91133843952E+02 0.  0.
        -11    1    3    3    0    0 -0.15853671912E+02 -0.12530556749E+02  0.11986564482E+03  0.12155709183E+03  0.51100000000E-03 0. -1.
         11    1    3    3    0    0  0.15853671912E+02  0.12530556749E+02 -0.88611741755E+01  0.22065225436E+02  0.51100000000E-03 0.  1.
<mgrwt>
<rscale>  0 0.91133844E+02</rscale>
<asrwt>0</asrwt>
<pdfrwt beam="1">  1        1 0.19586676E-01 0.91133844E+02</pdfrwt>
<pdfrwt beam="2">  1       -1 0.25090651E-02 0.91133844E+02</pdfrwt>
<totfact> 0.10900237E+05</totfact>
</mgrwt>
</event>
<event>
 4   1  0.1357339E+00  0.1337773E+03  0.7818608E-02  0.1221956E+00
          1   -1    0    0  501    0  0.00000000000E+00  0.00000000000E+00  0.36075852027E+02  0.36075852329E+02  0.46700000000E-02 0. -1.
         -1   -1    0    0    0  501 -0.00000000000E+00 -0.00000000000E+00 -0.12401904841E+03  0.12401904850E+03  0.46700000000E-02 0.  1.
        -11    1    1    2    0    0 -0.22658328751E+02  0.16788849257E+02 -0.11655707290E+03  0.11992004238E+03  0.51100000000E-03 0.  1.
         11    1    1    2    0    0  0.22658328751E+02 -0.16788849257E+02  0.28613876521E+02  0.40174858444E+02  0.51100000000E-03 0. -1.
<mgrwt>
<rscale>  0 0.13377732E+03</rscale>
<asrwt>0</asrwt>
<pdfrwt beam="1">  1        1 0.55501312E-02 0.13377732E+03</pdfrwt>
<pdfrwt beam="2">  1       -1 0.19079853E-01 0.13377732E+03</pdfrwt>
<totfact> 0.28763258E+04</totfact>
</mgrwt>
</event>
<event>
 5   1  0.1357339E+00  0.9104196E+02  0.7818608E-02  0.1300348E+00
          1   -1    0    0  501    0  0.00000000000E+00  0.00000000000E+00  0.20717277259E+02  0.20717277785E+02  0.46700000000E-02 0. -1.
         -1   -1    0    0    0  501 -0.00000000000E+00 -0.00000000000E+00 -0.10002085079E+03  0.10002085090E+03  0.46700000000E-02 0.  1.
         23    2    1    2    0    0  0.00000000000E+00  0.00000000000E+00 -0.79303573532E+02  0.12073812868E+03  0.91041962541E+02 0.  0.
        -11    1    3    3    0    0 -0.27687909141E+02  0.18520342814E+02 -0.80796249304E+02  0.87393691491E+02  0.51100000000E-03 0.  1.
         11    1    3    3    0    0  0.27687909141E+02 -0.18520342814E+02  0.14926757723E+01  0.33344437194E+02  0.51100000000E-03 0. -1.
<mgrwt>
<rscale>  0 0.91041963E+02</rscale>
<asrwt>0</asrwt>
<pdfrwt beam="1">  1        1 0.31872735E-02 0.91041963E+02</pdfrwt>
<pdfrwt beam="2">  1       -1 0.15387823E-01 0.91041963E+02</pdfrwt>
<totfact> 0.81678541E+04</totfact>
</mgrwt>
</event>
<event>
 5   1  0.1357339E+00  0.8911092E+02  0.7818608E-02  0.1305019E+00
          1   -1    0    0  501    0  0.00000000000E+00  0.00000000000E+00  0.13658326469E+02  0.13658327267E+02  0.46700000000E-02 0. -1.
         -1   -1    0    0    0  501 -0.00000000000E+00 -0.00000000000E+00 -0.14534641229E+03  0.14534641237E+03  0.46700000000E-02 0.  1.
         23    2    1    2    0    0  0.00000000000E+00  0.00000000000E+00 -0.13168808582E+03  0.15900473964E+03  0.89110915597E+02 0.  0.
        -11    1    3    3    0    0  0.26102811175E+01 -0.44107228654E+02 -0.76083087074E+02  0.87982369404E+02  0.51100000000E-03 0.  1.
         11    1    3    3    0    0 -0.26102811175E+01  0.44107228654E+02 -0.55604998751E+02  0.71022370232E+02  0.51100000000E-03 0. -1.
<mgrwt>
<rscale>  0 0.89110916E+02</rscale>
<asrwt>0</asrwt>
<pdfrwt beam="1">  1        1 0.21012812E-02 0.89110916E+02</pdfrwt>
<pdfrwt beam="2">  1       -1 0.22360985E-01 0.89110916E+02</pdfrwt>
<totfact> 0.79945589E+04</totfact>
</mgrwt>
</event>
<event>
 5   1  0.1357339E+00  0.7786884E+02  0.7818608E-02  0.1335210E+00
          1   -1    0    0  501    0  0.00000000000E+00  0.00000000000E+00  0.18177602569E+03  0.18177602575E+03  0.46700000000E-02 0. -1.
         -1   -1    0    0    0  501 -0.00000000000E+00 -0.00000000000E+00 -0.83393224710E+01  0.83393237786E+01  0.46700000000E-02 0.  1.
         23    2    1    2    0    0  0.00000000000E+00  0.00000000000E+00  0.17343670322E+03  0.19011534953E+03  0.77868839102E+02 0.  0.
        -11    1    3    3    0    0 -0.59176510261E+01 -0.33834029834E+02  0.41956671254E+02  0.54222895823E+02  0.51100000000E-03 0. -1.
         11    1    3    3    0    0  0.59176510261E+01  0.33834029834E+02  0.13148003197E+03  0.13589245371E+03  0.51100000000E-03 0.  1.
<mgrwt>
<rscale>  0 0.77868839E+02</rscale>
<asrwt>0</asrwt>
<pdfrwt beam="1">  1        1 0.27965541E-01 0.77868839E+02</pdfrwt>
<pdfrwt beam="2">  1       -1 0.12829729E-02 0.77868839E+02</pdfrwt>
<totfact> 0.17692124E+05</totfact>
</mgrwt>
</event>
<event>
 5   1  0.1357339E+00  0.9138907E+02  0.7818608E-02  0.1299522E+00
         -1   -1    0    0    0  501 -0.00000000000E+00  0.00000000000E+00  0.13445560390E+02  0.13445561201E+02  0.46700000000E-02 0.  1.
          1   -1    0    0  501    0  0.00000000000E+00 -0.00000000000E+00 -0.15529219249E+03  0.15529219256E+03  0.46700000000E-02 0. -1.
         23    2    1    2    0    0  0.00000000000E+00  0.00000000000E+00 -0.14184663210E+03  0.16873775376E+03  0.91389072137E+02 0.  0.
        -11    1    3    3    0    0 -0.39939645690E+02 -0.18539177406E+02 -0.93469733301E+02  0.10332215368E+03  0.51100000000E-03 0. -1.
         11    1    3    3    0    0  0.39939645690E+02  0.18539177406E+02 -0.48376898801E+02  0.65415600086E+02  0.51100000000E-03 0.  1.
<mgrwt>
<rscale>  0 0.91389072E+02</rscale>
<asrwt>0</asrwt>
<pdfrwt beam="2">  1        1 0.23891105E-01 0.91389072E+02</pdfrwt>
<pdfrwt beam="1">  1       -1 0.20685479E-02 0.91389072E+02</pdfrwt>
<totfact> 0.11214662E+05</totfact>
</mgrwt>
</event>
<event>
 5   1  0.1357339E+00  0.9140174E+02  0.7818608E-02  0.1299492E+00
         -1   -1    0    0    0  501 -0.00000000000E+00  0.00000000000E+00  0.26599989415E+02  0.26599989825E+02  0.46700000000E-02 0.  1.
          1   -1    0    0  501    0  0.00000000000E+00 -0.00000000000E+00 -0.78517681327E+02  0.78517681466E+02  0.46700000000E-02 0. -1.
         23    2    1    2    0    0  0.00000000000E+00  0.00000000000E+00 -0.51917691912E+02  0.10511767129E+03  0.91401740050E+02 0.  0.
        -11    1    3    3    0    0 -0.10047956857E+02  0.41590151940E+02 -0.74908639688E+01  0.43437486330E+02  0.51100000000E-03 0.  1.
         11    1    3    3    0    0  0.10047956857E+02 -0.41590151940E+02 -0.44426827943E+02  0.61680184960E+02  0.51100000000E-03 0. -1.
<mgrwt>
<rscale>  0 0.91401740E+02</rscale>
<asrwt>0</asrwt>
<pdfrwt beam="2">  1        1 0.12079643E-01 0.91401740E+02</pdfrwt>
<pdfrwt beam="1">  1       -1 0.40923062E-02 0.91401740E+02</pdfrwt>
<totfact> 0.99769615E+04</totfact>
</mgrwt>
</event>
<event>
 5   1  0.1357339E+00  0.9347243E+02  0.7818608E-02  0.1294654E+00
          1   -1    0    0  501    0  0.00000000000E+00  0.00000000000E+00  0.93511293278E+02  0.93511293394E+02  0.46700000000E-02 0. -1.
         -1   -1    0    0    0  501 -0.00000000000E+00 -0.00000000000E+00 -0.23358393190E+02  0.23358393657E+02  0.46700000000E-02 0.  1.
         23    2    1    2    0    0  0.00000000000E+00  0.00000000000E+00  0.70152900087E+02  0.11686968705E+03  0.93472425671E+02 0.  0.
        -11    1    3    3    0    0 -0.16880550173E+01 -0.27106005107E+02  0.82632512609E+02  0.86981131189E+02  0.51100000000E-03 0. -1.
         11    1    3    3    0    0  0.16880550173E+01  0.27106005107E+02 -0.12479612522E+02  0.29888555862E+02  0.51100000000E-03 0.  1.
<mgrwt>
<rscale>  0 0.93472426E+02</rscale>
<asrwt>0</asrwt>
<pdfrwt beam="1">  1        1 0.14386353E-01 0.93472426E+02</pdfrwt>
<pdfrwt beam="2">  1       -1 0.35935990E-02 0.93472426E+02</pdfrwt>
<totfact> 0.96502586E+04</totfact>
</mgrwt>
</event>
<event>
 5   1  0.1357339E+00  0.8678641E+02  0.7818608E-02  0.1310826E+00
         -1   -1    0    0    0  501 -0.00000000000E+00  0.00000000000E+00  0.33443718232E+02  0.33443718558E+02  0.46700000000E-02 0.  1.
          1   -1    0    0  501    0  0.00000000000E+00 -0.00000000000E+00 -0.56302655855E+02  0.56302656049E+02  0.46700000000E-02 0. -1.
         23    2    1    2    0    0  0.00000000000E+00  0.00000000000E+00 -0.22858937624E+02  0.89746374607E+02  0.86786408646E+02 0.  0.
        -11    1    3    3    0    0 -0.11204281337E+02  0.24109447597E+02  0.24035536056E+02  0.35840038748E+02  0.51100000000E-03 0.  1.
         11    1    3    3    0    0  0.11204281337E+02 -0.24109447597E+02 -0.46894473680E+02  0.53906335859E+02  0.51100000000E-03 0. -1.
<mgrwt>
<rscale>  0 0.86786409E+02</rscale>
<asrwt>0</asrwt>
<pdfrwt beam="2">  1        1 0.86619471E-02 0.86786409E+02</pdfrwt>
<pdfrwt beam="1">  1       -1 0.51451875E-02 0.86786409E+02</pdfrwt>
<totfact> 0.10942282E+05</totfact>
</mgrwt>
</event>
<event>
 5   1  0.1357339E+00  0.9050737E+02  0.7818608E-02  0.1301628E+00
          1   -1    0    0  501    0  0.00000000000E+00  0.00000000000E+00  0.23889380644E+03  0.23889380648E+03  0.46700000000E-02 0. -1.
         -1   -1    0    0    0  501 -0.00000000000E+00 -0.00000000000E+00 -0.85724109214E+01  0.85724121934E+01  0.46700000000E-02 0.  1.
         23    2    1    2    0    0  0.00000000000E+00  0.00000000000E+00  0.23032139551E+03  0.24746621867E+03  0.90507370714E+02 0.  0.
        -11    1    3    3    0    0 -0.21528209345E+02  0.25332910564E+02  0.19910924248E+03  0.20186557556E+03  0.51100000000E-03 0. -1.
         11    1    3    3    0    0  0.21528209345E+02 -0.25332910564E+02  0.31212153038E+02  0.45600643118E+02  0.51100000000E-03 0.  1.
<mgrwt>
<rscale>  0 0.90507371E+02</rscale>
<asrwt>0</asrwt>
<pdfrwt beam="1">  1        1 0.36752890E-01 0.90507371E+02</pdfrwt>
<pdfrwt beam="2">  1       -1 0.13188327E-02 0.90507371E+02</pdfrwt>
<totfact> 0.12501630E+05</totfact>
</mgrwt>
</event>
<event>
 5   1  0.1357339E+00  0.9691396E+02  0.7818608E-02  0.1286923E+00
         -1   -1    0    0    0  501 -0.00000000000E+00  0.00000000000E+00  0.15154059049E+03  0.15154059056E+03  0.46700000000E-02 0. -1.
          1   -1    0    0  501    0  0.00000000000E+00 -0.00000000000E+00 -0.15494719082E+02  0.15494719786E+02  0.46700000000E-02 0.  1.
         23    2    1    2    0    0  0.00000000000E+00  0.00000000000E+00  0.13604587141E+03  0.16703531035E+03  0.96913960685E+02 0.  0.
        -11    1    3    3    0    0 -0.45631950714E+02  0.50647661991E+00  0.96109140189E+02  0.10639313076E+03  0.51100000000E-03 0. -1.
         11    1    3    3    0    0  0.45631950714E+02 -0.50647661991E+00  0.39936731220E+02  0.60642179590E+02  0.51100000000E-03 0.  1.
<mgrwt>
<rscale>  0 0.96913961E+02</rscale>
<asrwt>0</asrwt>
<pdfrwt beam="2">  1        1 0.23838030E-02 0.96913961E+02</pdfrwt>
<pdfrwt beam="1">  1       -1 0.23313937E-01 0.96913961E+02</pdfrwt>
<totfact> 0.63656811E+04</totfact>
</mgrwt>
</event>
<event>
 5   1  0.1357339E+00  0.8604523E+02  0.7818608E-02  0.1312722E+00
         -1   -1    0    0    0  501 -0.00000000000E+00  0.00000000000E+00  0.70039040848E+01  0.70039056417E+01  0.46700000000E-02 0.  1.
          1   -1    0    0  501    0  0.00000000000E+00 -0.00000000000E+00 -0.26427337865E+03  0.26427337869E+03  0.46700000000E-02 0. -1.
         23    2    1    2    0    0  0.00000000000E+00  0.00000000000E+00 -0.25726947456E+03  0.27127728433E+03  0.86045234917E+02 0.  0.
        -11    1    3    3    0    0 -0.39557501067E+02 -0.64925609030E+01 -0.17788156856E+03  0.18234253939E+03  0.51100000000E-03 0. -1.
         11    1    3    3    0    0  0.39557501067E+02  0.64925609030E+01 -0.79387906000E+02  0.88934744937E+02  0.51100000000E-03 0.  1.
<mgrwt>
<rscale>  0 0.86045235E+02</rscale>
<asrwt>0</asrwt>
<pdfrwt beam="2">  1        1 0.40657435E-01 0.86045235E+02</pdfrwt>
<pdfrwt beam="1">  1       -1 0.10775240E-02 0.86045235E+02</pdfrwt>
<totfact> 0.14584289E+05</totfact>
</mgrwt>
</event>
<event>
 5   1  0.1357339E+00  0.9077737E+02  0.7818608E-02  0.1300980E+00
         -1   -1    0    0    0  501 -0.00000000000E+00  0.00000000000E+00  0.10606606664E+03  0.10606606674E+03  0.46700000000E-02 0.  1.
          1   -1    0    0  501    0  0.00000000000E+00 -0.00000000000E+00 -0.19423108719E+02  0.19423109280E+02  0.46700000000E-02 0. -1.
         23    2    1    2    0    0  0.00000000000E+00  0.00000000000E+00  0.86642957921E+02  0.12548917602E+03  0.90777371308E+02 0.  0.
        -11    1    3    3    0    0 -0.92993846582E+01 -0.36667306852E+02  0.86469798100E+01  0.38803868452E+02  0.51100000000E-03 0. -1.
         11    1    3    3    0    0  0.92993846582E+01  0.36667306852E+02  0.77995978111E+02  0.86685307570E+02  0.51100000000E-03 0.  1.
<mgrwt>
<rscale>  0 0.90777371E+02</rscale>
<asrwt>0</asrwt>
<pdfrwt beam="2">  1        1 0.29881706E-02 0.90777371E+02</pdfrwt>
<pdfrwt beam="1">  1       -1 0.16317856E-01 0.90777371E+02</pdfrwt>
<totfact> 0.81387570E+04</totfact>
</mgrwt>
</event>
<event>
 5   1  0.1357339E+00  0.9170591E+02  0.7818608E-02  0.1298772E+00
         -1   -1    0    0    0  501 -0.00000000000E+00  0.00000000000E+00  0.10036276357E+02  0.10036277444E+02  0.46700000000E-02 0.  1.
          1   -1    0    0  501    0  0.00000000000E+00 -0.00000000000E+00 -0.20948939454E+03  0.20948939460E+03  0.46700000000E-02 0. -1.
         23    2    1    2    0    0  0.00000000000E+00  0.00000000000E+00 -0.19945311819E+03  0.21952567204E+03  0.91705912187E+02 0.  0.
        -11    1    3    3    0    0 -0.12177451794E+02 -0.40909874864E+02 -0.59628762716E+02  0.73331422575E+02  0.51100000000E-03 0.  1.
         11    1    3    3    0    0  0.12177451794E+02  0.40909874864E+02 -0.13982435547E+03  0.14619424946E+03  0.51100000000E-03 0. -1.
<mgrwt>
<rscale>  0 0.91705912E+02</rscale>
<asrwt>0</asrwt>
<pdfrwt beam="2">  1        1 0.32229135E-01 0.91705912E+02</pdfrwt>
<pdfrwt beam="1">  1       -1 0.15440428E-02 0.91705912E+02</pdfrwt>
<totfact> 0.11763741E+05</totfact>
</mgrwt>
</event>
<event>
 5   1  0.1357339E+00  0.8819246E+02  0.7818608E-02  0.1307289E+00
          1   -1    0    0  501    0  0.00000000000E+00  0.00000000000E+00  0.21966277968E+03  0.21966277973E+03  0.46700000000E-02 0. -1.
         -1   -1    0    0    0  501 -0.00000000000E+00 -0.00000000000E+00 -0.88521011891E+01  0.88521024210E+01  0.46700000000E-02 0.  1.
         23    2    1    2    0    0  0.00000000000E+00  0.00000000000E+00  0.21081067849E+03  0.22851488215E+03  0.88192455450E+02 0.  0.
        -11    1    3    3    0    0  0.18762136587E+02 -0.26839789568E+02  0.18192314704E+03  0.18484702730E+03  0.51100000000E-03 0. -1.
         11    1    3    3    0    0 -0.18762136587E+02  0.26839789568E+02  0.28887531447E+02  0.43667854844E+02  0.51100000000E-03 0.  1.
<mgrwt>
<rscale>  0 0.88192455E+02</rscale>
<asrwt>0</asrwt>
<pdfrwt beam="1">  1        1 0.33794276E-01 0.88192455E+02</pdfrwt>
<pdfrwt beam="2">  1       -1 0.13618617E-02 0.88192455E+02</pdfrwt>
<totfact> 0.13179627E+05</totfact>
</mgrwt>
</event>
<event>
 5   1  0.1357339E+00  0.9886759E+02  0.7818608E-02  0.1282695E+00
          1   -1    0    0  501    0  0.00000000000E+00  0.00000000000E+00  0.84054773566E+01  0.84054786539E+01  0.46700000000E-02 0. -1.
         -1   -1    0    0    0  501 -0.00000000000E+00 -0.00000000000E+00 -0.29072707899E+03  0.29072707902E+03  0.46700000000E-02 0.  1.
         23    2    1    2    0    0  0.00000000000E+00  0.00000000000E+00 -0.28232160163E+03  0.29913255768E+03  0.98867589816E+02 0.  0.
        -11    1    3    3    0    0  0.43374669921E+02 -0.80035077890E-01 -0.69413426248E+02  0.81851036280E+02  0.51100000000E-03 0.  1.
         11    1    3    3    0    0 -0.43374669921E+02  0.80035077890E-01 -0.21290817538E+03  0.21728152140E+03  0.51100000000E-03 0. -1.
<mgrwt>
<rscale>  0 0.98867590E+02</rscale>
<asrwt>0</asrwt>
<pdfrwt beam="1">  1        1 0.12931507E-02 0.98867590E+02</pdfrwt>
<pdfrwt beam="2">  1       -1 0.44727235E-01 0.98867590E+02</pdfrwt>
<totfact> 0.49594271E+04</totfact>
</mgrwt>
</event>
<event>
 4   1  0.1357339E+00  0.1473559E+03  0.7818608E-02  0.1203760E+00
          1   -1    0    0  501    0  0.00000000000E+00  0.00000000000E+00  0.45247719758E+02  0.45247719999E+02  0.46700000000E-02 0. -1.
         -1   -1    0    0    0  501 -0.00000000000E+00 -0.00000000000E+00 -0.11997157085E+03  0.11997157094E+03  0.46700000000E-02 0.  1.
        -11    1    1    2    0    0 -0.72760247917E+02  0.90466718113E+01 -0.45489392229E+02  0.86285460846E+02  0.51100000000E-03 0.  1.
         11    1    1    2    0    0  0.72760247917E+02 -0.90466718113E+01 -0.29234458861E+02  0.78933830092E+02  0.51100000000E-03 0. -1.
<mgrwt>
<rscale>  0 0.14735590E+03</rscale>
<asrwt>0</asrwt>
<pdfrwt beam="1">  1        1 0.69611878E-02 0.14735590E+03</pdfrwt>
<pdfrwt beam="2">  1       -1 0.18457165E-01 0.14735590E+03</pdfrwt>
<totfact> 0.22534493E+04</totfact>
</mgrwt>
</event>
<event>
 5   1  0.1357339E+00  0.9294315E+02  0.7818608E-02  0.1295877E+00
         -1   -1    0    0    0  501 -0.00000000000E+00  0.00000000000E+00  0.63197305280E+01  0.63197322534E+01  0.46700000000E-02 0.  1.
          1   -1    0    0  501    0  0.00000000000E+00 -0.00000000000E+00 -0.34172450899E+03  0.34172450902E+03  0.46700000000E-02 0. -1.
         23    2    1    2    0    0  0.00000000000E+00  0.00000000000E+00 -0.33540477846E+03  0.34804424127E+03  0.92943146437E+02 0.  0.
        -11    1    3    3    0    0  0.21202072024E+01 -0.45296795254E+02 -0.20576449754E+03  0.21070197766E+03  0.51100000000E-03 0. -1.
         11    1    3    3    0    0 -0.21202072024E+01  0.45296795254E+02 -0.12964028091E+03  0.13734226361E+03  0.51100000000E-03 0.  1.
<mgrwt>
<rscale>  0 0.92943146E+02</rscale>
<asrwt>0</asrwt>
<pdfrwt beam="2">  1        1 0.52572987E-01 0.92943146E+02</pdfrwt>
<pdfrwt beam="1">  1       -1 0.97226663E-03 0.92943146E+02</pdfrwt>
<totfact> 0.12472548E+05</totfact>
</mgrwt>
</event>
<event>
 5   1  0.1357339E+00  0.8998068E+02  0.7818608E-02  0.1302898E+00
          1   -1    0    0  501    0  0.00000000000E+00  0.00000000000E+00  0.10386900095E+03  0.10386900105E+03  0.46700000000E-02 0. -1.
         -1   -1    0    0    0  501 -0.00000000000E+00 -0.00000000000E+00 -0.19487341408E+02  0.19487341968E+02  0.46700000000E-02 0.  1.
         23    2    1    2    0    0  0.00000000000E+00  0.00000000000E+00  0.84381659539E+02  0.12335634302E+03  0.89980680686E+02 0.  0.
        -11    1    3    3    0    0 -0.10193054041E+02 -0.29197622672E+02 -0.26055769582E+01  0.31035279150E+02  0.51100000000E-03 0.  1.
         11    1    3    3    0    0  0.10193054041E+02  0.29197622672E+02  0.86987236497E+02  0.92321063870E+02  0.51100000000E-03 0. -1.
<mgrwt>
<rscale>  0 0.89980681E+02</rscale>
<asrwt>0</asrwt>
<pdfrwt beam="1">  1        1 0.15979846E-01 0.89980681E+02</pdfrwt>
<pdfrwt beam="2">  1       -1 0.29980526E-02 0.89980681E+02</pdfrwt>
<totfact> 0.10895888E+05</totfact>
</mgrwt>
</event>
<event>
 5   1  0.1357339E+00  0.9178457E+02  0.7818608E-02  0.1298587E+00
         -1   -1    0    0    0  501 -0.00000000000E+00  0.00000000000E+00  0.89877261004E+01  0.89877273136E+01  0.46700000000E-02 0.  1.
          1   -1    0    0  501    0  0.00000000000E+00 -0.00000000000E+00 -0.23433085548E+03  0.23433085552E+03  0.46700000000E-02 0. -1.
         23    2    1    2    0    0  0.00000000000E+00  0.00000000000E+00 -0.22534312938E+03  0.24331858284E+03  0.91784567312E+02 0.  0.
        -11    1    3    3    0    0 -0.32410433809E+02 -0.31114096380E+02 -0.87862846311E+02  0.98683347001E+02  0.51100000000E-03 0.  1.
         11    1    3    3    0    0  0.32410433809E+02  0.31114096380E+02 -0.13748028307E+03  0.14463523584E+03  0.51100000000E-03 0. -1.
<mgrwt>
<rscale>  0 0.91784567E+02</rscale>
<asrwt>0</asrwt>
<pdfrwt beam="2">  1        1 0.36050896E-01 0.91784567E+02</pdfrwt>
<pdfrwt beam="1">  1       -1 0.13827274E-02 0.91784567E+02</pdfrwt>
<totfact> 0.11996618E+05</totfact>
</mgrwt>
</event>
<event>
 5   1  0.1357339E+00  0.9097523E+02  0.7818608E-02  0.1300507E+00
          1   -1    0    0  501    0  0.00000000000E+00  0.00000000000E+00  0.23473419454E+03  0.23473419459E+03  0.46700000000E-02 0. -1.
         -1   -1    0    0    0  501 -0.00000000000E+00 -0.00000000000E+00 -0.88147497084E+01  0.88147509454E+01  0.46700000000E-02 0.  1.
         23    2    1    2    0    0  0.00000000000E+00  0.00000000000E+00  0.22591944483E+03  0.24354894553E+03  0.90975234634E+02 0.  0.
        -11    1    3    3    0    0 -0.33885204229E+02 -0.17992683653E+02  0.47538967638E+02  0.61089255807E+02  0.51100000000E-03 0.  1.
         11    1    3    3    0    0  0.33885204229E+02  0.17992683653E+02  0.17838047719E+03  0.18245968972E+03  0.51100000000E-03 0. -1.
<mgrwt>
<rscale>  0 0.90975235E+02</rscale>
<asrwt>0</asrwt>
<pdfrwt beam="1">  1        1 0.36112953E-01 0.90975235E+02</pdfrwt>
<pdfrwt beam="2">  1       -1 0.13561154E-02 0.90975235E+02</pdfrwt>
<totfact> 0.12288529E+05</totfact>
</mgrwt>
</event>
<event>
 5   1  0.1357339E+00  0.9294410E+02  0.7818608E-02  0.1295875E+00
         -1   -1    0    0    0  501 -0.00000000000E+00  0.00000000000E+00  0.26793707958E+02  0.26793708365E+02  0.46700000000E-02 0.  1.
          1   -1    0    0  501    0  0.00000000000E+00 -0.00000000000E+00 -0.80602926559E+02  0.80602926694E+02  0.46700000000E-02 0. -1.
         23    2    1    2    0    0  0.00000000000E+00  0.00000000000E+00 -0.53809218600E+02  0.10739663506E+03  0.92944097261E+02 0.  0.
        -11    1    3    3    0    0 -0.14902641764E+01  0.37599005519E+02  0.46077521146E+01  0.37909596188E+02  0.51100000000E-03 0.  1.
         11    1    3    3    0    0  0.14902641764E+01 -0.37599005519E+02 -0.58416970715E+02  0.69487038871E+02  0.51100000000E-03 0. -1.
<mgrwt>
<rscale>  0 0.92944097E+02</rscale>
<asrwt>0</asrwt>
<pdfrwt beam="2">  1        1 0.12400450E-01 0.92944097E+02</pdfrwt>
<pdfrwt beam="1">  1       -1 0.41221090E-02 0.92944097E+02</pdfrwt>
<totfact> 0.95676455E+04</totfact>
</mgrwt>
</event>
<event>
 5   1  0.1357339E+00  0.9201145E+02  0.7818608E-02  0.1298053E+00
          1   -1    0    0  501    0  0.00000000000E+00  0.00000000000E+00  0.21113908215E+03  0.21113908220E+03  0.46700000000E-02 0. -1.
         -1   -1    0    0    0  501 -0.00000000000E+00 -0.00000000000E+00 -0.10024323971E+02  0.10024325059E+02  0.46700000000E-02 0.  1.
         23    2    1    2    0    0  0.00000000000E+00  0.00000000000E+00  0.20111475817E+03  0.22116340726E+03  0.92011449036E+02 0.  0.
        -11    1    3    3    0    0 -0.41087133810E+02 -0.20685297374E+02  0.98870372229E+02  0.10904762536E+03  0.51100000000E-03 0. -1.
         11    1    3    3    0    0  0.41087133810E+02  0.20685297374E+02  0.10224438595E+03  0.11211578189E+03  0.51100000000E-03 0.  1.
<mgrwt>
<rscale>  0 0.92011449E+02</rscale>
<asrwt>0</asrwt>
<pdfrwt beam="1">  1        1 0.32482937E-01 0.92011449E+02</pdfrwt>
<pdfrwt beam="2">  1       -1 0.15422037E-02 0.92011449E+02</pdfrwt>
<totfact> 0.11677059E+05</totfact>
</mgrwt>
</event>
<event>
 5   1  0.1357339E+00  0.9145409E+02  0.7818608E-02  0.1299368E+00
          1   -1    0    0  501    0  0.00000000000E+00  0.00000000000E+00  0.12023967374E+03  0.12023967383E+03  0.46700000000E-02 0. -1.
         -1   -1    0    0    0  501 -0.00000000000E+00 -0.00000000000E+00 -0.17389955326E+02  0.17389955953E+02  0.46700000000E-02 0.  1.
         23    2    1    2    0    0  0.00000000000E+00  0.00000000000E+00  0.10284971841E+03  0.13762962978E+03  0.91454089117E+02 0.  0.
        -11    1    3    3    0    0 -0.89563875008E+01  0.16619273674E+02 -0.11251196455E+02  0.21977410139E+02  0.51100000000E-03 0.  1.
         11    1    3    3    0    0  0.89563875008E+01 -0.16619273674E+02  0.11410091487E+03  0.11565221964E+03  0.51100000000E-03 0. -1.
<mgrwt>
<rscale>  0 0.91454089E+02</rscale>
<asrwt>0</asrwt>
<pdfrwt beam="1">  1        1 0.18498411E-01 0.91454089E+02</pdfrwt>
<pdfrwt beam="2">  1       -1 0.26753779E-02 0.91454089E+02</pdfrwt>
<totfact> 0.10689136E+05</totfact>
</mgrwt>
</event>
<event>
 5   1  0.1357339E+00  0.9161218E+02  0.7818608E-02  0.1298994E+00
          1   -1    0    0  501    0  0.00000000000E+00  0.00000000000E+00  0.19042450774E+02  0.19042451347E+02  0.46700000000E-02 0. -1.
         -1   -1    0    0    0  501 -0.00000000000E+00 -0.00000000000E+00 -0.11018528910E+03  0.11018528919E+03  0.46700000000E-02 0.  1.
         23    2    1    2    0    0  0.00000000000E+00  0.00000000000E+00 -0.91142838322E+02  0.12922774054E+03  0.91612182313E+02 0.  0.
        -11    1    3    3    0    0  0.36054154803E+02 -0.95743550466E+01 -0.83068532106E+02  0.91060152535E+02  0.51100000000E-03 0.  1.
         11    1    3    3    0    0 -0.36054154803E+02  0.95743550466E+01 -0.80743062158E+01  0.38167588007E+02  0.51100000000E-03 0. -1.
<mgrwt>
<rscale>  0 0.91612182E+02</rscale>
<asrwt>0</asrwt>
<pdfrwt beam="1">  1        1 0.29296079E-02 0.91612182E+02</pdfrwt>
<pdfrwt beam="2">  1       -1 0.16951583E-01 0.91612182E+02</pdfrwt>
<totfact> 0.78904099E+04</totfact>
</mgrwt>
</event>
<event>
 5   1  0.1357339E+00  0.8987866E+02  0.7818608E-02  0.1303146E+00
          1   -1    0    0  501    0  0.00000000000E+00  0.00000000000E+00  0.39602753424E+02  0.39602753700E+02  0.46700000000E-02 0. -1.
         -1   -1    0    0    0  501 -0.00000000000E+00 -0.00000000000E+00 -0.50995022193E+02  0.50995022406E+02  0.46700000000E-02 0.  1.
         23    2    1    2    0    0  0.00000000000E+00  0.00000000000E+00 -0.11392268768E+02  0.90597776106E+02  0.89878658466E+02 0.  0.
        -11    1    3    3    0    0 -0.42466602571E+02  0.80734637919E+01 -0.18080613489E+02  0.46856181406E+02  0.51100000000E-03 0.  1.
         11    1    3    3    0    0  0.42466602571E+02 -0.80734637919E+01  0.66883447208E+01  0.43741594700E+02  0.51100000000E-03 0. -1.
<mgrwt>
<rscale>  0 0.89878658E+02</rscale>
<asrwt>0</asrwt>
<pdfrwt beam="1">  1        1 0.60927313E-02 0.89878658E+02</pdfrwt>
<pdfrwt beam="2">  1       -1 0.78453881E-02 0.89878658E+02</pdfrwt>
<totfact> 0.94262786E+04</totfact>
</mgrwt>
</event>
<event>
 5   1  0.1357339E+00  0.9072743E+02  0.7818608E-02  0.1301100E+00
         -1   -1    0    0    0  501 -0.00000000000E+00  0.00000000000E+00  0.40299356050E+02  0.40299356321E+02  0.46700000000E-02 0.  1.
          1   -1    0    0  501    0  0.00000000000E+00 -0.00000000000E+00 -0.51064507818E+02  0.51064508031E+02  0.46700000000E-02 0. -1.
         23    2    1    2    0    0  0.00000000000E+00  0.00000000000E+00 -0.10765151767E+02  0.91363864352E+02  0.90727433650E+02 0.  0.
        -11    1    3    3    0    0  0.90198201384E+01  0.18257827684E+02  0.35437700694E+02  0.40872191742E+02  0.51100000000E-03 0.  1.
         11    1    3    3    0    0 -0.90198201384E+01 -0.18257827684E+02 -0.46202852462E+02  0.50491672610E+02  0.51100000000E-03 0. -1.
<mgrwt>
<rscale>  0 0.90727434E+02</rscale>
<asrwt>0</asrwt>
<pdfrwt beam="2">  1        1 0.78560782E-02 0.90727434E+02</pdfrwt>
<pdfrwt beam="1">  1       -1 0.61999010E-02 0.90727434E+02</pdfrwt>
<totfact> 0.95366786E+04</totfact>
</mgrwt>
</event>
<event>
 5   1  0.1357339E+00  0.8485652E+02  0.7818608E-02  0.1315808E+00
         -1   -1    0    0    0  501 -0.00000000000E+00  0.00000000000E+00  0.90607428796E+02  0.90607428917E+02  0.46700000000E-02 0.  1.
          1   -1    0    0  501    0  0.00000000000E+00 -0.00000000000E+00 -0.19867656354E+02  0.19867656902E+02  0.46700000000E-02 0. -1.
         23    2    1    2    0    0  0.00000000000E+00  0.00000000000E+00  0.70739772443E+02  0.11047508582E+03  0.84856521149E+02 0.  0.
        -11    1    3    3    0    0 -0.42402010257E+02  0.12529421798E+01  0.34314654959E+02  0.54561853736E+02  0.51100000000E-03 0.  1.
         11    1    3    3    0    0  0.42402010257E+02 -0.12529421798E+01  0.36425117484E+02  0.55913232083E+02  0.51100000000E-03 0. -1.
<mgrwt>
<rscale>  0 0.84856521E+02</rscale>
<asrwt>0</asrwt>
<pdfrwt beam="2">  1        1 0.30565626E-02 0.84856521E+02</pdfrwt>
<pdfrwt beam="1">  1       -1 0.13939604E-01 0.84856521E+02</pdfrwt>
<totfact> 0.99597801E+04</totfact>
</mgrwt>
</event>
<event>
 5   1  0.1357339E+00  0.9451579E+02  0.7818608E-02  0.1292270E+00
         -1   -1    0    0    0  501 -0.00000000000E+00  0.00000000000E+00  0.31521088888E+03  0.31521088891E+03  0.46700000000E-02 0.  1.
          1   -1    0    0  501    0  0.00000000000E+00 -0.00000000000E+00 -0.70851241074E+01  0.70851256464E+01  0.46700000000E-02 0. -1.
         23    2    1    2    0    0  0.00000000000E+00  0.00000000000E+00  0.30812576477E+03  0.32229601456E+03  0.94515787492E+02 0.  0.
        -11    1    3    3    0    0 -0.39008875000E+02  0.24744754193E+02  0.18804530643E+03  0.19363634075E+03  0.51100000000E-03 0.  1.
         11    1    3    3    0    0  0.39008875000E+02 -0.24744754193E+02  0.12008045834E+03  0.12865967381E+03  0.51100000000E-03 0. -1.
<mgrwt>
<rscale>  0 0.94515787E+02</rscale>
<asrwt>0</asrwt>
<pdfrwt beam="2">  1        1 0.10900193E-02 0.94515787E+02</pdfrwt>
<pdfrwt beam="1">  1       -1 0.48493978E-01 0.94515787E+02</pdfrwt>
<totfact> 0.54051073E+04</totfact>
</mgrwt>
</event>
<event>
 5   1  0.1357339E+00  0.9262884E+02  0.7818608E-02  0.1296608E+00
          1   -1    0    0  501    0  0.00000000000E+00  0.00000000000E+00  0.77043059243E+02  0.77043059385E+02  0.46700000000E-02 0. -1.
         -1   -1    0    0    0  501 -0.00000000000E+00 -0.00000000000E+00 -0.27841906274E+02  0.27841906666E+02  0.46700000000E-02 0.  1.
         23    2    1    2    0    0  0.00000000000E+00  0.00000000000E+00  0.49201152970E+02  0.10488496605E+03  0.92628843510E+02 0.  0.
        -11    1    3    3    0    0  0.30402360553E+02  0.27624934930E+02  0.48822182729E+02  0.63804749696E+02  0.51100000000E-03 0.  1.
         11    1    3    3    0    0 -0.30402360553E+02 -0.27624934930E+02  0.37897024015E+00  0.41080216355E+02  0.51100000000E-03 0. -1.
<mgrwt>
<rscale>  0 0.92628844E+02</rscale>
<asrwt>0</asrwt>
<pdfrwt beam="1">  1        1 0.11852778E-01 0.92628844E+02</pdfrwt>
<pdfrwt beam="2">  1       -1 0.42833703E-02 0.92628844E+02</pdfrwt>
<totfact> 0.95884920E+04</totfact>
</mgrwt>
</event>
<event>
 5   1  0.1357339E+00  0.9080171E+02  0.7818608E-02  0.1300922E+00
          1   -1    0    0  501    0  0.00000000000E+00  0.00000000000E+00  0.20823352435E+02  0.20823352958E+02  0.46700000000E-02 0. -1.
         -1   -1    0    0    0  501 -0.00000000000E+00 -0.00000000000E+00 -0.98986837135E+02  0.98986837246E+02  0.46700000000E-02 0.  1.
         23    2    1    2    0    0  0.00000000000E+00  0.00000000000E+00 -0.78163484701E+02  0.11981019020E+03  0.90801714390E+02 0.  0.
        -11    1    3    3    0    0 -0.12121928684E+02  0.40881217173E+02 -0.59651216290E+02  0.73324502573E+02  0.51100000000E-03 0.  1.
         11    1    3    3    0    0  0.12121928684E+02 -0.40881217173E+02 -0.18512268411E+02  0.46485687631E+02  0.51100000000E-03 0. -1.
<mgrwt>
<rscale>  0 0.90801714E+02</rscale>
<asrwt>0</asrwt>
<pdfrwt beam="1">  1        1 0.32035928E-02 0.90801714E+02</pdfrwt>
<pdfrwt beam="2">  1       -1 0.15228744E-01 0.90801714E+02</pdfrwt>
<totfact> 0.82394111E+04</totfact>
</mgrwt>
</event>
<event>
 5   1  0.1357339E+00  0.9211199E+02  0.7818608E-02  0.1297816E+00
         -1   -1    0    0    0  501 -0.00000000000E+00  0.00000000000E+00  0.77131543525E+02  0.77131543667E+02  0.46700000000E-02 0.  1.
          1   -1    0    0  501    0  0.00000000000E+00 -0.00000000000E+00 -0.27500485219E+02  0.27500485615E+02  0.46700000000E-02 0. -1.
         23    2    1    2    0    0  0.00000000000E+00  0.00000000000E+00  0.49631058306E+02  0.10463202928E+03  0.92111994892E+02 0.  0.
        -11    1    3    3    0    0  0.21410897247E+02 -0.40365616506E+02  0.31374962446E+02  0.55427410056E+02  0.51100000000E-03 0.  1.
         11    1    3    3    0    0 -0.21410897247E+02  0.40365616506E+02  0.18256095861E+02  0.49204619226E+02  0.51100000000E-03 0. -1.
<mgrwt>
<rscale>  0 0.92111995E+02</rscale>
<asrwt>0</asrwt>
<pdfrwt beam="2">  1        1 0.42308439E-02 0.92111995E+02</pdfrwt>
<pdfrwt beam="1">  1       -1 0.11866391E-01 0.92111995E+02</pdfrwt>
<totfact> 0.82975390E+04</totfact>
</mgrwt>
</event>
<event>
 5   1  0.1357339E+00  0.9115563E+02  0.7818608E-02  0.1300077E+00
         -1   -1    0    0    0  501 -0.00000000000E+00  0.00000000000E+00  0.69646338383E+02  0.69646338540E+02  0.46700000000E-02 0.  1.
          1   -1    0    0  501    0  0.00000000000E+00 -0.00000000000E+00 -0.29826941211E+02  0.29826941576E+02  0.46700000000E-02 0. -1.
         23    2    1    2    0    0  0.00000000000E+00  0.00000000000E+00  0.39819397173E+02  0.99473280116E+02  0.91155631015E+02 0.  0.
        -11    1    3    3    0    0  0.24146818819E+02  0.17519734688E+02  0.57511457851E+02  0.64788716201E+02  0.51100000000E-03 0.  1.
         11    1    3    3    0    0 -0.24146818819E+02 -0.17519734688E+02 -0.17692060678E+02  0.34684563915E+02  0.51100000000E-03 0. -1.
<mgrwt>
<rscale>  0 0.91155631E+02</rscale>
<asrwt>0</asrwt>
<pdfrwt beam="2">  1        1 0.45887603E-02 0.91155631E+02</pdfrwt>
<pdfrwt beam="1">  1       -1 0.10714821E-01 0.91155631E+02</pdfrwt>
<totfact> 0.86661600E+04</totfact>
</mgrwt>
</event>
<event>
 5   1  0.1357339E+00  0.9332199E+02  0.7818608E-02  0.1295001E+00
         -1   -1    0    0    0  501 -0.00000000000E+00  0.00000000000E+00  0.19009853850E+02  0.19009854424E+02  0.46700000000E-02 0.  1.
          1   -1    0    0  501    0  0.00000000000E+00 -0.00000000000E+00 -0.11453262829E+03  0.11453262839E+03  0.46700000000E-02 0. -1.
         23    2    1    2    0    0  0.00000000000E+00  0.00000000000E+00 -0.95522774443E+02  0.13354248281E+03  0.93321992468E+02 0.  0.
        -11    1    3    3    0    0  0.10828005019E+02 -0.44873247052E+02 -0.38014430289E+02  0.59799255047E+02  0.51100000000E-03 0.  1.
         11    1    3    3    0    0 -0.10828005019E+02  0.44873247052E+02 -0.57508344154E+02  0.73743227766E+02  0.51100000000E-03 0. -1.
<mgrwt>
<rscale>  0 0.93321992E+02</rscale>
<asrwt>0</asrwt>
<pdfrwt beam="2">  1        1 0.17620404E-01 0.93321992E+02</pdfrwt>
<pdfrwt beam="1">  1       -1 0.29245930E-02 0.93321992E+02</pdfrwt>
<totfact> 0.10031958E+05</totfact>
</mgrwt>
</event>
<event>
 5   1  0.1357339E+00  0.9163670E+02  0.7818608E-02  0.1298936E+00
         -1   -1    0    0    0  501 -0.00000000000E+00  0.00000000000E+00  0.12221695034E+02  0.12221695926E+02  0.46700000000E-02 0.  1.
          1   -1    0    0  501    0  0.00000000000E+00 -0.00000000000E+00 -0.17177006114E+03  0.17177006120E+03  0.46700000000E-02 0. -1.
         23    2    1    2    0    0  0.00000000000E+00  0.00000000000E+00 -0.15954836611E+03  0.18399175713E+03  0.91636704242E+02 0.  0.
        -11    1    3    3    0    0 -0.35427005195E+02 -0.24944660211E+02 -0.49857203993E+02  0.66053384170E+02  0.51100000000E-03 0.  1.
         11    1    3    3    0    0  0.35427005195E+02  0.24944660211E+02 -0.10969116211E+03  0.11793837296E+03  0.51100000000E-03 0. -1.
<mgrwt>
<rscale>  0 0.91636704E+02</rscale>
<asrwt>0</asrwt>
<pdfrwt beam="2">  1        1 0.26426162E-01 0.91636704E+02</pdfrwt>
<pdfrwt beam="1">  1       -1 0.18802610E-02 0.91636704E+02</pdfrwt>
<totfact> 0.11345243E+05</totfact>
</mgrwt>
</event>
<event>
 5   1  0.1357339E+00  0.9165829E+02  0.7818608E-02  0.1298885E+00
          1   -1    0    0  501    0  0.00000000000E+00  0.00000000000E+00  0.16849411268E+03  0.16849411274E+03  0.46700000000E-02 0. -1.
         -1   -1    0    0    0  501 -0.00000000000E+00 -0.00000000000E+00 -0.12465186613E+02  0.12465187488E+02  0.46700000000E-02 0.  1.
         23    2    1    2    0    0  0.00000000000E+00  0.00000000000E+00  0.15602892607E+03  0.18095930023E+03  0.91658292428E+02 0.  0.
        -11    1    3    3    0    0 -0.42549612950E+02  0.10832840760E+02  0.10394383002E+03  0.11283678390E+03  0.51100000000E-03 0. -1.
         11    1    3    3    0    0  0.42549612950E+02 -0.10832840760E+02  0.52085096046E+02  0.68122516332E+02  0.51100000000E-03 0.  1.
<mgrwt>
<rscale>  0 0.91658292E+02</rscale>
<asrwt>0</asrwt>
<pdfrwt beam="1">  1        1 0.25922172E-01 0.91658292E+02</pdfrwt>
<pdfrwt beam="2">  1       -1 0.19177210E-02 0.91658292E+02</pdfrwt>
<totfact> 0.11296943E+05</totfact>
</mgrwt>
</event>
<event>
 5   1  0.1357339E+00  0.9426989E+02  0.7818608E-02  0.1292829E+00
          1   -1    0    0  501    0  0.00000000000E+00  0.00000000000E+00  0.27602957497E+03  0.27602957501E+03  0.46700000000E-02 0. -1.
         -1   -1    0    0    0  501 -0.00000000000E+00 -0.00000000000E+00 -0.80487854235E+01  0.80487867783E+01  0.46700000000E-02 0.  1.
         23    2    1    2    0    0  0.00000000000E+00  0.00000000000E+00  0.26798078955E+03  0.28407836179E+03  0.94269889520E+02 0.  0.
        -11    1    3    3    0    0 -0.41087401769E+02  0.14586897549E+01  0.20345701992E+03  0.20756941325E+03  0.51100000000E-03 0. -1.
         11    1    3    3    0    0  0.41087401769E+02 -0.14586897549E+01  0.64523769623E+02  0.76508948539E+02  0.51100000000E-03 0.  1.
<mgrwt>
<rscale>  0 0.94269890E+02</rscale>
<asrwt>0</asrwt>
<pdfrwt beam="1">  1        1 0.42466090E-01 0.94269890E+02</pdfrwt>
<pdfrwt beam="2">  1       -1 0.12382747E-02 0.94269890E+02</pdfrwt>
<totfact> 0.11532334E+05</totfact>
</mgrwt>
</event>
<event>
 5   1  0.1357339E+00  0.9062504E+02  0.7818608E-02  0.1301345E+00
         -1   -1    0    0    0  501 -0.00000000000E+00  0.00000000000E+00  0.46484401512E+02  0.46484401746E+02  0.46700000000E-02 0.  1.
          1   -1    0    0  501    0  0.00000000000E+00 -0.00000000000E+00 -0.44170179208E+02  0.44170179454E+02  0.46700000000E-02 0. -1.
         23    2    1    2    0    0  0.00000000000E+00  0.00000000000E+00  0.23142223043E+01  0.90654581201E+02  0.90625037754E+02 0.  0.
        -11    1    3    3    0    0 -0.42492420852E+02 -0.15276295532E+02  0.49337003857E+01  0.45423699044E+02  0.51100000000E-03 0. -1.
         11    1    3    3    0    0  0.42492420852E+02  0.15276295532E+02 -0.26194780814E+01  0.45230882157E+02  0.51100000000E-03 0.  1.
<mgrwt>
<rscale>  0 0.90625038E+02</rscale>
<asrwt>0</asrwt>
<pdfrwt beam="2">  1        1 0.67954122E-02 0.90625038E+02</pdfrwt>
<pdfrwt beam="1">  1       -1 0.71514464E-02 0.90625038E+02</pdfrwt>
<totfact> 0.93615941E+04</totfact>
</mgrwt>
</event>
<event>
 5   1  0.1357339E+00  0.8473547E+02  0.7818608E-02  0.1316126E+00
         -1   -1    0    0    0  501 -0.00000000000E+00  0.00000000000E+00  0.53346477232E+02  0.53346477436E+02  0.46700000000E-02 0.  1.
          1   -1    0    0  501    0  0.00000000000E+00 -0.00000000000E+00 -0.33648421950E+02  0.33648422274E+02  0.46700000000E-02 0. -1.
         23    2    1    2    0    0  0.00000000000E+00  0.00000000000E+00  0.19698055282E+02  0.86994899711E+02  0.84735465974E+02 0.  0.
        -11    1    3    3    0    0  0.35495499849E+02  0.18030601632E+02 -0.50284610091E+01  0.40128774279E+02  0.51100000000E-03 0.  1.
         11    1    3    3    0    0 -0.35495499849E+02 -0.18030601632E+02  0.24726516291E+02  0.46866125431E+02  0.51100000000E-03 0. -1.
<mgrwt>
<rscale>  0 0.84735466E+02</rscale>
<asrwt>0</asrwt>
<pdfrwt beam="2">  1        1 0.51766803E-02 0.84735466E+02</pdfrwt>
<pdfrwt beam="1">  1       -1 0.82071504E-02 0.84735466E+02</pdfrwt>
<totfact> 0.10862180E+05</totfact>
</mgrwt>
</event>
<event>
 5   1  0.1357339E+00  0.9391028E+02  0.7818608E-02  0.1293649E+00
         -1   -1    0    0    0  501 -0.00000000000E+00  0.00000000000E+00  0.11257701505E+02  0.11257702474E+02  0.46700000000E-02 0.  1.
          1   -1    0    0  501    0  0.00000000000E+00 -0.00000000000E+00 -0.19584682528E+03  0.19584682534E+03  0.46700000000E-02 0. -1.
         23    2    1    2    0    0  0.00000000000E+00  0.00000000000E+00 -0.18458912378E+03  0.20710452781E+03  0.93910280711E+02 0.  0.
        -11    1    3    3    0    0  0.18688954342E+02 -0.33254580541E+02 -0.31913167320E+02  0.49735242937E+02  0.51100000000E-03 0.  1.
         11    1    3    3    0    0 -0.18688954342E+02  0.33254580541E+02 -0.15267595646E+03  0.15736928487E+03  0.51100000000E-03 0. -1.
<mgrwt>
<rscale>  0 0.93910281E+02</rscale>
<asrwt>0</asrwt>
<pdfrwt beam="2">  1        1 0.30130278E-01 0.93910281E+02</pdfrwt>
<pdfrwt beam="1">  1       -1 0.17319543E-02 0.93910281E+02</pdfrwt>
<totfact> 0.10892041E+05</totfact>
</mgrwt>
</event>
<event>
 5   1  0.1357339E+00  0.8635608E+02  0.7818608E-02  0.1311924E+00
          1   -1    0    0  501    0  0.00000000000E+00  0.00000000000E+00  0.16807580390E+03  0.16807580396E+03  0.46700000000E-02 0. -1.
         -1   -1    0    0    0  501 -0.00000000000E+00 -0.00000000000E+00 -0.11092274794E+02  0.11092275777E+02  0.46700000000E-02 0.  1.
         23    2    1    2    0    0  0.00000000000E+00  0.00000000000E+00  0.15698352910E+03  0.17916807974E+03  0.86356079042E+02 0.  0.
        -11    1    3    3    0    0  0.66709718980E+01 -0.26631888521E+02  0.14763399418E+03  0.15016509445E+03  0.51100000000E-03 0. -1.
         11    1    3    3    0    0 -0.66709718980E+01  0.26631888521E+02  0.93495349218E+01  0.29002985291E+02  0.51100000000E-03 0.  1.
<mgrwt>
<rscale>  0 0.86356079E+02</rscale>
<asrwt>0</asrwt>
<pdfrwt beam="1">  1        1 0.25857815E-01 0.86356079E+02</pdfrwt>
<pdfrwt beam="2">  1       -1 0.17065040E-02 0.86356079E+02</pdfrwt>
<totfact> 0.13248376E+05</totfact>
</mgrwt>
</event>
<event>
 5   1  0.1357339E+00  0.9318393E+02  0.7818608E-02  0.1295320E+00
          1   -1    0    0  501    0  0.00000000000E+00  0.00000000000E+00  0.14080540392E+02  0.14080541166E+02  0.46700000000E-02 0.  1.
         -1   -1    0    0    0  501 -0.00000000000E+00 -0.00000000000E+00 -0.15417100480E+03  0.15417100487E+03  0.46700000000E-02 0. -1.
         23    2    1    2    0    0  0.00000000000E+00  0.00000000000E+00 -0.14009046441E+03  0.16825154603E+03  0.93183928473E+02 0.  0.
        -11    1    3    3    0    0 -0.17875545806E+02 -0.23539632170E+02 -0.50150294074E+01  0.29979992341E+02  0.51100000000E-03 0.  1.
         11    1    3    3    0    0  0.17875545806E+02  0.23539632170E+02 -0.13507543500E+03  0.13827155369E+03  0.51100000000E-03 0. -1.
<mgrwt>
<rscale>  0 0.93183928E+02</rscale>
<asrwt>0</asrwt>
<pdfrwt beam="1">  1        1 0.21662372E-02 0.93183928E+02</pdfrwt>
<pdfrwt beam="2">  1       -1 0.23718615E-01 0.93183928E+02</pdfrwt>
<totfact> 0.70215257E+04</totfact>
</mgrwt>
</event>
<event>
 5   1  0.1357339E+00  0.9060020E+02  0.7818608E-02  0.1301405E+00
         -1   -1    0    0    0  501 -0.00000000000E+00  0.00000000000E+00  0.10798498053E+02  0.10798499063E+02  0.46700000000E-02 0. -1.
          1   -1    0    0  501    0  0.00000000000E+00 -0.00000000000E+00 -0.19003559082E+03  0.19003559087E+03  0.46700000000E-02 0.  1.
         23    2    1    2    0    0  0.00000000000E+00  0.00000000000E+00 -0.17923709276E+03  0.20083408994E+03  0.90600200102E+02 0.  0.
        -11    1    3    3    0    0  0.40521347318E+02 -0.44843655440E+01 -0.13339555829E+03  0.13948642979E+03  0.51100000000E-03 0.  1.
         11    1    3    3    0    0 -0.40521347318E+02  0.44843655440E+01 -0.45841534471E+02  0.61347660149E+02  0.51100000000E-03 0. -1.
<mgrwt>
<rscale>  0 0.90600200E+02</rscale>
<asrwt>0</asrwt>
<pdfrwt beam="2">  1        1 0.29236242E-01 0.90600200E+02</pdfrwt>
<pdfrwt beam="1">  1       -1 0.16613076E-02 0.90600200E+02</pdfrwt>
<totfact> 0.11925381E+05</totfact>
</mgrwt>
</event>
<event>
 5   1  0.1357339E+00  0.9075069E+02  0.7818608E-02  0.1301044E+00
         -1   -1    0    0    0  501 -0.00000000000E+00  0.00000000000E+00  0.15192761847E+03  0.15192761854E+03  0.46700000000E-02 0.  1.
          1   -1    0    0  501    0  0.00000000000E+00 -0.00000000000E+00 -0.13551992277E+02  0.13551993081E+02  0.46700000000E-02 0. -1.
         23    2    1    2    0    0  0.00000000000E+00  0.00000000000E+00  0.13837562620E+03  0.16547961163E+03  0.90750691119E+02 0.  0.
        -11    1    3    3    0    0  0.27262642308E+02 -0.30390022595E+01  0.32797696469E+01  0.27626872598E+02  0.51100000000E-03 0. -1.
         11    1    3    3    0    0 -0.27262642308E+02  0.30390022595E+01  0.13509585655E+03  0.13785273903E+03  0.51100000000E-03 0.  1.
<mgrwt>
<rscale>  0 0.90750691E+02</rscale>
<asrwt>0</asrwt>
<pdfrwt beam="2">  1        1 0.20849221E-02 0.90750691E+02</pdfrwt>
<pdfrwt beam="1">  1       -1 0.23373479E-01 0.90750691E+02</pdfrwt>
<totfact> 0.75476324E+04</totfact>
</mgrwt>
</event>
<event>
 5   1  0.1357339E+00  0.8497509E+02  0.7818608E-02  0.1315498E+00
         -1   -1    0    0    0  501 -0.00000000000E+00  0.00000000000E+00  0.19660895516E+02  0.19660896071E+02  0.46700000000E-02 0.  1.
          1   -1    0    0  501    0  0.00000000000E+00 -0.00000000000E+00 -0.91816329738E+02  0.91816329857E+02  0.46700000000E-02 0. -1.
         23    2    1    2    0    0  0.00000000000E+00  0.00000000000E+00 -0.72155434222E+02  0.11147722593E+03  0.84975085836E+02 0.  0.
        -11    1    3    3    0    0 -0.97127050580E+01  0.39665790103E+02 -0.51459756596E+02  0.65694886356E+02  0.51100000000E-03 0.  1.
         11    1    3    3    0    0  0.97127050580E+01 -0.39665790103E+02 -0.20695677626E+02  0.45782339572E+02  0.51100000000E-03 0. -1.
<mgrwt>
<rscale>  0 0.84975086E+02</rscale>
<asrwt>0</asrwt>
<pdfrwt beam="2">  1        1 0.14125589E-01 0.84975086E+02</pdfrwt>
<pdfrwt beam="1">  1       -1 0.30247533E-02 0.84975086E+02</pdfrwt>
<totfact> 0.12473061E+05</totfact>
</mgrwt>
</event>
<event>
 5   1  0.1357339E+00  0.8842104E+02  0.7818608E-02  0.1306721E+00
          1   -1    0    0  501    0  0.00000000000E+00  0.00000000000E+00  0.25335613354E+03  0.25335613358E+03  0.46700000000E-02 0. -1.
         -1   -1    0    0    0  501 -0.00000000000E+00 -0.00000000000E+00 -0.77147139666E+01  0.77147153801E+01  0.46700000000E-02 0.  1.
         23    2    1    2    0    0  0.00000000000E+00  0.00000000000E+00  0.24564141957E+03  0.26107084896E+03  0.88421044827E+02 0.  0.
        -11    1    3    3    0    0  0.50944080602E+01 -0.43908905512E+02  0.12048589627E+03  0.12833859971E+03  0.51100000000E-03 0. -1.
         11    1    3    3    0    0 -0.50944080602E+01  0.43908905512E+02  0.12515552331E+03  0.13273224925E+03  0.51100000000E-03 0.  1.
<mgrwt>
<rscale>  0 0.88421045E+02</rscale>
<asrwt>0</asrwt>
<pdfrwt beam="1">  1        1 0.38977868E-01 0.88421045E+02</pdfrwt>
<pdfrwt beam="2">  1       -1 0.11868792E-02 0.88421045E+02</pdfrwt>
<totfact> 0.13455931E+05</totfact>
</mgrwt>
</event>
<event>
 5   1  0.1357339E+00  0.9377699E+02  0.7818608E-02  0.1293955E+00
         -1   -1    0    0    0  501 -0.00000000000E+00  0.00000000000E+00  0.88403061481E+02  0.88403061604E+02  0.46700000000E-02 0.  1.
          1   -1    0    0  501    0  0.00000000000E+00 -0.00000000000E+00 -0.24869397689E+02  0.24869398128E+02  0.46700000000E-02 0. -1.
         23    2    1    2    0    0  0.00000000000E+00  0.00000000000E+00  0.63533663791E+02  0.11327245973E+03  0.93776989176E+02 0.  0.
        -11    1    3    3    0    0  0.30056328546E+02  0.33533241552E+02  0.15986856480E+02  0.47785361305E+02  0.51100000000E-03 0. -1.
         11    1    3    3    0    0 -0.30056328546E+02 -0.33533241552E+02  0.47546807311E+02  0.65487098427E+02  0.51100000000E-03 0.  1.
<mgrwt>
<rscale>  0 0.93776989E+02</rscale>
<asrwt>0</asrwt>
<pdfrwt beam="2">  1        1 0.38260612E-02 0.93776989E+02</pdfrwt>
<pdfrwt beam="1">  1       -1 0.13600471E-01 0.93776989E+02</pdfrwt>
<totfact> 0.77403269E+04</totfact>
</mgrwt>
</event>
<event>
 5   1  0.1357339E+00  0.9103373E+02  0.7818608E-02  0.1300368E+00
          1   -1    0    0  501    0  0.00000000000E+00  0.00000000000E+00  0.32540355996E+02  0.32540356332E+02  0.46700000000E-02 0. -1.
         -1   -1    0    0    0  501 -0.00000000000E+00 -0.00000000000E+00 -0.63668165302E+02  0.63668165473E+02  0.46700000000E-02 0.  1.
         23    2    1    2    0    0  0.00000000000E+00  0.00000000000E+00 -0.31127809306E+02  0.96208521805E+02  0.91033725375E+02 0.  0.
        -11    1    3    3    0    0  0.84994554223E+00 -0.39718090421E+02  0.79146036910E+01  0.40507901279E+02  0.51100000000E-03 0. -1.
         11    1    3    3    0    0 -0.84994554223E+00  0.39718090421E+02 -0.39042412997E+02  0.55700620526E+02  0.51100000000E-03 0.  1.
<mgrwt>
<rscale>  0 0.91033725E+02</rscale>
<asrwt>0</asrwt>
<pdfrwt beam="1">  1        1 0.50062087E-02 0.91033725E+02</pdfrwt>
<pdfrwt beam="2">  1       -1 0.97951024E-02 0.91033725E+02</pdfrwt>
<totfact> 0.88211333E+04</totfact>
</mgrwt>
</event>
<event>
 5   1  0.1357339E+00  0.8774192E+02  0.7818608E-02  0.1308414E+00
         -1   -1    0    0    0  501 -0.00000000000E+00  0.00000000000E+00  0.13302243621E+02  0.13302244441E+02  0.46700000000E-02 0.  1.
          1   -1    0    0  501    0  0.00000000000E+00 -0.00000000000E+00 -0.14468694516E+03  0.14468694524E+03  0.46700000000E-02 0. -1.
         23    2    1    2    0    0  0.00000000000E+00  0.00000000000E+00 -0.13138470154E+03  0.15798918968E+03  0.87741918468E+02 0.  0.
        -11    1    3    3    0    0 -0.30621984663E+02  0.26434170471E+02 -0.35124879603E+02  0.53574513349E+02  0.51100000000E-03 0.  1.
         11    1    3    3    0    0  0.30621984663E+02 -0.26434170471E+02 -0.96259821938E+02  0.10441467633E+03  0.51100000000E-03 0. -1.
<mgrwt>
<rscale>  0 0.87741918E+02</rscale>
<asrwt>0</asrwt>
<pdfrwt beam="2">  1        1 0.22259529E-01 0.87741918E+02</pdfrwt>
<pdfrwt beam="1">  1       -1 0.20464992E-02 0.87741918E+02</pdfrwt>
<totfact> 0.12352587E+05</totfact>
</mgrwt>
</event>
<event>
 5   1  0.1357339E+00  0.8866573E+02  0.7818608E-02  0.1306115E+00
         -1   -1    0    0    0  501 -0.00000000000E+00  0.00000000000E+00  0.23451629743E+02  0.23451630208E+02  0.46700000000E-02 0.  1.
          1   -1    0    0  501    0  0.00000000000E+00 -0.00000000000E+00 -0.83806662173E+02  0.83806662303E+02  0.46700000000E-02 0. -1.
         23    2    1    2    0    0  0.00000000000E+00  0.00000000000E+00 -0.60355032430E+02  0.10725829251E+03  0.88665728288E+02 0.  0.
        -11    1    3    3    0    0  0.37412447717E+02  0.18843947625E+02 -0.47733373776E+02  0.63507956813E+02  0.51100000000E-03 0.  1.
         11    1    3    3    0    0 -0.37412447717E+02 -0.18843947625E+02 -0.12621658653E+02  0.43750335698E+02  0.51100000000E-03 0. -1.
<mgrwt>
<rscale>  0 0.88665728E+02</rscale>
<asrwt>0</asrwt>
<pdfrwt beam="2">  1        1 0.12893333E-01 0.88665728E+02</pdfrwt>
<pdfrwt beam="1">  1       -1 0.36079431E-02 0.88665728E+02</pdfrwt>
<totfact> 0.10953990E+05</totfact>
</mgrwt>
</event>
<event>
 5   1  0.1357339E+00  0.9468070E+02  0.7818608E-02  0.1291897E+00
          1   -1    0    0  501    0  0.00000000000E+00  0.00000000000E+00  0.81133515948E+02  0.81133516083E+02  0.46700000000E-02 0. -1.
         -1   -1    0    0    0  501 -0.00000000000E+00 -0.00000000000E+00 -0.27622476151E+02  0.27622476546E+02  0.46700000000E-02 0.  1.
         23    2    1    2    0    0  0.00000000000E+00  0.00000000000E+00  0.53511039797E+02  0.10875599263E+03  0.94680697887E+02 0.  0.
        -11    1    3    3    0    0 -0.14193293736E+02  0.37887647309E+02 -0.14787654170E+01  0.40485925370E+02  0.51100000000E-03 0.  1.
         11    1    3    3    0    0  0.14193293736E+02 -0.37887647309E+02  0.54989805214E+02  0.68270067258E+02  0.51100000000E-03 0. -1.
<mgrwt>
<rscale>  0 0.94680698E+02</rscale>
<asrwt>0</asrwt>
<pdfrwt beam="1">  1        1 0.12482079E-01 0.94680698E+02</pdfrwt>
<pdfrwt beam="2">  1       -1 0.42496118E-02 0.94680698E+02</pdfrwt>
<totfact> 0.91012084E+04</totfact>
</mgrwt>
</event>
<event>
 5   1  0.1357339E+00  0.9414202E+02  0.7818608E-02  0.1293120E+00
         -1   -1    0    0    0  501 -0.00000000000E+00  0.00000000000E+00  0.15628757529E+02  0.15628758226E+02  0.46700000000E-02 0.  1.
          1   -1    0    0  501    0  0.00000000000E+00 -0.00000000000E+00 -0.14176940899E+03  0.14176940907E+03  0.46700000000E-02 0. -1.
         23    2    1    2    0    0  0.00000000000E+00  0.00000000000E+00 -0.12614065146E+03  0.15739816730E+03  0.94142015680E+02 0.  0.
        -11    1    3    3    0    0 -0.13709176847E+02  0.20473331632E+02  0.39856733918E+01  0.24959656059E+02  0.51100000000E-03 0.  1.
         11    1    3    3    0    0  0.13709176847E+02 -0.20473331632E+02 -0.13012632486E+03  0.13243851124E+03  0.51100000000E-03 0. -1.
<mgrwt>
<rscale>  0 0.94142016E+02</rscale>
<asrwt>0</asrwt>
<pdfrwt beam="2">  1        1 0.21810677E-01 0.94142016E+02</pdfrwt>
<pdfrwt beam="1">  1       -1 0.24044244E-02 0.94142016E+02</pdfrwt>
<totfact> 0.10176737E+05</totfact>
</mgrwt>
</event>
<event>
 5   1  0.1357339E+00  0.9060897E+02  0.7818608E-02  0.1301384E+00
         -1   -1    0    0    0  501 -0.00000000000E+00  0.00000000000E+00  0.13126848776E+03  0.13126848785E+03  0.46700000000E-02 0.  1.
          1   -1    0    0  501    0  0.00000000000E+00 -0.00000000000E+00 -0.15635863024E+02  0.15635863721E+02  0.46700000000E-02 0. -1.
         23    2    1    2    0    0  0.00000000000E+00  0.00000000000E+00  0.11563262474E+03  0.14690435157E+03  0.90608965368E+02 0.  0.
        -11    1    3    3    0    0 -0.64563531541E+01 -0.23657181046E+02  0.11957805744E+03  0.12206661514E+03  0.51100000000E-03 0.  1.
         11    1    3    3    0    0  0.64563531541E+01  0.23657181046E+02 -0.39454327029E+01  0.24837736422E+02  0.51100000000E-03 0. -1.
<mgrwt>
<rscale>  0 0.90608965E+02</rscale>
<asrwt>0</asrwt>
<pdfrwt beam="2">  1        1 0.24055175E-02 0.90608965E+02</pdfrwt>
<pdfrwt beam="1">  1       -1 0.20195151E-01 0.90608965E+02</pdfrwt>
<totfact> 0.78319873E+04</totfact>
</mgrwt>
</event>
<event>
 5   1  0.1357339E+00  0.8978636E+02  0.7818608E-02  0.1303370E+00
         -1   -1    0    0    0  501 -0.00000000000E+00  0.00000000000E+00  0.29268477781E+02  0.29268478154E+02  0.46700000000E-02 0.  1.
          1   -1    0    0  501    0  0.00000000000E+00 -0.00000000000E+00 -0.68858988363E+02  0.68858988522E+02  0.46700000000E-02 0. -1.
         23    2    1    2    0    0  0.00000000000E+00  0.00000000000E+00 -0.39590510582E+02  0.98127466675E+02  0.89786364154E+02 0.  0.
        -11    1    3    3    0    0  0.17463518361E+02  0.29517919016E+02 -0.51453814472E+02  0.61836696553E+02  0.51100000000E-03 0. -1.
         11    1    3    3    0    0 -0.17463518361E+02 -0.29517919016E+02  0.11863303891E+02  0.36290770122E+02  0.51100000000E-03 0.  1.
<mgrwt>
<rscale>  0 0.89786364E+02</rscale>
<asrwt>0</asrwt>
<pdfrwt beam="2">  1        1 0.10593691E-01 0.89786364E+02</pdfrwt>
<pdfrwt beam="1">  1       -1 0.45028428E-02 0.89786364E+02</pdfrwt>
<totfact> 0.10267249E+05</totfact>
</mgrwt>
</event>
<event>
 5   1  0.1357339E+00  0.9507020E+02  0.7818608E-02  0.1291018E+00
         -1   -1    0    0    0  501 -0.00000000000E+00  0.00000000000E+00  0.52294571247E+01  0.52294592099E+01  0.46700000000E-02 0.  1.
          1   -1    0    0  501    0  0.00000000000E+00 -0.00000000000E+00 -0.43208794892E+03  0.43208794895E+03  0.46700000000E-02 0. -1.
         23    2    1    2    0    0  0.00000000000E+00  0.00000000000E+00 -0.42685849180E+03  0.43731740816E+03  0.95070202786E+02 0.  0.
        -11    1    3    3    0    0 -0.45479236281E+01 -0.46813199919E+02 -0.18175084904E+03  0.18773793017E+03  0.51100000000E-03 0.  1.
         11    1    3    3    0    0  0.45479236281E+01  0.46813199919E+02 -0.24510764276E+03  0.24957947799E+03  0.51100000000E-03 0. -1.
<mgrwt>
<rscale>  0 0.95070203E+02</rscale>
<asrwt>0</asrwt>
<pdfrwt beam="2">  1        1 0.66475041E-01 0.95070203E+02</pdfrwt>
<pdfrwt beam="1">  1       -1 0.80453237E-03 0.95070203E+02</pdfrwt>
<totfact> 0.12216820E+05</totfact>
</mgrwt>
</event>
<event>
 5   1  0.1357339E+00  0.9091001E+02  0.7818608E-02  0.1300663E+00
          1   -1    0    0  501    0  0.00000000000E+00  0.00000000000E+00  0.25069439514E+02  0.25069439949E+02  0.46700000000E-02 0. -1.
         -1   -1    0    0    0  501 -0.00000000000E+00 -0.00000000000E+00 -0.82417372965E+02  0.82417373098E+02  0.46700000000E-02 0.  1.
         23    2    1    2    0    0  0.00000000000E+00  0.00000000000E+00 -0.57347933452E+02  0.10748681305E+03  0.90910007742E+02 0.  0.
        -11    1    3    3    0    0 -0.34053917503E+02 -0.75633780995E+01 -0.63130359318E+02  0.72127084049E+02  0.51100000000E-03 0.  1.
         11    1    3    3    0    0  0.34053917503E+02  0.75633780995E+01  0.57824258659E+01  0.35359728997E+02  0.51100000000E-03 0. -1.
<mgrwt>
<rscale>  0 0.90910008E+02</rscale>
<asrwt>0</asrwt>
<pdfrwt beam="1">  1        1 0.38568369E-02 0.90910008E+02</pdfrwt>
<pdfrwt beam="2">  1       -1 0.12679596E-01 0.90910008E+02</pdfrwt>
<totfact> 0.84858106E+04</totfact>
</mgrwt>
</event>
<event>
 5   1  0.1357339E+00  0.8673679E+02  0.7818608E-02  0.1310952E+00
         -1   -1    0    0    0  501 -0.00000000000E+00  0.00000000000E+00  0.49687431228E+02  0.49687431448E+02  0.46700000000E-02 0. -1.
          1   -1    0    0  501    0  0.00000000000E+00 -0.00000000000E+00 -0.37852987800E+02  0.37852988088E+02  0.46700000000E-02 0.  1.
         23    2    1    2    0    0  0.00000000000E+00  0.00000000000E+00  0.11834443428E+02  0.87540419536E+02  0.86736791509E+02 0.  0.
        -11    1    3    3    0    0 -0.37219212594E+02  0.10050919872E+02 -0.14129511978E+02  0.41060125249E+02  0.51100000000E-03 0.  1.
         11    1    3    3    0    0  0.37219212594E+02 -0.10050919872E+02  0.25963955407E+02  0.46480294287E+02  0.51100000000E-03 0. -1.
<mgrwt>
<rscale>  0 0.86736792E+02</rscale>
<asrwt>0</asrwt>
<pdfrwt beam="2">  1        1 0.58235366E-02 0.86736792E+02</pdfrwt>
<pdfrwt beam="1">  1       -1 0.76442202E-02 0.86736792E+02</pdfrwt>
<totfact> 0.10348559E+05</totfact>
</mgrwt>
</event>
<event>
 5   1  0.1357339E+00  0.9137828E+02  0.7818608E-02  0.1299548E+00
          1   -1    0    0  501    0  0.00000000000E+00  0.00000000000E+00  0.57638850251E+02  0.57638850440E+02  0.46700000000E-02 0. -1.
         -1   -1    0    0    0  501 -0.00000000000E+00 -0.00000000000E+00 -0.36216846279E+02  0.36216846580E+02  0.46700000000E-02 0.  1.
         23    2    1    2    0    0  0.00000000000E+00  0.00000000000E+00  0.21422003972E+02  0.93855697020E+02  0.91378277555E+02 0.  0.
        -11    1    3    3    0    0 -0.36331573698E+02 -0.27360628298E+02  0.15177482382E+02  0.47947296064E+02  0.51100000000E-03 0. -1.
         11    1    3    3    0    0  0.36331573698E+02  0.27360628298E+02  0.62445215901E+01  0.45908400956E+02  0.51100000000E-03 0.  1.
<mgrwt>
<rscale>  0 0.91378278E+02</rscale>
<asrwt>0</asrwt>
<pdfrwt beam="1">  1        1 0.88675154E-02 0.91378278E+02</pdfrwt>
<pdfrwt beam="2">  1       -1 0.55718226E-02 0.91378278E+02</pdfrwt>
<totfact> 0.95202348E+04</totfact>
</mgrwt>
</event>
<event>
 5   1  0.1357339E+00  0.9164423E+02  0.7818608E-02  0.1298918E+00
          1   -1    0    0  501    0  0.00000000000E+00  0.00000000000E+00  0.10427128214E+03  0.10427128224E+03  0.46700000000E-02 0. -1.
         -1   -1    0    0    0  501 -0.00000000000E+00 -0.00000000000E+00 -0.20136573392E+02  0.20136573933E+02  0.46700000000E-02 0.  1.
         23    2    1    2    0    0  0.00000000000E+00  0.00000000000E+00  0.84134708744E+02  0.12440785617E+03  0.91644233110E+02 0.  0.
        -11    1    3    3    0    0  0.45578148144E+02  0.14729459140E+01  0.48157897217E+02  0.66322848420E+02  0.51100000000E-03 0. -1.
         11    1    3    3    0    0 -0.45578148144E+02 -0.14729459140E+01  0.35976811527E+02  0.58085007754E+02  0.51100000000E-03 0.  1.
<mgrwt>
<rscale>  0 0.91644233E+02</rscale>
<asrwt>0</asrwt>
<pdfrwt beam="1">  1        1 0.16041736E-01 0.91644233E+02</pdfrwt>
<pdfrwt beam="2">  1       -1 0.30979345E-02 0.91644233E+02</pdfrwt>
<totfact> 0.10372826E+05</totfact>
</mgrwt>
</event>
<event>
 5   1  0.1357339E+00  0.9281102E+02  0.7818608E-02  0.1296184E+00
         -1   -1    0    0    0  501 -0.00000000000E+00  0.00000000000E+00  0.40869309159E+02  0.40869309426E+02  0.46700000000E-02 0.  1.
          1   -1    0    0  501    0  0.00000000000E+00 -0.00000000000E+00 -0.52691653817E+02  0.52691654024E+02  0.46700000000E-02 0. -1.
         23    2    1    2    0    0  0.00000000000E+00  0.00000000000E+00 -0.11822344657E+02  0.93560963450E+02  0.92811023313E+02 0.  0.
        -11    1    3    3    0    0 -0.32404558025E+02 -0.10149542655E+02  0.25973547005E+02  0.42751534957E+02  0.51100000000E-03 0.  1.
         11    1    3    3    0    0  0.32404558025E+02  0.10149542655E+02 -0.37795891662E+02  0.50809428492E+02  0.51100000000E-03 0. -1.
<mgrwt>
<rscale>  0 0.92811023E+02</rscale>
<asrwt>0</asrwt>
<pdfrwt beam="2">  1        1 0.81064083E-02 0.92811023E+02</pdfrwt>
<pdfrwt beam="1">  1       -1 0.62875861E-02 0.92811023E+02</pdfrwt>
<totfact> 0.89926479E+04</totfact>
</mgrwt>
</event>
<event>
 5   1  0.1357339E+00  0.9138347E+02  0.7818608E-02  0.1299536E+00
          1   -1    0    0  501    0  0.00000000000E+00  0.00000000000E+00  0.10083509772E+03  0.10083509782E+03  0.46700000000E-02 0. -1.
         -1   -1    0    0    0  501 -0.00000000000E+00 -0.00000000000E+00 -0.20704443318E+02  0.20704443845E+02  0.46700000000E-02 0.  1.
         23    2    1    2    0    0  0.00000000000E+00  0.00000000000E+00  0.80130654398E+02  0.12153954167E+03  0.91383469045E+02 0.  0.
        -11    1    3    3    0    0 -0.43705771701E+02 -0.12873928661E+01  0.57703823930E+02  0.72398778697E+02  0.51100000000E-03 0. -1.
         11    1    3    3    0    0  0.43705771701E+02  0.12873928661E+01  0.22426830468E+02  0.49140762972E+02  0.51100000000E-03 0.  1.
<mgrwt>
<rscale>  0 0.91383469E+02</rscale>
<asrwt>0</asrwt>
<pdfrwt beam="1">  1        1 0.15513092E-01 0.91383469E+02</pdfrwt>
<pdfrwt beam="2">  1       -1 0.31852991E-02 0.91383469E+02</pdfrwt>
<totfact> 0.10395237E+05</totfact>
</mgrwt>
</event>
<event>
 5   1  0.1357339E+00  0.8925566E+02  0.7818608E-02  0.1304664E+00
          1   -1    0    0  501    0  0.00000000000E+00  0.00000000000E+00  0.13713470520E+03  0.13713470528E+03  0.46700000000E-02 0. -1.
         -1   -1    0    0    0  501 -0.00000000000E+00 -0.00000000000E+00 -0.14523262167E+02  0.14523262918E+02  0.46700000000E-02 0.  1.
         23    2    1    2    0    0  0.00000000000E+00  0.00000000000E+00  0.12261144304E+03  0.15165796820E+03  0.89255662877E+02 0.  0.
        -11    1    3    3    0    0 -0.22727274769E+02  0.10970798107E+02 -0.12345814226E+01  0.25266808684E+02  0.51100000000E-03 0.  1.
         11    1    3    3    0    0  0.22727274769E+02 -0.10970798107E+02  0.12384602446E+03  0.12639115952E+03  0.51100000000E-03 0. -1.
<mgrwt>
<rscale>  0 0.89255663E+02</rscale>
<asrwt>0</asrwt>
<pdfrwt beam="1">  1        1 0.21097646E-01 0.89255663E+02</pdfrwt>
<pdfrwt beam="2">  1       -1 0.22343482E-02 0.89255663E+02</pdfrwt>
<totfact> 0.11684108E+05</totfact>
</mgrwt>
</event>
<event>
 5   1  0.1357339E+00  0.8747334E+02  0.7818608E-02  0.1309088E+00
          1   -1    0    0  501    0  0.00000000000E+00  0.00000000000E+00  0.19909499225E+02  0.19909499773E+02  0.46700000000E-02 0. -1.
         -1   -1    0    0    0  501 -0.00000000000E+00 -0.00000000000E+00 -0.96079582239E+02  0.96079582352E+02  0.46700000000E-02 0.  1.
         23    2    1    2    0    0  0.00000000000E+00  0.00000000000E+00 -0.76170083014E+02  0.11598908213E+03  0.87473342373E+02 0.  0.
        -11    1    3    3    0    0 -0.25001734264E+02  0.45446407862E+01 -0.85286608935E+02  0.88991831872E+02  0.51100000000E-03 0.  1.
         11    1    3    3    0    0  0.25001734264E+02 -0.45446407862E+01  0.91165259218E+01  0.26997250253E+02  0.51100000000E-03 0. -1.
<mgrwt>
<rscale>  0 0.87473342E+02</rscale>
<asrwt>0</asrwt>
<pdfrwt beam="1">  1        1 0.30630000E-02 0.87473342E+02</pdfrwt>
<pdfrwt beam="2">  1       -1 0.14781474E-01 0.87473342E+02</pdfrwt>
<totfact> 0.91185755E+04</totfact>
</mgrwt>
</event>
<event>
 5   1  0.1357339E+00  0.8974851E+02  0.7818608E-02  0.1303462E+00
          1   -1    0    0  501    0  0.00000000000E+00  0.00000000000E+00  0.26095520119E+02  0.26095520537E+02  0.46700000000E-02 0. -1.
         -1   -1    0    0    0  501 -0.00000000000E+00 -0.00000000000E+00 -0.77166452761E+02  0.77166452903E+02  0.46700000000E-02 0.  1.
         23    2    1    2    0    0  0.00000000000E+00  0.00000000000E+00 -0.51070932642E+02  0.10326197344E+03  0.89748509725E+02 0.  0.
        -11    1    3    3    0    0  0.95911635814E+01  0.13257530201E+02 -0.73611497285E+02  0.75408255905E+02  0.51100000000E-03 0.  1.
         11    1    3    3    0    0 -0.95911635814E+01 -0.13257530201E+02  0.22540564642E+02  0.27853717535E+02  0.51100000000E-03 0. -1.
<mgrwt>
<rscale>  0 0.89748510E+02</rscale>
<asrwt>0</asrwt>
<pdfrwt beam="1">  1        1 0.40146955E-02 0.89748510E+02</pdfrwt>
<pdfrwt beam="2">  1       -1 0.11871762E-01 0.89748510E+02</pdfrwt>
<totfact> 0.88670244E+04</totfact>
</mgrwt>
</event>
<event>
 5   1  0.1357339E+00  0.8965200E+02  0.7818608E-02  0.1303697E+00
          1   -1    0    0  501    0  0.00000000000E+00  0.00000000000E+00  0.26954483980E+02  0.26954484385E+02  0.46700000000E-02 0. -1.
         -1   -1    0    0    0  501 -0.00000000000E+00 -0.00000000000E+00 -0.74546783611E+02  0.74546783757E+02  0.46700000000E-02 0.  1.
         23    2    1    2    0    0  0.00000000000E+00  0.00000000000E+00 -0.47592299630E+02  0.10150126814E+03  0.89651996354E+02 0.  0.
        -11    1    3    3    0    0  0.33881949715E+02  0.14276590290E+02  0.52360566751E+01  0.37137902964E+02  0.51100000000E-03 0. -1.
         11    1    3    3    0    0 -0.33881949715E+02 -0.14276590290E+02 -0.52828356305E+02  0.64363365178E+02  0.51100000000E-03 0.  1.
<mgrwt>
<rscale>  0 0.89651996E+02</rscale>
<asrwt>0</asrwt>
<pdfrwt beam="1">  1        1 0.41468437E-02 0.89651996E+02</pdfrwt>
<pdfrwt beam="2">  1       -1 0.11468736E-01 0.89651996E+02</pdfrwt>
<totfact> 0.89421291E+04</totfact>
</mgrwt>
</event>
<event>
 5   1  0.1357339E+00  0.7724149E+02  0.7818608E-02  0.1337067E+00
          1   -1    0    0  501    0  0.00000000000E+00  0.00000000000E+00  0.59475924328E+02  0.59475924512E+02  0.46700000000E-02 0. -1.
         -1   -1    0    0    0  501 -0.00000000000E+00 -0.00000000000E+00 -0.25078414338E+02  0.25078414773E+02  0.46700000000E-02 0.  1.
         23    2    1    2    0    0  0.00000000000E+00  0.00000000000E+00  0.34397509990E+02  0.84554339285E+02  0.77241488841E+02 0.  0.
        -11    1    3    3    0    0 -0.25609288810E+02  0.28889099808E+02  0.16026819344E+02  0.41800415065E+02  0.51100000000E-03 0. -1.
         11    1    3    3    0    0  0.25609288810E+02 -0.28889099808E+02  0.18370690646E+02  0.42753924219E+02  0.51100000000E-03 0.  1.
<mgrwt>
<rscale>  0 0.77241489E+02</rscale>
<asrwt>0</asrwt>
<pdfrwt beam="1">  1        1 0.91501422E-02 0.77241489E+02</pdfrwt>
<pdfrwt beam="2">  1       -1 0.38582176E-02 0.77241489E+02</pdfrwt>
<totfact> 0.15160892E+05</totfact>
</mgrwt>
</event>
<event>
 5   1  0.1357339E+00  0.9128282E+02  0.7818608E-02  0.1299775E+00
          1   -1    0    0  501    0  0.00000000000E+00  0.00000000000E+00  0.19981037082E+02  0.19981037628E+02  0.46700000000E-02 0. -1.
         -1   -1    0    0    0  501 -0.00000000000E+00 -0.00000000000E+00 -0.10425576105E+03  0.10425576115E+03  0.46700000000E-02 0.  1.
         23    2    1    2    0    0  0.00000000000E+00  0.00000000000E+00 -0.84274723968E+02  0.12423679878E+03  0.91282819149E+02 0.  0.
        -11    1    3    3    0    0 -0.19487478037E+02  0.41080241248E+02 -0.36729125636E+02  0.58449779225E+02  0.51100000000E-03 0.  1.
         11    1    3    3    0    0  0.19487478037E+02 -0.41080241248E+02 -0.47545598332E+02  0.65787019557E+02  0.51100000000E-03 0. -1.
<mgrwt>
<rscale>  0 0.91282819E+02</rscale>
<asrwt>0</asrwt>
<pdfrwt beam="1">  1        1 0.30740058E-02 0.91282819E+02</pdfrwt>
<pdfrwt beam="2">  1       -1 0.16039348E-01 0.91282819E+02</pdfrwt>
<totfact> 0.80494372E+04</totfact>
</mgrwt>
</event>
<event>
 5   1  0.1357339E+00  0.9092693E+02  0.7818608E-02  0.1300622E+00
         -1   -1    0    0    0  501 -0.00000000000E+00  0.00000000000E+00  0.35396839452E+02  0.35396839760E+02  0.46700000000E-02 0.  1.
          1   -1    0    0  501    0  0.00000000000E+00 -0.00000000000E+00 -0.58392973406E+02  0.58392973593E+02  0.46700000000E-02 0. -1.
         23    2    1    2    0    0  0.00000000000E+00  0.00000000000E+00 -0.22996133955E+02  0.93789813353E+02  0.90926931719E+02 0.  0.
        -11    1    3    3    0    0  0.28525714707E+02 -0.35394741251E+02 -0.10827506240E+02  0.46730493250E+02  0.51100000000E-03 0.  1.
         11    1    3    3    0    0 -0.28525714707E+02  0.35394741251E+02 -0.12168627715E+02  0.47059320102E+02  0.51100000000E-03 0. -1.
<mgrwt>
<rscale>  0 0.90926932E+02</rscale>
<asrwt>0</asrwt>
<pdfrwt beam="2">  1        1 0.89835344E-02 0.90926932E+02</pdfrwt>
<pdfrwt beam="1">  1       -1 0.54456677E-02 0.90926932E+02</pdfrwt>
<totfact> 0.96710823E+04</totfact>
</mgrwt>
</event>
<event>
 5   1  0.1357339E+00  0.8801988E+02  0.7818608E-02  0.1307719E+00
          1   -1    0    0  501    0  0.00000000000E+00  0.00000000000E+00  0.64349959678E+01  0.64349976624E+01  0.46700000000E-02 0. -1.
         -1   -1    0    0    0  501 -0.00000000000E+00 -0.00000000000E+00 -0.30099076595E+03  0.30099076599E+03  0.46700000000E-02 0.  1.
         23    2    1    2    0    0  0.00000000000E+00  0.00000000000E+00 -0.29455576998E+03  0.30742576365E+03  0.88019875739E+02 0.  0.
        -11    1    3    3    0    0  0.53760078634E+01 -0.43673026032E+02 -0.14448380698E+03  0.15103577438E+03  0.51100000000E-03 0.  1.
         11    1    3    3    0    0 -0.53760078634E+01  0.43673026032E+02 -0.15007196301E+03  0.15638998927E+03  0.51100000000E-03 0. -1.
<mgrwt>
<rscale>  0 0.88019876E+02</rscale>
<asrwt>0</asrwt>
<pdfrwt beam="1">  1        1 0.98999975E-03 0.88019876E+02</pdfrwt>
<pdfrwt beam="2">  1       -1 0.46306261E-01 0.88019876E+02</pdfrwt>
<totfact> 0.66338127E+04</totfact>
</mgrwt>
</event>
<event>
 5   1  0.1357339E+00  0.9097059E+02  0.7818608E-02  0.1300518E+00
         -1   -1    0    0    0  501 -0.00000000000E+00  0.00000000000E+00  0.13883007488E+02  0.13883008273E+02  0.46700000000E-02 0.  1.
          1   -1    0    0  501    0  0.00000000000E+00 -0.00000000000E+00 -0.14902477031E+03  0.14902477038E+03  0.46700000000E-02 0. -1.
         23    2    1    2    0    0  0.00000000000E+00  0.00000000000E+00 -0.13514176282E+03  0.16290777866E+03  0.90970590237E+02 0.  0.
        -11    1    3    3    0    0  0.24925056328E+02  0.36967348825E+02 -0.83694687764E+02  0.94829552736E+02  0.51100000000E-03 0. -1.
         11    1    3    3    0    0 -0.24925056328E+02 -0.36967348825E+02 -0.51447075059E+02  0.68078225921E+02  0.51100000000E-03 0.  1.
<mgrwt>
<rscale>  0 0.90970590E+02</rscale>
<asrwt>0</asrwt>
<pdfrwt beam="2">  1        1 0.22926887E-01 0.90970590E+02</pdfrwt>
<pdfrwt beam="1">  1       -1 0.21358475E-02 0.90970590E+02</pdfrwt>
<totfact> 0.11268502E+05</totfact>
</mgrwt>
</event>
<event>
 5   1  0.1357339E+00  0.9143044E+02  0.7818608E-02  0.1299424E+00
          1   -1    0    0  501    0  0.00000000000E+00  0.00000000000E+00  0.62376261786E+02  0.62376261961E+02  0.46700000000E-02 0. -1.
         -1   -1    0    0    0  501 -0.00000000000E+00 -0.00000000000E+00 -0.33504429907E+02  0.33504430232E+02  0.46700000000E-02 0.  1.
         23    2    1    2    0    0  0.00000000000E+00  0.00000000000E+00  0.28871831879E+02  0.95880692193E+02  0.91430435082E+02 0.  0.
        -11    1    3    3    0    0 -0.31486602402E+02 -0.32713457686E+02  0.20015083719E+02  0.49620358938E+02  0.51100000000E-03 0.  1.
         11    1    3    3    0    0  0.31486602402E+02  0.32713457686E+02  0.88567481595E+01  0.46260333255E+02  0.51100000000E-03 0. -1.
<mgrwt>
<rscale>  0 0.91430435E+02</rscale>
<asrwt>0</asrwt>
<pdfrwt beam="1">  1        1 0.95963479E-02 0.91430435E+02</pdfrwt>
<pdfrwt beam="2">  1       -1 0.51545278E-02 0.91430435E+02</pdfrwt>
<totfact> 0.96196785E+04</totfact>
</mgrwt>
</event>
<event>
 5   1  0.1357339E+00  0.8542491E+02  0.7818608E-02  0.1314325E+00
          1   -1    0    0  501    0  0.00000000000E+00  0.00000000000E+00  0.44302737659E+02  0.44302737905E+02  0.46700000000E-02 0. -1.
         -1   -1    0    0    0  501 -0.00000000000E+00 -0.00000000000E+00 -0.41179259678E+02  0.41179259943E+02  0.46700000000E-02 0.  1.
         23    2    1    2    0    0  0.00000000000E+00  0.00000000000E+00  0.31234779802E+01  0.85481997848E+02  0.85424913470E+02 0.  0.
        -11    1    3    3    0    0 -0.34905533620E+01  0.39589587770E+02  0.17219384519E+02  0.43313123023E+02  0.51100000000E-03 0. -1.
         11    1    3    3    0    0  0.34905533620E+01 -0.39589587770E+02 -0.14095906539E+02  0.42168874825E+02  0.51100000000E-03 0.  1.
<mgrwt>
<rscale>  0 0.85424913E+02</rscale>
<asrwt>0</asrwt>
<pdfrwt beam="1">  1        1 0.68158059E-02 0.85424913E+02</pdfrwt>
<pdfrwt beam="2">  1       -1 0.63352707E-02 0.85424913E+02</pdfrwt>
<totfact> 0.11045810E+05</totfact>
</mgrwt>
</event>
<event>
 5   1  0.1357339E+00  0.9122056E+02  0.7818608E-02  0.1299923E+00
          1   -1    0    0  501    0  0.00000000000E+00  0.00000000000E+00  0.21718148419E+02  0.21718148921E+02  0.46700000000E-02 0. -1.
         -1   -1    0    0    0  501 -0.00000000000E+00 -0.00000000000E+00 -0.95786146753E+02  0.95786146867E+02  0.46700000000E-02 0.  1.
         23    2    1    2    0    0  0.00000000000E+00  0.00000000000E+00 -0.74067998333E+02  0.11750429579E+03  0.91220563205E+02 0.  0.
        -11    1    3    3    0    0  0.19041711799E+02 -0.23501426511E+02  0.69401428470E+01  0.31033359780E+02  0.51100000000E-03 0. -1.
         11    1    3    3    0    0 -0.19041711799E+02  0.23501426511E+02 -0.81008141180E+02  0.86470936008E+02  0.51100000000E-03 0.  1.
<mgrwt>
<rscale>  0 0.91220563E+02</rscale>
<asrwt>0</asrwt>
<pdfrwt beam="1">  1        1 0.33412537E-02 0.91220563E+02</pdfrwt>
<pdfrwt beam="2">  1       -1 0.14736330E-01 0.91220563E+02</pdfrwt>
<totfact> 0.81916922E+04</totfact>
</mgrwt>
</event>
<event>
 5   1  0.1357339E+00  0.9260893E+02  0.7818608E-02  0.1296654E+00
         -1   -1    0    0    0  501 -0.00000000000E+00  0.00000000000E+00  0.72530330858E+02  0.72530331008E+02  0.46700000000E-02 0.  1.
          1   -1    0    0  501    0  0.00000000000E+00 -0.00000000000E+00 -0.29561475751E+02  0.29561476120E+02  0.46700000000E-02 0. -1.
         23    2    1    2    0    0  0.00000000000E+00  0.00000000000E+00  0.42968855107E+02  0.10209180713E+03  0.92608933551E+02 0.  0.
        -11    1    3    3    0    0 -0.32823234873E+02 -0.32609526898E+02  0.23504448109E+02  0.51896098824E+02  0.51100000000E-03 0.  1.
         11    1    3    3    0    0  0.32823234873E+02  0.32609526898E+02  0.19464406999E+02  0.50195708304E+02  0.51100000000E-03 0. -1.
<mgrwt>
<rscale>  0 0.92608934E+02</rscale>
<asrwt>0</asrwt>
<pdfrwt beam="2">  1        1 0.45479194E-02 0.92608934E+02</pdfrwt>
<pdfrwt beam="1">  1       -1 0.11158512E-01 0.92608934E+02</pdfrwt>
<totfact> 0.82681947E+04</totfact>
</mgrwt>
</event>
<event>
 5   1  0.1357339E+00  0.9106932E+02  0.7818608E-02  0.1300283E+00
          1   -1    0    0  501    0  0.00000000000E+00  0.00000000000E+00  0.95480214783E+02  0.95480214897E+02  0.46700000000E-02 0. -1.
         -1   -1    0    0    0  501 -0.00000000000E+00 -0.00000000000E+00 -0.21715547779E+02  0.21715548282E+02  0.46700000000E-02 0.  1.
         23    2    1    2    0    0  0.00000000000E+00  0.00000000000E+00  0.73764667004E+02  0.11719576318E+03  0.91069318702E+02 0.  0.
        -11    1    3    3    0    0 -0.15778788477E+02  0.42680497979E+02  0.34725071422E+02  0.57240070397E+02  0.51100000000E-03 0. -1.
         11    1    3    3    0    0  0.15778788477E+02 -0.42680497979E+02  0.39039595582E+02  0.59955692782E+02  0.51100000000E-03 0.  1.
<mgrwt>
<rscale>  0 0.91069319E+02</rscale>
<asrwt>0</asrwt>
<pdfrwt beam="1">  1        1 0.14689264E-01 0.91069319E+02</pdfrwt>
<pdfrwt beam="2">  1       -1 0.33408536E-02 0.91069319E+02</pdfrwt>
<totfact> 0.10399074E+05</totfact>
</mgrwt>
</event>
<event>
 5   1  0.1357339E+00  0.9148421E+02  0.7818608E-02  0.1299297E+00
          1   -1    0    0  501    0  0.00000000000E+00  0.00000000000E+00  0.69207546600E+02  0.69207546757E+02  0.46700000000E-02 0. -1.
         -1   -1    0    0    0  501 -0.00000000000E+00 -0.00000000000E+00 -0.30232831852E+02  0.30232832213E+02  0.46700000000E-02 0.  1.
         23    2    1    2    0    0  0.00000000000E+00  0.00000000000E+00  0.38974714748E+02  0.99440378970E+02  0.91484209457E+02 0.  0.
        -11    1    3    3    0    0 -0.71155603966E+01  0.15547807285E+02 -0.26628450756E+02  0.31645535247E+02  0.51100000000E-03 0.  1.
         11    1    3    3    0    0  0.71155603966E+01 -0.15547807285E+02  0.65603165504E+02  0.67794843723E+02  0.51100000000E-03 0. -1.
<mgrwt>
<rscale>  0 0.91484209E+02</rscale>
<asrwt>0</asrwt>
<pdfrwt beam="1">  1        1 0.10647315E-01 0.91484209E+02</pdfrwt>
<pdfrwt beam="2">  1       -1 0.46512050E-02 0.91484209E+02</pdfrwt>
<totfact> 0.97582443E+04</totfact>
</mgrwt>
</event>
<event>
 5   1  0.1357339E+00  0.8714535E+02  0.7818608E-02  0.1309916E+00
         -1   -1    0    0    0  501 -0.00000000000E+00  0.00000000000E+00  0.85930689582E+02  0.85930689709E+02  0.46700000000E-02 0.  1.
          1   -1    0    0  501    0  0.00000000000E+00 -0.00000000000E+00 -0.22094293814E+02  0.22094294307E+02  0.46700000000E-02 0. -1.
         23    2    1    2    0    0  0.00000000000E+00  0.00000000000E+00  0.63836395768E+02  0.10802498402E+03  0.87145348395E+02 0.  0.
        -11    1    3    3    0    0  0.81389325770E+00 -0.35991098905E+02  0.62346577168E+02  0.71993869929E+02  0.51100000000E-03 0.  1.
         11    1    3    3    0    0 -0.81389325770E+00  0.35991098905E+02  0.14898186005E+01  0.36031114087E+02  0.51100000000E-03 0. -1.
<mgrwt>
<rscale>  0 0.87145348E+02</rscale>
<asrwt>0</asrwt>
<pdfrwt beam="2">  1        1 0.33991222E-02 0.87145348E+02</pdfrwt>
<pdfrwt beam="1">  1       -1 0.13220106E-01 0.87145348E+02</pdfrwt>
<totfact> 0.93887937E+04</totfact>
</mgrwt>
</event>
<event>
 5   1  0.1357339E+00  0.9122563E+02  0.7818608E-02  0.1299911E+00
          1   -1    0    0  501    0  0.00000000000E+00  0.00000000000E+00  0.43372978751E+02  0.43372979002E+02  0.46700000000E-02 0. -1.
         -1   -1    0    0    0  501 -0.00000000000E+00 -0.00000000000E+00 -0.47968319943E+02  0.47968320170E+02  0.46700000000E-02 0.  1.
         23    2    1    2    0    0  0.00000000000E+00  0.00000000000E+00 -0.45953411920E+01  0.91341299172E+02  0.91225631123E+02 0.  0.
        -11    1    3    3    0    0 -0.29002051180E+02 -0.27652996715E+02 -0.24113406609E+02  0.46768189814E+02  0.51100000000E-03 0.  1.
         11    1    3    3    0    0  0.29002051180E+02  0.27652996715E+02  0.19518065417E+02  0.44573109358E+02  0.51100000000E-03 0. -1.
<mgrwt>
<rscale>  0 0.91225631E+02</rscale>
<asrwt>0</asrwt>
<pdfrwt beam="1">  1        1 0.66727660E-02 0.91225631E+02</pdfrwt>
<pdfrwt beam="2">  1       -1 0.73797416E-02 0.91225631E+02</pdfrwt>
<totfact> 0.91643104E+04</totfact>
</mgrwt>
</event>
<event>
 5   1  0.1357339E+00  0.8940175E+02  0.7818608E-02  0.1304307E+00
          1   -1    0    0  501    0  0.00000000000E+00  0.00000000000E+00  0.15858819375E+03  0.15858819382E+03  0.46700000000E-02 0. -1.
         -1   -1    0    0    0  501 -0.00000000000E+00 -0.00000000000E+00 -0.12599727154E+02  0.12599728020E+02  0.46700000000E-02 0.  1.
         23    2    1    2    0    0  0.00000000000E+00  0.00000000000E+00  0.14598846660E+03  0.17118792184E+03  0.89401746094E+02 0.  0.
        -11    1    3    3    0    0  0.57963028441E+00 -0.44531244648E+02  0.80360760807E+02  0.91876110055E+02  0.51100000000E-03 0.  1.
         11    1    3    3    0    0 -0.57963028441E+00  0.44531244648E+02  0.65627705794E+02  0.79311811788E+02  0.51100000000E-03 0. -1.
<mgrwt>
<rscale>  0 0.89401746E+02</rscale>
<asrwt>0</asrwt>
<pdfrwt beam="1">  1        1 0.24398187E-01 0.89401746E+02</pdfrwt>
<pdfrwt beam="2">  1       -1 0.19384194E-02 0.89401746E+02</pdfrwt>
<totfact> 0.11944438E+05</totfact>
</mgrwt>
</event>
<event>
 5   1  0.1357339E+00  0.9050277E+02  0.7818608E-02  0.1301639E+00
         -1   -1    0    0    0  501 -0.00000000000E+00  0.00000000000E+00  0.84952959214E+01  0.84952972050E+01  0.46700000000E-02 0.  1.
          1   -1    0    0  501    0  0.00000000000E+00 -0.00000000000E+00 -0.24103784968E+03  0.24103784973E+03  0.46700000000E-02 0. -1.
         23    2    1    2    0    0  0.00000000000E+00  0.00000000000E+00 -0.23254255376E+03  0.24953314693E+03  0.90502774037E+02 0.  0.
        -11    1    3    3    0    0 -0.23958911747E+02 -0.36947258356E+02 -0.87543724917E+02  0.97995066839E+02  0.51100000000E-03 0.  1.
         11    1    3    3    0    0  0.23958911747E+02  0.36947258356E+02 -0.14499882884E+03  0.15153808009E+03  0.51100000000E-03 0. -1.
<mgrwt>
<rscale>  0 0.90502774E+02</rscale>
<asrwt>0</asrwt>
<pdfrwt beam="2">  1        1 0.37082741E-01 0.90502774E+02</pdfrwt>
<pdfrwt beam="1">  1       -1 0.13069689E-02 0.90502774E+02</pdfrwt>
<totfact> 0.12525103E+05</totfact>
</mgrwt>
</event>
<event>
 5   1  0.1357339E+00  0.9023959E+02  0.7818608E-02  0.1302273E+00
          1   -1    0    0  501    0  0.00000000000E+00  0.00000000000E+00  0.82799270931E+02  0.82799271063E+02  0.46700000000E-02 0. -1.
         -1   -1    0    0    0  501 -0.00000000000E+00 -0.00000000000E+00 -0.24587125392E+02  0.24587125835E+02  0.46700000000E-02 0.  1.
         23    2    1    2    0    0  0.00000000000E+00  0.00000000000E+00  0.58212145540E+02  0.10738639690E+03  0.90239594139E+02 0.  0.
        -11    1    3    3    0    0 -0.14684189881E+02  0.33829288774E+02  0.60040716938E+02  0.70462287091E+02  0.51100000000E-03 0. -1.
         11    1    3    3    0    0  0.14684189881E+02 -0.33829288774E+02 -0.18285713988E+01  0.36924109807E+02  0.51100000000E-03 0.  1.
<mgrwt>
<rscale>  0 0.90239594E+02</rscale>
<asrwt>0</asrwt>
<pdfrwt beam="1">  1        1 0.12738349E-01 0.90239594E+02</pdfrwt>
<pdfrwt beam="2">  1       -1 0.37826347E-02 0.90239594E+02</pdfrwt>
<totfact> 0.10420101E+05</totfact>
</mgrwt>
</event>
<event>
 5   1  0.1357339E+00  0.9071841E+02  0.7818608E-02  0.1301121E+00
         -1   -1    0    0    0  501 -0.00000000000E+00  0.00000000000E+00  0.13056164486E+02  0.13056165321E+02  0.46700000000E-02 0. -1.
          1   -1    0    0  501    0  0.00000000000E+00 -0.00000000000E+00 -0.15758512839E+03  0.15758512846E+03  0.46700000000E-02 0.  1.
         23    2    1    2    0    0  0.00000000000E+00  0.00000000000E+00 -0.14452896391E+03  0.17064129378E+03  0.90718409024E+02 0.  0.
        -11    1    3    3    0    0  0.34248489544E+02  0.23688020177E+02 -0.10608986069E+03  0.11396990777E+03  0.51100000000E-03 0.  1.
         11    1    3    3    0    0 -0.34248489544E+02 -0.23688020177E+02 -0.38439103213E+02  0.56671386008E+02  0.51100000000E-03 0. -1.
<mgrwt>
<rscale>  0 0.90718409E+02</rscale>
<asrwt>0</asrwt>
<pdfrwt beam="2">  1        1 0.24243865E-01 0.90718409E+02</pdfrwt>
<pdfrwt beam="1">  1       -1 0.20086409E-02 0.90718409E+02</pdfrwt>
<totfact> 0.11470629E+05</totfact>
</mgrwt>
</event>
<event>
 5   1  0.1357339E+00  0.9182777E+02  0.7818608E-02  0.1298485E+00
         -1   -1    0    0    0  501 -0.00000000000E+00  0.00000000000E+00  0.12141178807E+02  0.12141179705E+02  0.46700000000E-02 0.  1.
          1   -1    0    0  501    0  0.00000000000E+00 -0.00000000000E+00 -0.17363097306E+03  0.17363097312E+03  0.46700000000E-02 0. -1.
         23    2    1    2    0    0  0.00000000000E+00  0.00000000000E+00 -0.16148979425E+03  0.18577215282E+03  0.91827768774E+02 0.  0.
        -11    1    3    3    0    0  0.34362024316E+02  0.20816569467E+01 -0.19282699627E+02  0.39457629375E+02  0.51100000000E-03 0.  1.
         11    1    3    3    0    0 -0.34362024316E+02 -0.20816569467E+01 -0.14220709462E+03  0.14631452345E+03  0.51100000000E-03 0. -1.
<mgrwt>
<rscale>  0 0.91827769E+02</rscale>
<asrwt>0</asrwt>
<pdfrwt beam="2">  1        1 0.26712456E-01 0.91827769E+02</pdfrwt>
<pdfrwt beam="1">  1       -1 0.18678739E-02 0.91827769E+02</pdfrwt>
<totfact> 0.11304794E+05</totfact>
</mgrwt>
</event>
<event>
 5   1  0.1357339E+00  0.1083756E+03  0.7818608E-02  0.1263608E+00
         -1   -1    0    0    0  501 -0.00000000000E+00  0.00000000000E+00  0.16254877283E+02  0.16254877954E+02  0.46700000000E-02 0.  1.
          1   -1    0    0  501    0  0.00000000000E+00 -0.00000000000E+00 -0.18064209006E+03  0.18064209012E+03  0.46700000000E-02 0. -1.
         23    2    1    2    0    0  0.00000000000E+00  0.00000000000E+00 -0.16438721278E+03  0.19689696807E+03  0.10837555219E+03 0.  0.
        -11    1    3    3    0    0 -0.90189094728E+01  0.46132572402E+02 -0.33215358227E+02  0.57557058533E+02  0.51100000000E-03 0.  1.
         11    1    3    3    0    0  0.90189094728E+01 -0.46132572402E+02 -0.13117185455E+03  0.13933990954E+03  0.51100000000E-03 0. -1.
<mgrwt>
<rscale>  0 0.10837555E+03</rscale>
<asrwt>0</asrwt>
<pdfrwt beam="2">  1        1 0.27791089E-01 0.10837555E+03</pdfrwt>
<pdfrwt beam="1">  1       -1 0.25007505E-02 0.10837555E+03</pdfrwt>
<totfact> 0.72630815E+04</totfact>
</mgrwt>
</event>
<event>
 5   1  0.1357339E+00  0.9103084E+02  0.7818608E-02  0.1300374E+00
         -1   -1    0    0    0  501 -0.00000000000E+00  0.00000000000E+00  0.10880470949E+02  0.10880471951E+02  0.46700000000E-02 0.  1.
          1   -1    0    0  501    0  0.00000000000E+00 -0.00000000000E+00 -0.19040107860E+03  0.19040107865E+03  0.46700000000E-02 0. -1.
         23    2    1    2    0    0  0.00000000000E+00  0.00000000000E+00 -0.17952060765E+03  0.20128155060E+03  0.91030841168E+02 0.  0.
        -11    1    3    3    0    0  0.45308938496E+01  0.45287366500E+02 -0.88824946104E+02  0.99806540939E+02  0.51100000000E-03 0.  1.
         11    1    3    3    0    0 -0.45308938496E+01 -0.45287366500E+02 -0.90695661543E+02  0.10147500966E+03  0.51100000000E-03 0. -1.
<mgrwt>
<rscale>  0 0.91030841E+02</rscale>
<asrwt>0</asrwt>
<pdfrwt beam="2">  1        1 0.29292471E-01 0.91030841E+02</pdfrwt>
<pdfrwt beam="1">  1       -1 0.16739188E-02 0.91030841E+02</pdfrwt>
<totfact> 0.11779093E+05</totfact>
</mgrwt>
</event>
<event>
 5   1  0.1357339E+00  0.9209691E+02  0.7818608E-02  0.1297852E+00
          1   -1    0    0  501    0  0.00000000000E+00  0.00000000000E+00  0.22006406033E+02  0.22006406529E+02  0.46700000000E-02 0. -1.
         -1   -1    0    0    0  501 -0.00000000000E+00 -0.00000000000E+00 -0.96356505573E+02  0.96356505687E+02  0.46700000000E-02 0.  1.
         23    2    1    2    0    0  0.00000000000E+00  0.00000000000E+00 -0.74350099540E+02  0.11836291222E+03  0.92096914641E+02 0.  0.
        -11    1    3    3    0    0  0.32332632632E+02 -0.24334985622E+02 -0.89336923912E+01  0.41441543385E+02  0.51100000000E-03 0. -1.
         11    1    3    3    0    0 -0.32332632632E+02  0.24334985622E+02 -0.65416407149E+02  0.76921368830E+02  0.51100000000E-03 0.  1.
<mgrwt>
<rscale>  0 0.92096915E+02</rscale>
<asrwt>0</asrwt>
<pdfrwt beam="1">  1        1 0.33856010E-02 0.92096915E+02</pdfrwt>
<pdfrwt beam="2">  1       -1 0.14824078E-01 0.92096915E+02</pdfrwt>
<totfact> 0.79837524E+04</totfact>
</mgrwt>
</event>
<event>
 5   1  0.1357339E+00  0.9209519E+02  0.7818608E-02  0.1297856E+00
         -1   -1    0    0    0  501 -0.00000000000E+00  0.00000000000E+00  0.40951364827E+02  0.40951365093E+02  0.46700000000E-02 0.  1.
          1   -1    0    0  501    0  0.00000000000E+00 -0.00000000000E+00 -0.51778026500E+02  0.51778026711E+02  0.46700000000E-02 0. -1.
         23    2    1    2    0    0  0.00000000000E+00  0.00000000000E+00 -0.10826661674E+02  0.92729391803E+02  0.92095187177E+02 0.  0.
        -11    1    3    3    0    0 -0.29122908879E+02 -0.34842184547E+02  0.22720049034E+01  0.45467391085E+02  0.51100000000E-03 0.  1.
         11    1    3    3    0    0  0.29122908879E+02  0.34842184547E+02 -0.13098666577E+02  0.47262000718E+02  0.51100000000E-03 0. -1.
<mgrwt>
<rscale>  0 0.92095187E+02</rscale>
<asrwt>0</asrwt>
<pdfrwt beam="2">  1        1 0.79658503E-02 0.92095187E+02</pdfrwt>
<pdfrwt beam="1">  1       -1 0.63002100E-02 0.92095187E+02</pdfrwt>
<totfact> 0.91652573E+04</totfact>
</mgrwt>
</event>
<event>
 5   1  0.1357339E+00  0.8448522E+02  0.7818608E-02  0.1316784E+00
          1   -1    0    0  501    0  0.00000000000E+00  0.00000000000E+00  0.17721599872E+02  0.17721600487E+02  0.46700000000E-02 0. -1.
         -1   -1    0    0    0  501 -0.00000000000E+00 -0.00000000000E+00 -0.10069283001E+03  0.10069283012E+03  0.46700000000E-02 0.  1.
         23    2    1    2    0    0  0.00000000000E+00  0.00000000000E+00 -0.82971230138E+02  0.11841443060E+03  0.84485219683E+02 0.  0.
        -11    1    3    3    0    0 -0.88155976298E+01  0.18369404150E+02  0.10379022150E+02  0.22866435478E+02  0.51100000000E-03 0.  1.
         11    1    3    3    0    0  0.88155976298E+01 -0.18369404150E+02 -0.93350252287E+02  0.95547995127E+02  0.51100000000E-03 0. -1.
<mgrwt>
<rscale>  0 0.84485220E+02</rscale>
<asrwt>0</asrwt>
<pdfrwt beam="1">  1        1 0.27264001E-02 0.84485220E+02</pdfrwt>
<pdfrwt beam="2">  1       -1 0.15491204E-01 0.84485220E+02</pdfrwt>
<totfact> 0.98852130E+04</totfact>
</mgrwt>
</event>
<event>
 5   1  0.1357339E+00  0.8884335E+02  0.7818608E-02  0.1305677E+00
         -1   -1    0    0    0  501 -0.00000000000E+00  0.00000000000E+00  0.39085784405E+02  0.39085784684E+02  0.46700000000E-02 0.  1.
          1   -1    0    0  501    0  0.00000000000E+00 -0.00000000000E+00 -0.50486012525E+02  0.50486012741E+02  0.46700000000E-02 0. -1.
         23    2    1    2    0    0  0.00000000000E+00  0.00000000000E+00 -0.11400228120E+02  0.89571797424E+02  0.88843354803E+02 0.  0.
        -11    1    3    3    0    0  0.58310150838E+01 -0.13304021305E+02  0.36623694870E+02  0.39399146513E+02  0.51100000000E-03 0.  1.
         11    1    3    3    0    0 -0.58310150838E+01  0.13304021305E+02 -0.48023922990E+02  0.50172650911E+02  0.51100000000E-03 0. -1.
<mgrwt>
<rscale>  0 0.88843355E+02</rscale>
<asrwt>0</asrwt>
<pdfrwt beam="2">  1        1 0.77670789E-02 0.88843355E+02</pdfrwt>
<pdfrwt beam="1">  1       -1 0.60131977E-02 0.88843355E+02</pdfrwt>
<totfact> 0.10093296E+05</totfact>
</mgrwt>
</event>
<event>
 5   1  0.1357339E+00  0.8943822E+02  0.7818608E-02  0.1304218E+00
          1   -1    0    0  501    0  0.00000000000E+00  0.00000000000E+00  0.78931221114E+02  0.78931221252E+02  0.46700000000E-02 0. -1.
         -1   -1    0    0    0  501 -0.00000000000E+00 -0.00000000000E+00 -0.25335965652E+02  0.25335966082E+02  0.46700000000E-02 0.  1.
         23    2    1    2    0    0  0.00000000000E+00  0.00000000000E+00  0.53595255462E+02  0.10426718733E+03  0.89438218601E+02 0.  0.
        -11    1    3    3    0    0  0.26418052816E+01  0.13158135580E+02 -0.22932822949E+02  0.26571225710E+02  0.51100000000E-03 0.  1.
         11    1    3    3    0    0 -0.26418052816E+01 -0.13158135580E+02  0.76528078411E+02  0.77695961624E+02  0.51100000000E-03 0. -1.
<mgrwt>
<rscale>  0 0.89438219E+02</rscale>
<asrwt>0</asrwt>
<pdfrwt beam="1">  1        1 0.12143265E-01 0.89438219E+02</pdfrwt>
<pdfrwt beam="2">  1       -1 0.38978410E-02 0.89438219E+02</pdfrwt>
<totfact> 0.10597674E+05</totfact>
</mgrwt>
</event>
<event>
 5   1  0.1357339E+00  0.9191033E+02  0.7818608E-02  0.1298290E+00
          1   -1    0    0  501    0  0.00000000000E+00  0.00000000000E+00  0.26803046598E+02  0.26803047004E+02  0.46700000000E-02 0. -1.
         -1   -1    0    0    0  501 -0.00000000000E+00 -0.00000000000E+00 -0.78792434282E+02  0.78792434420E+02  0.46700000000E-02 0.  1.
         23    2    1    2    0    0  0.00000000000E+00  0.00000000000E+00 -0.51989387684E+02  0.10559548142E+03  0.91910332746E+02 0.  0.
        -11    1    3    3    0    0  0.77028292506E+01 -0.22137893710E+02 -0.71408205830E+02  0.75156847835E+02  0.51100000000E-03 0.  1.
         11    1    3    3    0    0 -0.77028292506E+01  0.22137893710E+02  0.19418818146E+02  0.30438633590E+02  0.51100000000E-03 0. -1.
<mgrwt>
<rscale>  0 0.91910333E+02</rscale>
<asrwt>0</asrwt>
<pdfrwt beam="1">  1        1 0.41235457E-02 0.91910333E+02</pdfrwt>
<pdfrwt beam="2">  1       -1 0.12121913E-01 0.91910333E+02</pdfrwt>
<totfact> 0.83143862E+04</totfact>
</mgrwt>
</event>
<event>
 5   1  0.1357339E+00  0.8764137E+02  0.7818608E-02  0.1308666E+00
          1   -1    0    0  501    0  0.00000000000E+00  0.00000000000E+00  0.22328111486E+02  0.22328111974E+02  0.46700000000E-02 0. -1.
         -1   -1    0    0    0  501 -0.00000000000E+00 -0.00000000000E+00 -0.86001555800E+02  0.86001555926E+02  0.46700000000E-02 0.  1.
         23    2    1    2    0    0  0.00000000000E+00  0.00000000000E+00 -0.63673444314E+02  0.10832966790E+03  0.87641368295E+02 0.  0.
        -11    1    3    3    0    0 -0.11966738560E+02 -0.98866997718E+01 -0.82489440217E+02  0.83937223040E+02  0.51100000000E-03 0.  1.
         11    1    3    3    0    0  0.11966738560E+02  0.98866997718E+01  0.18815995903E+02  0.24392444860E+02  0.51100000000E-03 0. -1.
<mgrwt>
<rscale>  0 0.87641368E+02</rscale>
<asrwt>0</asrwt>
<pdfrwt beam="1">  1        1 0.34350942E-02 0.87641368E+02</pdfrwt>
<pdfrwt beam="2">  1       -1 0.13231009E-01 0.87641368E+02</pdfrwt>
<totfact> 0.92520506E+04</totfact>
</mgrwt>
</event>
<event>
 5   1  0.1357339E+00  0.1219525E+03  0.7818608E-02  0.1239910E+00
         -1   -1    0    0    0  501 -0.00000000000E+00  0.00000000000E+00  0.18525243333E+02  0.18525243922E+02  0.46700000000E-02 0.  1.
          1   -1    0    0  501    0  0.00000000000E+00 -0.00000000000E+00 -0.20070456547E+03  0.20070456553E+03  0.46700000000E-02 0. -1.
         23    2    1    2    0    0  0.00000000000E+00  0.00000000000E+00 -0.18217932214E+03  0.21922980945E+03  0.12195246589E+03 0.  0.
        -11    1    3    3    0    0 -0.41874700924E+02 -0.40423975284E+02 -0.58408080715E+02  0.82456608276E+02  0.51100000000E-03 0.  1.
         11    1    3    3    0    0  0.41874700924E+02  0.40423975284E+02 -0.12377124142E+03  0.13677320117E+03  0.51100000000E-03 0. -1.
<mgrwt>
<rscale>  0 0.12195247E+03</rscale>
<asrwt>0</asrwt>
<pdfrwt beam="2">  1        1 0.30877624E-01 0.12195247E+03</pdfrwt>
<pdfrwt beam="1">  1       -1 0.28500376E-02 0.12195247E+03</pdfrwt>
<totfact> 0.53598366E+04</totfact>
</mgrwt>
</event>
<event>
 5   1  0.1357339E+00  0.9103862E+02  0.7818608E-02  0.1300356E+00
          1   -1    0    0  501    0  0.00000000000E+00  0.00000000000E+00  0.19095862849E+02  0.19095863420E+02  0.46700000000E-02 0. -1.
         -1   -1    0    0    0  501 -0.00000000000E+00 -0.00000000000E+00 -0.10850556766E+03  0.10850556777E+03  0.46700000000E-02 0.  1.
         23    2    1    2    0    0  0.00000000000E+00  0.00000000000E+00 -0.89409704815E+02  0.12760143119E+03  0.91038617770E+02 0.  0.
        -11    1    3    3    0    0  0.26730759690E+02  0.48369856520E+01  0.64893081426E+01  0.27929215246E+02  0.51100000000E-03 0. -1.
         11    1    3    3    0    0 -0.26730759690E+02 -0.48369856520E+01 -0.95899012958E+02  0.99672215940E+02  0.51100000000E-03 0.  1.
<mgrwt>
<rscale>  0 0.91038618E+02</rscale>
<asrwt>0</asrwt>
<pdfrwt beam="1">  1        1 0.29378252E-02 0.91038618E+02</pdfrwt>
<pdfrwt beam="2">  1       -1 0.16693164E-01 0.91038618E+02</pdfrwt>
<totfact> 0.80434624E+04</totfact>
</mgrwt>
</event>
<event>
 5   1  0.1357339E+00  0.1107274E+03  0.7818608E-02  0.1259229E+00
          1   -1    0    0  501    0  0.00000000000E+00  0.00000000000E+00  0.12294875955E+03  0.12294875964E+03  0.46700000000E-02 0.  1.
         -1   -1    0    0    0  501 -0.00000000000E+00 -0.00000000000E+00 -0.24930235593E+02  0.24930236030E+02  0.46700000000E-02 0. -1.
         23    2    1    2    0    0  0.00000000000E+00  0.00000000000E+00  0.98018523958E+02  0.14787899567E+03  0.11072744159E+03 0.  0.
        -11    1    3    3    0    0 -0.49201526605E+02 -0.58787770532E+01  0.16029930096E+02  0.52079831980E+02  0.51100000000E-03 0. -1.
         11    1    3    3    0    0  0.49201526605E+02  0.58787770532E+01  0.81988593862E+02  0.95799163690E+02  0.51100000000E-03 0.  1.
<mgrwt>
<rscale>  0 0.11072744E+03</rscale>
<asrwt>0</asrwt>
<pdfrwt beam="1">  1        1 0.18915194E-01 0.11072744E+03</pdfrwt>
<pdfrwt beam="2">  1       -1 0.38354209E-02 0.11072744E+03</pdfrwt>
<totfact> 0.63475539E+04</totfact>
</mgrwt>
</event>
<event>
 5   1  0.1357339E+00  0.9205901E+02  0.7818608E-02  0.1297941E+00
         -1   -1    0    0    0  501 -0.00000000000E+00  0.00000000000E+00  0.11967226869E+02  0.11967227780E+02  0.46700000000E-02 0.  1.
          1   -1    0    0  501    0  0.00000000000E+00 -0.00000000000E+00 -0.17704311324E+03  0.17704311330E+03  0.46700000000E-02 0. -1.
         23    2    1    2    0    0  0.00000000000E+00  0.00000000000E+00 -0.16507588637E+03  0.18901034108E+03  0.92059007026E+02 0.  0.
        -11    1    3    3    0    0 -0.41932836772E+02 -0.11835081237E+02 -0.11301057842E+03  0.12111904385E+03  0.51100000000E-03 0. -1.
         11    1    3    3    0    0  0.41932836772E+02  0.11835081237E+02 -0.52065307949E+02  0.67891297231E+02  0.51100000000E-03 0.  1.
<mgrwt>
<rscale>  0 0.92059007E+02</rscale>
<asrwt>0</asrwt>
<pdfrwt beam="2">  1        1 0.27237400E-01 0.92059007E+02</pdfrwt>
<pdfrwt beam="1">  1       -1 0.18411120E-02 0.92059007E+02</pdfrwt>
<totfact> 0.11270052E+05</totfact>
</mgrwt>
</event>
<event>
 5   1  0.1357339E+00  0.9028090E+02  0.7818608E-02  0.1302173E+00
         -1   -1    0    0    0  501 -0.00000000000E+00  0.00000000000E+00  0.24129804068E+02  0.24129804520E+02  0.46700000000E-02 0.  1.
          1   -1    0    0  501    0  0.00000000000E+00 -0.00000000000E+00 -0.84445780795E+02  0.84445780924E+02  0.46700000000E-02 0. -1.
         23    2    1    2    0    0  0.00000000000E+00  0.00000000000E+00 -0.60315976727E+02  0.10857558544E+03  0.90280898899E+02 0.  0.
        -11    1    3    3    0    0  0.43634804733E+02  0.10311477628E+02 -0.23869951521E+02  0.50794658586E+02  0.51100000000E-03 0.  1.
         11    1    3    3    0    0 -0.43634804733E+02 -0.10311477628E+02 -0.36446025206E+02  0.57780926858E+02  0.51100000000E-03 0. -1.
<mgrwt>
<rscale>  0 0.90280899E+02</rscale>
<asrwt>0</asrwt>
<pdfrwt beam="2">  1        1 0.12991658E-01 0.90280899E+02</pdfrwt>
<pdfrwt beam="1">  1       -1 0.37122776E-02 0.90280899E+02</pdfrwt>
<totfact> 0.10439599E+05</totfact>
</mgrwt>
</event>
<event>
 5   1  0.1357339E+00  0.9032847E+02  0.7818608E-02  0.1302058E+00
         -1   -1    0    0    0  501 -0.00000000000E+00  0.00000000000E+00  0.10004745545E+03  0.10004745556E+03  0.46700000000E-02 0.  1.
          1   -1    0    0  501    0  0.00000000000E+00 -0.00000000000E+00 -0.20388403187E+02  0.20388403721E+02  0.46700000000E-02 0. -1.
         23    2    1    2    0    0  0.00000000000E+00  0.00000000000E+00  0.79659052267E+02  0.12043585928E+03  0.90328465023E+02 0.  0.
        -11    1    3    3    0    0  0.95401359362E+01  0.15510120092E+02  0.94936218237E+02  0.96666765500E+02  0.51100000000E-03 0.  1.
         11    1    3    3    0    0 -0.95401359362E+01 -0.15510120092E+02 -0.15277165970E+02  0.23769093783E+02  0.51100000000E-03 0. -1.
<mgrwt>
<rscale>  0 0.90328465E+02</rscale>
<asrwt>0</asrwt>
<pdfrwt beam="2">  1        1 0.31366774E-02 0.90328465E+02</pdfrwt>
<pdfrwt beam="1">  1       -1 0.15391916E-01 0.90328465E+02</pdfrwt>
<totfact> 0.83344179E+04</totfact>
</mgrwt>
</event>
<event>
 5   1  0.1357339E+00  0.7543441E+02  0.7818608E-02  0.1342531E+00
         -1   -1    0    0    0  501 -0.00000000000E+00  0.00000000000E+00  0.74537726693E+02  0.74537726839E+02  0.46700000000E-02 0.  1.
          1   -1    0    0  501    0  0.00000000000E+00 -0.00000000000E+00 -0.19085469502E+02  0.19085470073E+02  0.46700000000E-02 0. -1.
         23    2    1    2    0    0  0.00000000000E+00  0.00000000000E+00  0.55452257191E+02  0.93623196912E+02  0.75434409738E+02 0.  0.
        -11    1    3    3    0    0 -0.24797941268E+02  0.25297456366E+02  0.11654295262E+02  0.37292382440E+02  0.51100000000E-03 0. -1.
         11    1    3    3    0    0  0.24797941268E+02 -0.25297456366E+02  0.43797961929E+02  0.56330814472E+02  0.51100000000E-03 0.  1.
<mgrwt>
<rscale>  0 0.75434410E+02</rscale>
<asrwt>0</asrwt>
<pdfrwt beam="2">  1        1 0.29362261E-02 0.75434410E+02</pdfrwt>
<pdfrwt beam="1">  1       -1 0.11467343E-01 0.75434410E+02</pdfrwt>
<totfact> 0.13881631E+05</totfact>
</mgrwt>
</event>
<event>
 5   1  0.1357339E+00  0.8866811E+02  0.7818608E-02  0.1306109E+00
         -1   -1    0    0    0  501 -0.00000000000E+00  0.00000000000E+00  0.54540319714E+01  0.54540339707E+01  0.46700000000E-02 0.  1.
          1   -1    0    0  501    0  0.00000000000E+00 -0.00000000000E+00 -0.36037706352E+03  0.36037706355E+03  0.46700000000E-02 0. -1.
         23    2    1    2    0    0  0.00000000000E+00  0.00000000000E+00 -0.35492303155E+03  0.36583109752E+03  0.88668109204E+02 0.  0.
        -11    1    3    3    0    0  0.32359852398E+02 -0.30090768582E+02 -0.16264633550E+03  0.16854211596E+03  0.51100000000E-03 0.  1.
         11    1    3    3    0    0 -0.32359852398E+02  0.30090768582E+02 -0.19227669605E+03  0.19728898156E+03  0.51100000000E-03 0. -1.
<mgrwt>
<rscale>  0 0.88668109E+02</rscale>
<asrwt>0</asrwt>
<pdfrwt beam="2">  1        1 0.55442607E-01 0.88668109E+02</pdfrwt>
<pdfrwt beam="1">  1       -1 0.83908228E-03 0.88668109E+02</pdfrwt>
<totfact> 0.14269846E+05</totfact>
</mgrwt>
</event>
<event>
 5   1  0.1357339E+00  0.8970932E+02  0.7818608E-02  0.1303557E+00
         -1   -1    0    0    0  501 -0.00000000000E+00  0.00000000000E+00  0.22240900575E+02  0.22240901066E+02  0.46700000000E-02 0.  1.
          1   -1    0    0  501    0  0.00000000000E+00 -0.00000000000E+00 -0.90461290377E+02  0.90461290497E+02  0.46700000000E-02 0. -1.
         23    2    1    2    0    0  0.00000000000E+00  0.00000000000E+00 -0.68220389801E+02  0.11270219156E+03  0.89709321692E+02 0.  0.
        -11    1    3    3    0    0  0.28744037133E+02  0.22650037666E+02 -0.15261913687E+01  0.36627491551E+02  0.51100000000E-03 0.  1.
         11    1    3    3    0    0 -0.28744037133E+02 -0.22650037666E+02 -0.66694198433E+02  0.76074700012E+02  0.51100000000E-03 0. -1.
<mgrwt>
<rscale>  0 0.89709322E+02</rscale>
<asrwt>0</asrwt>
<pdfrwt beam="2">  1        1 0.13917121E-01 0.89709322E+02</pdfrwt>
<pdfrwt beam="1">  1       -1 0.34216771E-02 0.89709322E+02</pdfrwt>
<totfact> 0.10739770E+05</totfact>
</mgrwt>
</event>
<event>
 5   1  0.1357339E+00  0.1082504E+03  0.7818608E-02  0.1263845E+00
         -1   -1    0    0    0  501 -0.00000000000E+00  0.00000000000E+00  0.48110262485E+02  0.48110262712E+02  0.46700000000E-02 0.  1.
          1   -1    0    0  501    0  0.00000000000E+00 -0.00000000000E+00 -0.60892095076E+02  0.60892095255E+02  0.46700000000E-02 0. -1.
         23    2    1    2    0    0  0.00000000000E+00  0.00000000000E+00 -0.12781832591E+02  0.10900235797E+03  0.10825035241E+03 0.  0.
        -11    1    3    3    0    0 -0.49884537600E+02 -0.16367411469E+01  0.14692269819E+02  0.52028922782E+02  0.51100000000E-03 0.  1.
         11    1    3    3    0    0  0.49884537600E+02  0.16367411469E+01 -0.27474102410E+02  0.56973435184E+02  0.51100000000E-03 0. -1.
<mgrwt>
<rscale>  0 0.10825035E+03</rscale>
<asrwt>0</asrwt>
<pdfrwt beam="2">  1        1 0.93680147E-02 0.10825035E+03</pdfrwt>
<pdfrwt beam="1">  1       -1 0.74015789E-02 0.10825035E+03</pdfrwt>
<totfact> 0.59623968E+04</totfact>
</mgrwt>
</event>
<event>
 5   1  0.1357339E+00  0.9101747E+02  0.7818608E-02  0.1300406E+00
          1   -1    0    0  501    0  0.00000000000E+00  0.00000000000E+00  0.89349464569E+02  0.89349464691E+02  0.46700000000E-02 0. -1.
         -1   -1    0    0    0  501 -0.00000000000E+00 -0.00000000000E+00 -0.23179153918E+02  0.23179154388E+02  0.46700000000E-02 0.  1.
         23    2    1    2    0    0  0.00000000000E+00  0.00000000000E+00  0.66170310652E+02  0.11252861908E+03  0.91017471400E+02 0.  0.
        -11    1    3    3    0    0  0.28509001645E+02  0.21969034379E+02 -0.13474011136E+01  0.36016900705E+02  0.51100000000E-03 0.  1.
         11    1    3    3    0    0 -0.28509001645E+02 -0.21969034379E+02  0.67517711765E+02  0.76511718374E+02  0.51100000000E-03 0. -1.
<mgrwt>
<rscale>  0 0.91017471E+02</rscale>
<asrwt>0</asrwt>
<pdfrwt beam="1">  1        1 0.13746071E-01 0.91017471E+02</pdfrwt>
<pdfrwt beam="2">  1       -1 0.35660238E-02 0.91017471E+02</pdfrwt>
<totfact> 0.10303196E+05</totfact>
</mgrwt>
</event>
<event>
 5   1  0.1357339E+00  0.9036829E+02  0.7818608E-02  0.1301962E+00
         -1   -1    0    0    0  501 -0.00000000000E+00  0.00000000000E+00  0.26274494054E+02  0.26274494469E+02  0.46700000000E-02 0.  1.
          1   -1    0    0  501    0  0.00000000000E+00 -0.00000000000E+00 -0.77702994921E+02  0.77702995061E+02  0.46700000000E-02 0. -1.
         23    2    1    2    0    0  0.00000000000E+00  0.00000000000E+00 -0.51428500867E+02  0.10397748953E+03  0.90368288838E+02 0.  0.
        -11    1    3    3    0    0  0.22980708189E+02  0.16939710517E+02  0.14581955372E+02  0.32057762928E+02  0.51100000000E-03 0.  1.
         11    1    3    3    0    0 -0.22980708189E+02 -0.16939710517E+02 -0.66010456239E+02  0.71919726601E+02  0.51100000000E-03 0. -1.
<mgrwt>
<rscale>  0 0.90368289E+02</rscale>
<asrwt>0</asrwt>
<pdfrwt beam="2">  1        1 0.11954307E-01 0.90368289E+02</pdfrwt>
<pdfrwt beam="1">  1       -1 0.40422299E-02 0.90368289E+02</pdfrwt>
<totfact> 0.10276462E+05</totfact>
</mgrwt>
</event>
<event>
 5   1  0.1357339E+00  0.9040687E+02  0.7818608E-02  0.1301869E+00
          1   -1    0    0  501    0  0.00000000000E+00  0.00000000000E+00  0.12689848569E+02  0.12689849428E+02  0.46700000000E-02 0. -1.
         -1   -1    0    0    0  501 -0.00000000000E+00 -0.00000000000E+00 -0.16102243952E+03  0.16102243959E+03  0.46700000000E-02 0.  1.
         23    2    1    2    0    0  0.00000000000E+00  0.00000000000E+00 -0.14833259095E+03  0.17371228902E+03  0.90406868195E+02 0.  0.
        -11    1    3    3    0    0  0.31182060603E+02 -0.14086814952E+01 -0.13699052126E+03  0.14050163060E+03  0.51100000000E-03 0.  1.
         11    1    3    3    0    0 -0.31182060603E+02  0.14086814952E+01 -0.11342069692E+02  0.33210658412E+02  0.51100000000E-03 0. -1.
<mgrwt>
<rscale>  0 0.90406868E+02</rscale>
<asrwt>0</asrwt>
<pdfrwt beam="1">  1        1 0.19522846E-02 0.90406868E+02</pdfrwt>
<pdfrwt beam="2">  1       -1 0.24772682E-01 0.90406868E+02</pdfrwt>
<totfact> 0.75165155E+04</totfact>
</mgrwt>
</event>
<event>
 5   1  0.1357339E+00  0.9312161E+02  0.7818608E-02  0.1295464E+00
          1   -1    0    0  501    0  0.00000000000E+00  0.00000000000E+00  0.15527089463E+02  0.15527090166E+02  0.46700000000E-02 0. -1.
         -1   -1    0    0    0  501 -0.00000000000E+00 -0.00000000000E+00 -0.13962104010E+03  0.13962104018E+03  0.46700000000E-02 0.  1.
         23    2    1    2    0    0  0.00000000000E+00  0.00000000000E+00 -0.12409395064E+03  0.15514813034E+03  0.93121607398E+02 0.  0.
        -11    1    3    3    0    0  0.35492338029E+02  0.18360895838E+02 -0.10186177313E+03  0.10941960236E+03  0.51100000000E-03 0.  1.
         11    1    3    3    0    0 -0.35492338029E+02 -0.18360895838E+02 -0.22232177507E+02  0.45728527986E+02  0.51100000000E-03 0. -1.
<mgrwt>
<rscale>  0 0.93121607E+02</rscale>
<asrwt>0</asrwt>
<pdfrwt beam="1">  1        1 0.23887832E-02 0.93121607E+02</pdfrwt>
<pdfrwt beam="2">  1       -1 0.21480159E-01 0.93121607E+02</pdfrwt>
<totfact> 0.71972792E+04</totfact>
</mgrwt>
</event>
<event>
 5   1  0.1357339E+00  0.8661598E+02  0.7818608E-02  0.1311260E+00
          1   -1    0    0  501    0  0.00000000000E+00  0.00000000000E+00  0.21270166450E+03  0.21270166455E+03  0.46700000000E-02 0. -1.
         -1   -1    0    0    0  501 -0.00000000000E+00 -0.00000000000E+00 -0.88178991220E+01  0.88179003587E+01  0.46700000000E-02 0.  1.
         23    2    1    2    0    0  0.00000000000E+00  0.00000000000E+00  0.20388376538E+03  0.22151956491E+03  0.86615979202E+02 0.  0.
        -11    1    3    3    0    0 -0.35479243504E+02 -0.21089948467E+01  0.38654585329E+02  0.52510965961E+02  0.51100000000E-03 0.  1.
         11    1    3    3    0    0  0.35479243504E+02  0.21089948467E+01  0.16522918005E+03  0.16900859895E+03  0.51100000000E-03 0. -1.
<mgrwt>
<rscale>  0 0.86615979E+02</rscale>
<asrwt>0</asrwt>
<pdfrwt beam="1">  1        1 0.32723335E-01 0.86615979E+02</pdfrwt>
<pdfrwt beam="2">  1       -1 0.13565999E-02 0.86615979E+02</pdfrwt>
<totfact> 0.13742721E+05</totfact>
</mgrwt>
</event>
<event>
 5   1  0.1357339E+00  0.1050470E+03  0.7818608E-02  0.1270027E+00
         -1   -1    0    0    0  501 -0.00000000000E+00  0.00000000000E+00  0.54598694997E+02  0.54598695196E+02  0.46700000000E-02 0.  1.
          1   -1    0    0  501    0  0.00000000000E+00 -0.00000000000E+00 -0.50527139877E+02  0.50527140092E+02  0.46700000000E-02 0. -1.
         23    2    1    2    0    0  0.00000000000E+00  0.00000000000E+00  0.40715551199E+01  0.10512583529E+03  0.10504695942E+03 0.  0.
        -11    1    3    3    0    0 -0.45139548436E+02  0.36969277450E+01  0.28654053942E+02  0.53593851469E+02  0.51100000000E-03 0.  1.
         11    1    3    3    0    0  0.45139548436E+02 -0.36969277450E+01 -0.24582498822E+02  0.51531983819E+02  0.51100000000E-03 0. -1.
<mgrwt>
<rscale>  0 0.10504696E+03</rscale>
<asrwt>0</asrwt>
<pdfrwt beam="2">  1        1 0.77734062E-02 0.10504696E+03</pdfrwt>
<pdfrwt beam="1">  1       -1 0.83997992E-02 0.10504696E+03</pdfrwt>
<totfact> 0.62923535E+04</totfact>
</mgrwt>
</event>
<event>
 5   1  0.1357339E+00  0.9107806E+02  0.7818608E-02  0.1300262E+00
          1   -1    0    0  501    0  0.00000000000E+00  0.00000000000E+00  0.74649753827E+02  0.74649753973E+02  0.46700000000E-02 0.  1.
         -1   -1    0    0    0  501 -0.00000000000E+00 -0.00000000000E+00 -0.27780439927E+02  0.27780440320E+02  0.46700000000E-02 0. -1.
         23    2    1    2    0    0  0.00000000000E+00  0.00000000000E+00  0.46869313900E+02  0.10243019429E+03  0.91078055081E+02 0.  0.
        -11    1    3    3    0    0  0.18307635549E+02 -0.34270590424E+02  0.50147213120E+02  0.63438047506E+02  0.51100000000E-03 0.  1.
         11    1    3    3    0    0 -0.18307635549E+02  0.34270590424E+02 -0.32778992207E+01  0.38992146786E+02  0.51100000000E-03 0. -1.
<mgrwt>
<rscale>  0 0.91078055E+02</rscale>
<asrwt>0</asrwt>
<pdfrwt beam="1">  1        1 0.11484577E-01 0.91078055E+02</pdfrwt>
<pdfrwt beam="2">  1       -1 0.42739139E-02 0.91078055E+02</pdfrwt>
<totfact> 0.99954437E+04</totfact>
</mgrwt>
</event>
<event>
 5   1  0.1357339E+00  0.8972571E+02  0.7818608E-02  0.1303517E+00
         -1   -1    0    0    0  501 -0.00000000000E+00  0.00000000000E+00  0.19320129195E+02  0.19320129759E+02  0.46700000000E-02 0.  1.
          1   -1    0    0  501    0  0.00000000000E+00 -0.00000000000E+00 -0.10417505962E+03  0.10417505973E+03  0.46700000000E-02 0. -1.
         23    2    1    2    0    0  0.00000000000E+00  0.00000000000E+00 -0.84854930427E+02  0.12349518949E+03  0.89725707622E+02 0.  0.
        -11    1    3    3    0    0  0.18559238912E+02 -0.78061754076E+01  0.12752421029E+02  0.23832875736E+02  0.51100000000E-03 0.  1.
         11    1    3    3    0    0 -0.18559238912E+02  0.78061754076E+01 -0.97607351456E+02  0.99662313750E+02  0.51100000000E-03 0. -1.
<mgrwt>
<rscale>  0 0.89725708E+02</rscale>
<asrwt>0</asrwt>
<pdfrwt beam="2">  1        1 0.16026932E-01 0.89725708E+02</pdfrwt>
<pdfrwt beam="1">  1       -1 0.29723277E-02 0.89725708E+02</pdfrwt>
<totfact> 0.10985560E+05</totfact>
</mgrwt>
</event>
<event>
 5   1  0.1357339E+00  0.9124359E+02  0.7818608E-02  0.1299868E+00
          1   -1    0    0  501    0  0.00000000000E+00  0.00000000000E+00  0.23275785770E+02  0.23275786239E+02  0.46700000000E-02 0. -1.
         -1   -1    0    0    0  501 -0.00000000000E+00 -0.00000000000E+00 -0.89421177666E+02  0.89421177788E+02  0.46700000000E-02 0.  1.
         23    2    1    2    0    0  0.00000000000E+00  0.00000000000E+00 -0.66145391896E+02  0.11269696403E+03  0.91243590634E+02 0.  0.
        -11    1    3    3    0    0 -0.26849871509E+02 -0.92492298038E+01  0.11027979905E+02  0.30464408628E+02  0.51100000000E-03 0. -1.
         11    1    3    3    0    0  0.26849871509E+02  0.92492298038E+01 -0.77173371801E+02  0.82232555399E+02  0.51100000000E-03 0.  1.
<mgrwt>
<rscale>  0 0.91243591E+02</rscale>
<asrwt>0</asrwt>
<pdfrwt beam="1">  1        1 0.35808902E-02 0.91243591E+02</pdfrwt>
<pdfrwt beam="2">  1       -1 0.13757104E-01 0.91243591E+02</pdfrwt>
<totfact> 0.82880868E+04</totfact>
</mgrwt>
</event>
<event>
 5   1  0.1357339E+00  0.9015947E+02  0.7818608E-02  0.1302466E+00
         -1   -1    0    0    0  501 -0.00000000000E+00  0.00000000000E+00  0.50231547399E+02  0.50231547616E+02  0.46700000000E-02 0.  1.
          1   -1    0    0  501    0  0.00000000000E+00 -0.00000000000E+00 -0.40456295147E+02  0.40456295417E+02  0.46700000000E-02 0. -1.
         23    2    1    2    0    0  0.00000000000E+00  0.00000000000E+00  0.97752522516E+01  0.90687843032E+02  0.90159466044E+02 0.  0.
        -11    1    3    3    0    0 -0.36313895767E+02  0.25378455898E+02  0.13268157112E+02  0.46247259843E+02  0.51100000000E-03 0.  1.
         11    1    3    3    0    0  0.36313895767E+02 -0.25378455898E+02 -0.34929048602E+01  0.44440583189E+02  0.51100000000E-03 0. -1.
<mgrwt>
<rscale>  0 0.90159466E+02</rscale>
<asrwt>0</asrwt>
<pdfrwt beam="2">  1        1 0.62240455E-02 0.90159466E+02</pdfrwt>
<pdfrwt beam="1">  1       -1 0.77279304E-02 0.90159466E+02</pdfrwt>
<totfact> 0.93738127E+04</totfact>
</mgrwt>
</event>
<event>
 5   1  0.1357339E+00  0.9039783E+02  0.7818608E-02  0.1301891E+00
          1   -1    0    0  501    0  0.00000000000E+00  0.00000000000E+00  0.90792042452E+01  0.90792054462E+01  0.46700000000E-02 0. -1.
         -1   -1    0    0    0  501 -0.00000000000E+00 -0.00000000000E+00 -0.22501332993E+03  0.22501332998E+03  0.46700000000E-02 0.  1.
         23    2    1    2    0    0  0.00000000000E+00  0.00000000000E+00 -0.21593412569E+03  0.23409253543E+03  0.90397834633E+02 0.  0.
        -11    1    3    3    0    0  0.26942885676E+02 -0.20722459535E+02 -0.30816544678E+02  0.45880266389E+02  0.51100000000E-03 0. -1.
         11    1    3    3    0    0 -0.26942885676E+02  0.20722459535E+02 -0.18511758101E+03  0.18821226904E+03  0.51100000000E-03 0.  1.
<mgrwt>
<rscale>  0 0.90397835E+02</rscale>
<asrwt>0</asrwt>
<pdfrwt beam="1">  1        1 0.13968009E-02 0.90397835E+02</pdfrwt>
<pdfrwt beam="2">  1       -1 0.34617431E-01 0.90397835E+02</pdfrwt>
<totfact> 0.68538068E+04</totfact>
</mgrwt>
</event>
<event>
 5   1  0.1357339E+00  0.9083381E+02  0.7818608E-02  0.1300845E+00
          1   -1    0    0  501    0  0.00000000000E+00  0.00000000000E+00  0.62202027289E+02  0.62202027465E+02  0.46700000000E-02 0. -1.
         -1   -1    0    0    0  501 -0.00000000000E+00 -0.00000000000E+00 -0.33161225211E+02  0.33161225540E+02  0.46700000000E-02 0.  1.
         23    2    1    2    0    0  0.00000000000E+00  0.00000000000E+00  0.29040802078E+02  0.95363253005E+02  0.90833814399E+02 0.  0.
        -11    1    3    3    0    0 -0.43492658692E+02  0.12462154549E+02  0.10350069952E+02  0.46411642983E+02  0.51100000000E-03 0. -1.
         11    1    3    3    0    0  0.43492658692E+02 -0.12462154549E+02  0.18690732127E+02  0.48951610022E+02  0.51100000000E-03 0.  1.
<mgrwt>
<rscale>  0 0.90833814E+02</rscale>
<asrwt>0</asrwt>
<pdfrwt beam="1">  1        1 0.95695427E-02 0.90833814E+02</pdfrwt>
<pdfrwt beam="2">  1       -1 0.51017270E-02 0.90833814E+02</pdfrwt>
<totfact> 0.97915911E+04</totfact>
</mgrwt>
</event>
<event>
 5   1  0.1357339E+00  0.9086621E+02  0.7818608E-02  0.1300768E+00
          1   -1    0    0  501    0  0.00000000000E+00  0.00000000000E+00  0.95180207208E+01  0.95180218665E+01  0.46700000000E-02 0. -1.
         -1   -1    0    0    0  501 -0.00000000000E+00 -0.00000000000E+00 -0.21686931985E+03  0.21686931990E+03  0.46700000000E-02 0.  1.
         23    2    1    2    0    0  0.00000000000E+00  0.00000000000E+00 -0.20735129913E+03  0.22638734177E+03  0.90866205278E+02 0.  0.
        -11    1    3    3    0    0  0.12970538519E+02 -0.35478366560E+02 -0.40783914067E+02  0.55590260029E+02  0.51100000000E-03 0. -1.
         11    1    3    3    0    0 -0.12970538519E+02  0.35478366560E+02 -0.16656738506E+03  0.17079708174E+03  0.51100000000E-03 0.  1.
<mgrwt>
<rscale>  0 0.90866205E+02</rscale>
<asrwt>0</asrwt>
<pdfrwt beam="1">  1        1 0.14643111E-02 0.90866205E+02</pdfrwt>
<pdfrwt beam="2">  1       -1 0.33364507E-01 0.90866205E+02</pdfrwt>
<totfact> 0.68393094E+04</totfact>
</mgrwt>
</event>
<event>
 4   1  0.1357339E+00  0.1363179E+03  0.7818608E-02  0.1218371E+00
          1   -1    0    0  501    0  0.00000000000E+00  0.00000000000E+00  0.49988740354E+03  0.49988740356E+03  0.46700000000E-02 0. -1.
         -1   -1    0    0    0  501 -0.00000000000E+00 -0.00000000000E+00 -0.92933807934E+01  0.92933819667E+01  0.46700000000E-02 0.  1.
        -11    1    1    2    0    0  0.57841027140E+02 -0.31818315062E+02  0.30864820103E+03  0.31562905695E+03  0.51100000000E-03 0.  1.
         11    1    1    2    0    0 -0.57841027140E+02  0.31818315062E+02  0.18194582172E+03  0.19355172857E+03  0.51100000000E-03 0. -1.
<mgrwt>
<rscale>  0 0.13631793E+03</rscale>
<asrwt>0</asrwt>
<pdfrwt beam="1">  1        1 0.76905771E-01 0.13631793E+03</pdfrwt>
<pdfrwt beam="2">  1       -1 0.14297507E-02 0.13631793E+03</pdfrwt>
<totfact> 0.46951211E+04</totfact>
</mgrwt>
</event>
<event>
 5   1  0.1357339E+00  0.9115137E+02  0.7818608E-02  0.1300087E+00
         -1   -1    0    0    0  501 -0.00000000000E+00  0.00000000000E+00  0.14347798370E+02  0.14347799130E+02  0.46700000000E-02 0.  1.
          1   -1    0    0  501    0  0.00000000000E+00 -0.00000000000E+00 -0.14477083706E+03  0.14477083714E+03  0.46700000000E-02 0. -1.
         23    2    1    2    0    0  0.00000000000E+00  0.00000000000E+00 -0.13042303869E+03  0.15911863627E+03  0.91151365245E+02 0.  0.
        -11    1    3    3    0    0 -0.25229467516E+02  0.16078614419E+02 -0.51931688352E+01  0.30364730784E+02  0.51100000000E-03 0.  1.
         11    1    3    3    0    0  0.25229467516E+02 -0.16078614419E+02 -0.12522986986E+03  0.12875390548E+03  0.51100000000E-03 0. -1.
<mgrwt>
<rscale>  0 0.91151365E+02</rscale>
<asrwt>0</asrwt>
<pdfrwt beam="2">  1        1 0.22272436E-01 0.91151365E+02</pdfrwt>
<pdfrwt beam="1">  1       -1 0.22073538E-02 0.91151365E+02</pdfrwt>
<totfact> 0.11149055E+05</totfact>
</mgrwt>
</event>
<event>
 5   1  0.1357339E+00  0.9081388E+02  0.7818608E-02  0.1300893E+00
          1   -1    0    0  501    0  0.00000000000E+00  0.00000000000E+00  0.31234795560E+02  0.31234795910E+02  0.46700000000E-02 0. -1.
         -1   -1    0    0    0  501 -0.00000000000E+00 -0.00000000000E+00 -0.66009399036E+02  0.66009399202E+02  0.46700000000E-02 0.  1.
         23    2    1    2    0    0  0.00000000000E+00  0.00000000000E+00 -0.34774603476E+02  0.97244195111E+02  0.90813877992E+02 0.  0.
        -11    1    3    3    0    0 -0.18293300184E+02  0.34377914695E+02  0.76179314525E+01  0.39680205774E+02  0.51100000000E-03 0. -1.
         11    1    3    3    0    0  0.18293300184E+02 -0.34377914695E+02 -0.42392534929E+02  0.57563989337E+02  0.51100000000E-03 0.  1.
<mgrwt>
<rscale>  0 0.90813878E+02</rscale>
<asrwt>0</asrwt>
<pdfrwt beam="1">  1        1 0.48053532E-02 0.90813878E+02</pdfrwt>
<pdfrwt beam="2">  1       -1 0.10155292E-01 0.90813878E+02</pdfrwt>
<totfact> 0.88248990E+04</totfact>
</mgrwt>
</event>
<event>
 5   1  0.1357339E+00  0.9514080E+02  0.7818608E-02  0.1290859E+00
          1   -1    0    0  501    0  0.00000000000E+00  0.00000000000E+00  0.92782164256E+02  0.92782164373E+02  0.46700000000E-02 0. -1.
         -1   -1    0    0    0  501 -0.00000000000E+00 -0.00000000000E+00 -0.24389850930E+02  0.24389851377E+02  0.46700000000E-02 0.  1.
         23    2    1    2    0    0  0.00000000000E+00  0.00000000000E+00  0.68392313326E+02  0.11717201575E+03  0.95140804879E+02 0.  0.
        -11    1    3    3    0    0  0.25480097412E+02  0.39151037321E+02  0.45273671674E+02  0.65051859578E+02  0.51100000000E-03 0.  1.
         11    1    3    3    0    0 -0.25480097412E+02 -0.39151037321E+02  0.23118641652E+02  0.52120156173E+02  0.51100000000E-03 0. -1.
<mgrwt>
<rscale>  0 0.95140805E+02</rscale>
<asrwt>0</asrwt>
<pdfrwt beam="1">  1        1 0.14274179E-01 0.95140805E+02</pdfrwt>
<pdfrwt beam="2">  1       -1 0.37522848E-02 0.95140805E+02</pdfrwt>
<totfact> 0.91806843E+04</totfact>
</mgrwt>
</event>
<event>
 5   1  0.1357339E+00  0.9151705E+02  0.7818608E-02  0.1299219E+00
          1   -1    0    0  501    0  0.00000000000E+00  0.00000000000E+00  0.48580500036E+02  0.48580500261E+02  0.46700000000E-02 0. -1.
         -1   -1    0    0    0  501 -0.00000000000E+00 -0.00000000000E+00 -0.43100473060E+02  0.43100473313E+02  0.46700000000E-02 0.  1.
         23    2    1    2    0    0  0.00000000000E+00  0.00000000000E+00  0.54800269759E+01  0.91680973574E+02  0.91517048793E+02 0.  0.
        -11    1    3    3    0    0 -0.19273403969E+02 -0.40396078778E+02  0.12272059253E+02  0.46410243694E+02  0.51100000000E-03 0.  1.
         11    1    3    3    0    0  0.19273403969E+02  0.40396078778E+02 -0.67920322769E+01  0.45270729880E+02  0.51100000000E-03 0. -1.
<mgrwt>
<rscale>  0 0.91517049E+02</rscale>
<asrwt>0</asrwt>
<pdfrwt beam="1">  1        1 0.74739232E-02 0.91517049E+02</pdfrwt>
<pdfrwt beam="2">  1       -1 0.66308420E-02 0.91517049E+02</pdfrwt>
<totfact> 0.92390101E+04</totfact>
</mgrwt>
</event>
<event>
 5   1  0.1357339E+00  0.8999907E+02  0.7818608E-02  0.1302854E+00
          1   -1    0    0  501    0  0.00000000000E+00  0.00000000000E+00  0.52277614146E+02  0.52277614354E+02  0.46700000000E-02 0. -1.
         -1   -1    0    0    0  501 -0.00000000000E+00 -0.00000000000E+00 -0.38734705533E+02  0.38734705815E+02  0.46700000000E-02 0.  1.
         23    2    1    2    0    0  0.00000000000E+00  0.00000000000E+00  0.13542908612E+02  0.91012320169E+02  0.89999066933E+02 0.  0.
        -11    1    3    3    0    0 -0.84719986881E+01 -0.23550095370E+02 -0.31047128893E+02  0.39878640479E+02  0.51100000000E-03 0.  1.
         11    1    3    3    0    0  0.84719986881E+01  0.23550095370E+02  0.44590037505E+02  0.51133679690E+02  0.51100000000E-03 0. -1.
<mgrwt>
<rscale>  0 0.89999067E+02</rscale>
<asrwt>0</asrwt>
<pdfrwt beam="1">  1        1 0.80427100E-02 0.89999067E+02</pdfrwt>
<pdfrwt beam="2">  1       -1 0.59591855E-02 0.89999067E+02</pdfrwt>
<totfact> 0.97872859E+04</totfact>
</mgrwt>
</event>
<event>
 5   1  0.1357339E+00  0.9063994E+02  0.7818608E-02  0.1301309E+00
         -1   -1    0    0    0  501 -0.00000000000E+00  0.00000000000E+00  0.19258679590E+03  0.19258679596E+03  0.46700000000E-02 0.  1.
          1   -1    0    0  501    0  0.00000000000E+00 -0.00000000000E+00 -0.10664798711E+02  0.10664799734E+02  0.46700000000E-02 0. -1.
         23    2    1    2    0    0  0.00000000000E+00  0.00000000000E+00  0.18192199719E+03  0.20325159569E+03  0.90639936506E+02 0.  0.
        -11    1    3    3    0    0  0.15312347220E+02 -0.24962779674E+02  0.16852010931E+03  0.17104571198E+03  0.51100000000E-03 0.  1.
         11    1    3    3    0    0 -0.15312347220E+02  0.24962779674E+02  0.13401887884E+02  0.32205883710E+02  0.51100000000E-03 0. -1.
<mgrwt>
<rscale>  0 0.90639937E+02</rscale>
<asrwt>0</asrwt>
<pdfrwt beam="2">  1        1 0.16407383E-02 0.90639937E+02</pdfrwt>
<pdfrwt beam="1">  1       -1 0.29628739E-01 0.90639937E+02</pdfrwt>
<totfact> 0.71255452E+04</totfact>
</mgrwt>
</event>
<event>
 5   1  0.1357339E+00  0.9199547E+02  0.7818608E-02  0.1298090E+00
          1   -1    0    0  501    0  0.00000000000E+00  0.00000000000E+00  0.73762344911E+02  0.73762345059E+02  0.46700000000E-02 0. -1.
         -1   -1    0    0    0  501 -0.00000000000E+00 -0.00000000000E+00 -0.28683899072E+02  0.28683899452E+02  0.46700000000E-02 0.  1.
         23    2    1    2    0    0  0.00000000000E+00  0.00000000000E+00  0.45078445839E+02  0.10244624451E+03  0.91995471274E+02 0.  0.
        -11    1    3    3    0    0  0.10353744910E+02 -0.32428806017E+02 -0.11909841953E+02  0.36064828142E+02  0.51100000000E-03 0.  1.
         11    1    3    3    0    0 -0.10353744910E+02  0.32428806017E+02  0.56988287792E+02  0.66381416368E+02  0.51100000000E-03 0. -1.
<mgrwt>
<rscale>  0 0.91995471E+02</rscale>
<asrwt>0</asrwt>
<pdfrwt beam="1">  1        1 0.11348053E-01 0.91995471E+02</pdfrwt>
<pdfrwt beam="2">  1       -1 0.44129076E-02 0.91995471E+02</pdfrwt>
<totfact> 0.97049370E+04</totfact>
</mgrwt>
</event>
<event>
 5   1  0.1357339E+00  0.9008509E+02  0.7818608E-02  0.1302646E+00
          1   -1    0    0  501    0  0.00000000000E+00  0.00000000000E+00  0.15741844449E+02  0.15741845142E+02  0.46700000000E-02 0. -1.
         -1   -1    0    0    0  501 -0.00000000000E+00 -0.00000000000E+00 -0.12888138512E+03  0.12888138520E+03  0.46700000000E-02 0.  1.
         23    2    1    2    0    0  0.00000000000E+00  0.00000000000E+00 -0.11313954067E+03  0.14462323034E+03  0.90085088070E+02 0.  0.
        -11    1    3    3    0    0 -0.30345671263E+02  0.58456277612E+01 -0.10917716306E+03  0.11346666499E+03  0.51100000000E-03 0.  1.
         11    1    3    3    0    0  0.30345671263E+02 -0.58456277612E+01 -0.39623776039E+01  0.31156565357E+02  0.51100000000E-03 0. -1.
<mgrwt>
<rscale>  0 0.90085088E+02</rscale>
<asrwt>0</asrwt>
<pdfrwt beam="1">  1        1 0.24218224E-02 0.90085088E+02</pdfrwt>
<pdfrwt beam="2">  1       -1 0.19827905E-01 0.90085088E+02</pdfrwt>
<totfact> 0.79815920E+04</totfact>
</mgrwt>
</event>
<event>
 5   1  0.1357339E+00  0.8957156E+02  0.7818608E-02  0.1303893E+00
         -1   -1    0    0    0  501 -0.00000000000E+00  0.00000000000E+00  0.68213546569E+01  0.68213562555E+01  0.46700000000E-02 0.  1.
          1   -1    0    0  501    0  0.00000000000E+00 -0.00000000000E+00 -0.29404213955E+03  0.29404213958E+03  0.46700000000E-02 0. -1.
         23    2    1    2    0    0  0.00000000000E+00  0.00000000000E+00 -0.28722078489E+03  0.30086349584E+03  0.89571557182E+02 0.  0.
        -11    1    3    3    0    0  0.21915373326E+02  0.32836119535E+02 -0.72573321016E+02  0.82615865653E+02  0.51100000000E-03 0.  1.
         11    1    3    3    0    0 -0.21915373326E+02 -0.32836119535E+02 -0.21464746387E+03  0.21824763019E+03  0.51100000000E-03 0. -1.
<mgrwt>
<rscale>  0 0.89571557E+02</rscale>
<asrwt>0</asrwt>
<pdfrwt beam="2">  1        1 0.45237242E-01 0.89571557E+02</pdfrwt>
<pdfrwt beam="1">  1       -1 0.10494395E-02 0.89571557E+02</pdfrwt>
<totfact> 0.13381021E+05</totfact>
</mgrwt>
</event>
<event>
 5   1  0.1357339E+00  0.9345409E+02  0.7818608E-02  0.1294696E+00
          1   -1    0    0  501    0  0.00000000000E+00  0.00000000000E+00  0.29087309368E+02  0.29087309743E+02  0.46700000000E-02 0. -1.
         -1   -1    0    0    0  501 -0.00000000000E+00 -0.00000000000E+00 -0.75064234837E+02  0.75064234983E+02  0.46700000000E-02 0.  1.
         23    2    1    2    0    0  0.00000000000E+00  0.00000000000E+00 -0.45976925469E+02  0.10415154473E+03  0.93454088156E+02 0.  0.
        -11    1    3    3    0    0 -0.18972875269E+02 -0.35336398882E+02 -0.49707471229E+02  0.63870680114E+02  0.51100000000E-03 0.  1.
         11    1    3    3    0    0  0.18972875269E+02  0.35336398882E+02  0.37305457599E+01  0.40280864612E+02  0.51100000000E-03 0. -1.
<mgrwt>
<rscale>  0 0.93454088E+02</rscale>
<asrwt>0</asrwt>
<pdfrwt beam="1">  1        1 0.44749707E-02 0.93454088E+02</pdfrwt>
<pdfrwt beam="2">  1       -1 0.11548344E-01 0.93454088E+02</pdfrwt>
<totfact> 0.80324244E+04</totfact>
</mgrwt>
</event>
<event>
 5   1  0.1357339E+00  0.9321384E+02  0.7818608E-02  0.1295250E+00
          1   -1    0    0  501    0  0.00000000000E+00  0.00000000000E+00  0.19155934444E+03  0.19155934450E+03  0.46700000000E-02 0. -1.
         -1   -1    0    0    0  501 -0.00000000000E+00 -0.00000000000E+00 -0.11339592645E+02  0.11339593607E+02  0.46700000000E-02 0.  1.
         23    2    1    2    0    0  0.00000000000E+00  0.00000000000E+00  0.18021975179E+03  0.20289893810E+03  0.93213840962E+02 0.  0.
        -11    1    3    3    0    0  0.31798920277E+02 -0.26141730497E+02  0.42537880693E+02  0.59194870540E+02  0.51100000000E-03 0.  1.
         11    1    3    3    0    0 -0.31798920277E+02  0.26141730497E+02  0.13768187110E+03  0.14370406756E+03  0.51100000000E-03 0. -1.
<mgrwt>
<rscale>  0 0.93213841E+02</rscale>
<asrwt>0</asrwt>
<pdfrwt beam="1">  1        1 0.29470666E-01 0.93213841E+02</pdfrwt>
<pdfrwt beam="2">  1       -1 0.17445529E-02 0.93213841E+02</pdfrwt>
<totfact> 0.11064817E+05</totfact>
</mgrwt>
</event>
<event>
 5   1  0.1357339E+00  0.9174187E+02  0.7818608E-02  0.1298688E+00
         -1   -1    0    0    0  501 -0.00000000000E+00  0.00000000000E+00  0.60796399452E+02  0.60796399631E+02  0.46700000000E-02 0.  1.
          1   -1    0    0  501    0  0.00000000000E+00 -0.00000000000E+00 -0.34609658818E+02  0.34609659134E+02  0.46700000000E-02 0. -1.
         23    2    1    2    0    0  0.00000000000E+00  0.00000000000E+00  0.26186740633E+02  0.95406058765E+02  0.91741869744E+02 0.  0.
        -11    1    3    3    0    0  0.13776486219E+02 -0.34019910912E+02  0.41705842093E+02  0.55556486353E+02  0.51100000000E-03 0.  1.
         11    1    3    3    0    0 -0.13776486219E+02  0.34019910912E+02 -0.15519101459E+02  0.39849572411E+02  0.51100000000E-03 0. -1.
<mgrwt>
<rscale>  0 0.91741870E+02</rscale>
<asrwt>0</asrwt>
<pdfrwt beam="2">  1        1 0.53245630E-02 0.91741870E+02</pdfrwt>
<pdfrwt beam="1">  1       -1 0.93532921E-02 0.91741870E+02</pdfrwt>
<totfact> 0.87120783E+04</totfact>
</mgrwt>
</event>
<event>
 5   1  0.1357339E+00  0.9267870E+02  0.7818608E-02  0.1296491E+00
         -1   -1    0    0    0  501 -0.00000000000E+00  0.00000000000E+00  0.18158265394E+02  0.18158265995E+02  0.46700000000E-02 0.  1.
          1   -1    0    0  501    0  0.00000000000E+00 -0.00000000000E+00 -0.11825662972E+03  0.11825662981E+03  0.46700000000E-02 0. -1.
         23    2    1    2    0    0  0.00000000000E+00  0.00000000000E+00 -0.10009836433E+03  0.13641489581E+03  0.92678699049E+02 0.  0.
        -11    1    3    3    0    0  0.31322044447E+02 -0.27253568037E+02 -0.80340112484E+02  0.90434291689E+02  0.51100000000E-03 0. -1.
         11    1    3    3    0    0 -0.31322044447E+02  0.27253568037E+02 -0.19758251845E+02  0.45980604121E+02  0.51100000000E-03 0.  1.
<mgrwt>
<rscale>  0 0.92678699E+02</rscale>
<asrwt>0</asrwt>
<pdfrwt beam="2">  1        1 0.18193327E-01 0.92678699E+02</pdfrwt>
<pdfrwt beam="1">  1       -1 0.27935794E-02 0.92678699E+02</pdfrwt>
<totfact> 0.10279746E+05</totfact>
</mgrwt>
</event>
<event>
 5   1  0.1357339E+00  0.9258192E+02  0.7818608E-02  0.1296717E+00
         -1   -1    0    0    0  501 -0.00000000000E+00  0.00000000000E+00  0.39532622610E+02  0.39532622886E+02  0.46700000000E-02 0.  1.
          1   -1    0    0  501    0  0.00000000000E+00 -0.00000000000E+00 -0.54204680453E+02  0.54204680654E+02  0.46700000000E-02 0. -1.
         23    2    1    2    0    0  0.00000000000E+00  0.00000000000E+00 -0.14672057843E+02  0.93737303540E+02  0.92581924767E+02 0.  0.
        -11    1    3    3    0    0  0.29762907837E+02  0.64418014153E+00 -0.43227072219E+02  0.52486430855E+02  0.51100000000E-03 0. -1.
         11    1    3    3    0    0 -0.29762907837E+02 -0.64418014153E+00  0.28555014376E+02  0.41250872685E+02  0.51100000000E-03 0.  1.
<mgrwt>
<rscale>  0 0.92581925E+02</rscale>
<asrwt>0</asrwt>
<pdfrwt beam="2">  1        1 0.83391817E-02 0.92581925E+02</pdfrwt>
<pdfrwt beam="1">  1       -1 0.60819420E-02 0.92581925E+02</pdfrwt>
<totfact> 0.90941300E+04</totfact>
</mgrwt>
</event>
<event>
 5   1  0.1357339E+00  0.8753948E+02  0.7818608E-02  0.1308922E+00
         -1   -1    0    0    0  501 -0.00000000000E+00  0.00000000000E+00  0.12123860969E+03  0.12123860978E+03  0.46700000000E-02 0.  1.
          1   -1    0    0  501    0  0.00000000000E+00 -0.00000000000E+00 -0.15801815793E+02  0.15801816483E+02  0.46700000000E-02 0. -1.
         23    2    1    2    0    0  0.00000000000E+00  0.00000000000E+00  0.10543679389E+03  0.13704042626E+03  0.87539482080E+02 0.  0.
        -11    1    3    3    0    0 -0.34815986145E+02  0.11335962472E+02  0.90261397743E+02  0.97405219877E+02  0.51100000000E-03 0.  1.
         11    1    3    3    0    0  0.34815986145E+02 -0.11335962472E+02  0.15175396151E+02  0.39635206383E+02  0.51100000000E-03 0. -1.
<mgrwt>
<rscale>  0 0.87539482E+02</rscale>
<asrwt>0</asrwt>
<pdfrwt beam="2">  1        1 0.24310485E-02 0.87539482E+02</pdfrwt>
<pdfrwt beam="1">  1       -1 0.18652095E-01 0.87539482E+02</pdfrwt>
<totfact> 0.87049136E+04</totfact>
</mgrwt>
</event>
<event>
 5   1  0.1357339E+00  0.9304503E+02  0.7818608E-02  0.1295641E+00
         -1   -1    0    0    0  501 -0.00000000000E+00  0.00000000000E+00  0.37799731380E+03  0.37799731383E+03  0.46700000000E-02 0.  1.
          1   -1    0    0  501    0  0.00000000000E+00 -0.00000000000E+00 -0.57258188503E+01  0.57258207548E+01  0.46700000000E-02 0. -1.
         23    2    1    2    0    0  0.00000000000E+00  0.00000000000E+00  0.37227149495E+03  0.38372313458E+03  0.93045032444E+02 0.  0.
        -11    1    3    3    0    0  0.42353277995E+02  0.18848363252E+02  0.20225842146E+03  0.20750308433E+03  0.51100000000E-03 0. -1.
         11    1    3    3    0    0 -0.42353277995E+02 -0.18848363252E+02  0.17001307349E+03  0.17622005025E+03  0.51100000000E-03 0.  1.
<mgrwt>
<rscale>  0 0.93045032E+02</rscale>
<asrwt>0</asrwt>
<pdfrwt beam="2">  1        1 0.88089557E-03 0.93045032E+02</pdfrwt>
<pdfrwt beam="1">  1       -1 0.58153419E-01 0.93045032E+02</pdfrwt>
<totfact> 0.51958134E+04</totfact>
</mgrwt>
</event>
<event>
 5   1  0.1357339E+00  0.8981226E+02  0.7818608E-02  0.1303307E+00
         -1   -1    0    0    0  501 -0.00000000000E+00  0.00000000000E+00  0.30445827728E+02  0.30445828086E+02  0.46700000000E-02 0.  1.
          1   -1    0    0  501    0  0.00000000000E+00 -0.00000000000E+00 -0.66234375893E+02  0.66234376057E+02  0.46700000000E-02 0. -1.
         23    2    1    2    0    0  0.00000000000E+00  0.00000000000E+00 -0.35788548165E+02  0.96680204144E+02  0.89812258036E+02 0.  0.
        -11    1    3    3    0    0  0.39044650930E+02 -0.90025572297E+01  0.39299344731E+01  0.40261336145E+02  0.51100000000E-03 0.  1.
         11    1    3    3    0    0 -0.39044650930E+02  0.90025572297E+01 -0.39718482638E+02  0.56418867999E+02  0.51100000000E-03 0. -1.
<mgrwt>
<rscale>  0 0.89812258E+02</rscale>
<asrwt>0</asrwt>
<pdfrwt beam="2">  1        1 0.10189904E-01 0.89812258E+02</pdfrwt>
<pdfrwt beam="1">  1       -1 0.46839735E-02 0.89812258E+02</pdfrwt>
<totfact> 0.10198679E+05</totfact>
</mgrwt>
</event>
<event>
 5   1  0.1357339E+00  0.9503869E+02  0.7818608E-02  0.1291089E+00
          1   -1    0    0  501    0  0.00000000000E+00  0.00000000000E+00  0.68005769544E+02  0.68005769704E+02  0.46700000000E-02 0. -1.
         -1   -1    0    0    0  501 -0.00000000000E+00 -0.00000000000E+00 -0.33204359722E+02  0.33204360050E+02  0.46700000000E-02 0.  1.
         23    2    1    2    0    0  0.00000000000E+00  0.00000000000E+00  0.34801409823E+02  0.10121012975E+03  0.95038688118E+02 0.  0.
        -11    1    3    3    0    0  0.31527521088E+02  0.24562838859E+02  0.44775371959E+02  0.60017927098E+02  0.51100000000E-03 0. -1.
         11    1    3    3    0    0 -0.31527521088E+02 -0.24562838859E+02 -0.99739621365E+01  0.41192202657E+02  0.51100000000E-03 0.  1.
<mgrwt>
<rscale>  0 0.95038688E+02</rscale>
<asrwt>0</asrwt>
<pdfrwt beam="1">  1        1 0.10462426E-01 0.95038688E+02</pdfrwt>
<pdfrwt beam="2">  1       -1 0.51083632E-02 0.95038688E+02</pdfrwt>
<totfact> 0.87560489E+04</totfact>
</mgrwt>
</event>
<event>
 5   1  0.1357339E+00  0.9373229E+02  0.7818608E-02  0.1294057E+00
         -1   -1    0    0    0  501 -0.00000000000E+00  0.00000000000E+00  0.16557124239E+02  0.16557124898E+02  0.46700000000E-02 0.  1.
          1   -1    0    0  501    0  0.00000000000E+00 -0.00000000000E+00 -0.13265802341E+03  0.13265802349E+03  0.46700000000E-02 0. -1.
         23    2    1    2    0    0  0.00000000000E+00  0.00000000000E+00 -0.11610089917E+03  0.14921514839E+03  0.93732287504E+02 0.  0.
        -11    1    3    3    0    0 -0.22513451041E+02  0.28586251437E+02 -0.11030401805E+02  0.38022348866E+02  0.51100000000E-03 0.  1.
         11    1    3    3    0    0  0.22513451041E+02 -0.28586251437E+02 -0.10507049737E+03  0.11119279953E+03  0.51100000000E-03 0. -1.
<mgrwt>
<rscale>  0 0.93732288E+02</rscale>
<asrwt>0</asrwt>
<pdfrwt beam="2">  1        1 0.20408926E-01 0.93732288E+02</pdfrwt>
<pdfrwt beam="1">  1       -1 0.25472500E-02 0.93732288E+02</pdfrwt>
<totfact> 0.10174149E+05</totfact>
</mgrwt>
</event>
<event>
 5   1  0.1357339E+00  0.8917833E+02  0.7818608E-02  0.1304854E+00
         -1   -1    0    0    0  501 -0.00000000000E+00  0.00000000000E+00  0.38482648787E+03  0.38482648789E+03  0.46700000000E-02 0.  1.
          1   -1    0    0  501    0  0.00000000000E+00 -0.00000000000E+00 -0.51664671441E+01  0.51664692547E+01  0.46700000000E-02 0. -1.
         23    2    1    2    0    0  0.00000000000E+00  0.00000000000E+00  0.37966002072E+03  0.38999295715E+03  0.89178334203E+02 0.  0.
        -11    1    3    3    0    0  0.42557487969E+02 -0.61582280293E+01  0.13824681764E+03  0.14477999220E+03  0.51100000000E-03 0.  1.
         11    1    3    3    0    0 -0.42557487969E+02  0.61582280293E+01  0.24141320309E+03  0.24521296495E+03  0.51100000000E-03 0. -1.
<mgrwt>
<rscale>  0 0.89178334E+02</rscale>
<asrwt>0</asrwt>
<pdfrwt beam="2">  1        1 0.79484110E-03 0.89178334E+02</pdfrwt>
<pdfrwt beam="1">  1       -1 0.59204088E-01 0.89178334E+02</pdfrwt>
<totfact> 0.57566013E+04</totfact>
</mgrwt>
</event>
<event>
 5   1  0.1357339E+00  0.9078964E+02  0.7818608E-02  0.1300951E+00
         -1   -1    0    0    0  501 -0.00000000000E+00  0.00000000000E+00  0.15764655160E+02  0.15764655852E+02  0.46700000000E-02 0.  1.
          1   -1    0    0  501    0  0.00000000000E+00 -0.00000000000E+00 -0.13071580401E+03  0.13071580410E+03  0.46700000000E-02 0. -1.
         23    2    1    2    0    0  0.00000000000E+00  0.00000000000E+00 -0.11495114885E+03  0.14648045995E+03  0.90789638860E+02 0.  0.
        -11    1    3    3    0    0  0.37643653023E+02 -0.24742239620E+02 -0.66525985218E+02  0.80342577404E+02  0.51100000000E-03 0. -1.
         11    1    3    3    0    0 -0.37643653023E+02  0.24742239620E+02 -0.48425163635E+02  0.66137882546E+02  0.51100000000E-03 0.  1.
<mgrwt>
<rscale>  0 0.90789639E+02</rscale>
<asrwt>0</asrwt>
<pdfrwt beam="2">  1        1 0.20110123E-01 0.90789639E+02</pdfrwt>
<pdfrwt beam="1">  1       -1 0.24253317E-02 0.90789639E+02</pdfrwt>
<totfact> 0.11064038E+05</totfact>
</mgrwt>
</event>
<event>
 5   1  0.1357339E+00  0.9090883E+02  0.7818608E-02  0.1300666E+00
          1   -1    0    0  501    0  0.00000000000E+00  0.00000000000E+00  0.27629751349E+03  0.27629751353E+03  0.46700000000E-02 0. -1.
         -1   -1    0    0    0  501 -0.00000000000E+00 -0.00000000000E+00 -0.74778213289E+01  0.74778227872E+01  0.46700000000E-02 0.  1.
         23    2    1    2    0    0  0.00000000000E+00  0.00000000000E+00  0.26881969216E+03  0.28377533631E+03  0.90908825798E+02 0.  0.
        -11    1    3    3    0    0 -0.27860187438E+02  0.28246867405E+02  0.20365088047E+03  0.20747953316E+03  0.51100000000E-03 0. -1.
         11    1    3    3    0    0  0.27860187438E+02 -0.28246867405E+02  0.65168811687E+02  0.76295803156E+02  0.51100000000E-03 0.  1.
<mgrwt>
<rscale>  0 0.90908826E+02</rscale>
<asrwt>0</asrwt>
<pdfrwt beam="1">  1        1 0.42507314E-01 0.90908826E+02</pdfrwt>
<pdfrwt beam="2">  1       -1 0.11504341E-02 0.90908826E+02</pdfrwt>
<totfact> 0.12710105E+05</totfact>
</mgrwt>
</event>
<event>
 5   1  0.1357339E+00  0.9145812E+02  0.7818608E-02  0.1299359E+00
          1   -1    0    0  501    0  0.00000000000E+00  0.00000000000E+00  0.29713559824E+03  0.29713559827E+03  0.46700000000E-02 0. -1.
         -1   -1    0    0    0  501 -0.00000000000E+00 -0.00000000000E+00 -0.70376848711E+01  0.70376864206E+01  0.46700000000E-02 0.  1.
         23    2    1    2    0    0  0.00000000000E+00  0.00000000000E+00  0.29009791336E+03  0.30417328469E+03  0.91458120375E+02 0.  0.
        -11    1    3    3    0    0  0.43655744886E+02 -0.13310298611E+02  0.15454872172E+03  0.16114681348E+03  0.51100000000E-03 0.  1.
         11    1    3    3    0    0 -0.43655744886E+02  0.13310298611E+02  0.13554919165E+03  0.14302647121E+03  0.51100000000E-03 0. -1.
<mgrwt>
<rscale>  0 0.91458120E+02</rscale>
<asrwt>0</asrwt>
<pdfrwt beam="1">  1        1 0.45713173E-01 0.91458120E+02</pdfrwt>
<pdfrwt beam="2">  1       -1 0.10827208E-02 0.91458120E+02</pdfrwt>
<totfact> 0.12684117E+05</totfact>
</mgrwt>
</event>
<event>
 5   1  0.1357339E+00  0.1260555E+03  0.7818608E-02  0.1233429E+00
         -1   -1    0    0    0  501 -0.00000000000E+00  0.00000000000E+00  0.16125736169E+02  0.16125736845E+02  0.46700000000E-02 0.  1.
          1   -1    0    0  501    0  0.00000000000E+00 -0.00000000000E+00 -0.24634520013E+03  0.24634520017E+03  0.46700000000E-02 0. -1.
         23    2    1    2    0    0  0.00000000000E+00  0.00000000000E+00 -0.23021946396E+03  0.26247093702E+03  0.12605550838E+03 0.  0.
        -11    1    3    3    0    0 -0.31323323461E+02  0.27163285411E+02 -0.16266149778E+02  0.44537425788E+02  0.51100000000E-03 0.  1.
         11    1    3    3    0    0  0.31323323461E+02 -0.27163285411E+02 -0.21395331418E+03  0.21793351123E+03  0.51100000000E-03 0. -1.
<mgrwt>
<rscale>  0 0.12605551E+03</rscale>
<asrwt>0</asrwt>
<pdfrwt beam="2">  1        1 0.37899259E-01 0.12605551E+03</pdfrwt>
<pdfrwt beam="1">  1       -1 0.24808827E-02 0.12605551E+03</pdfrwt>
<totfact> 0.51076672E+04</totfact>
</mgrwt>
</event>
<event>
 5   1  0.1357339E+00  0.9109151E+02  0.7818608E-02  0.1300230E+00
         -1   -1    0    0    0  501 -0.00000000000E+00  0.00000000000E+00  0.24637180555E+02  0.24637180997E+02  0.46700000000E-02 0.  1.
          1   -1    0    0  501    0  0.00000000000E+00 -0.00000000000E+00 -0.84198592820E+02  0.84198592950E+02  0.46700000000E-02 0. -1.
         23    2    1    2    0    0  0.00000000000E+00  0.00000000000E+00 -0.59561412266E+02  0.10883577395E+03  0.91091513653E+02 0.  0.
        -11    1    3    3    0    0  0.15948908549E+02 -0.35453763229E+02 -0.58132360034E+02  0.69933599181E+02  0.51100000000E-03 0. -1.
         11    1    3    3    0    0 -0.15948908549E+02  0.35453763229E+02 -0.14290522313E+01  0.38902174766E+02  0.51100000000E-03 0.  1.
<mgrwt>
<rscale>  0 0.91091514E+02</rscale>
<asrwt>0</asrwt>
<pdfrwt beam="2">  1        1 0.12953630E-01 0.91091514E+02</pdfrwt>
<pdfrwt beam="1">  1       -1 0.37903356E-02 0.91091514E+02</pdfrwt>
<totfact> 0.10182642E+05</totfact>
</mgrwt>
</event>
<event>
 5   1  0.1357339E+00  0.8873938E+02  0.7818608E-02  0.1305933E+00
          1   -1    0    0  501    0  0.00000000000E+00  0.00000000000E+00  0.12791784778E+02  0.12791785631E+02  0.46700000000E-02 0. -1.
         -1   -1    0    0    0  501 -0.00000000000E+00 -0.00000000000E+00 -0.15390107155E+03  0.15390107162E+03  0.46700000000E-02 0.  1.
         23    2    1    2    0    0  0.00000000000E+00  0.00000000000E+00 -0.14110928677E+03  0.16669285725E+03  0.88739381591E+02 0.  0.
        -11    1    3    3    0    0  0.42163418081E+02 -0.12358738290E+02 -0.82161183305E+02  0.93171628078E+02  0.51100000000E-03 0.  1.
         11    1    3    3    0    0 -0.42163418081E+02  0.12358738290E+02 -0.58948103464E+02  0.73521229170E+02  0.51100000000E-03 0. -1.
<mgrwt>
<rscale>  0 0.88739382E+02</rscale>
<asrwt>0</asrwt>
<pdfrwt beam="1">  1        1 0.19679671E-02 0.88739382E+02</pdfrwt>
<pdfrwt beam="2">  1       -1 0.23677087E-01 0.88739382E+02</pdfrwt>
<totfact> 0.79746691E+04</totfact>
</mgrwt>
</event>
<event>
 5   1  0.1357339E+00  0.9153591E+02  0.7818608E-02  0.1299174E+00
         -1   -1    0    0    0  501 -0.00000000000E+00  0.00000000000E+00  0.37731988908E+02  0.37731989197E+02  0.46700000000E-02 0.  1.
          1   -1    0    0  501    0  0.00000000000E+00 -0.00000000000E+00 -0.55515374768E+02  0.55515374964E+02  0.46700000000E-02 0. -1.
         23    2    1    2    0    0  0.00000000000E+00  0.00000000000E+00 -0.17783385860E+02  0.93247364161E+02  0.91535906126E+02 0.  0.
        -11    1    3    3    0    0 -0.15368099090E+02 -0.41997390646E+02 -0.18807454231E+02  0.48514736170E+02  0.51100000000E-03 0.  1.
         11    1    3    3    0    0  0.15368099090E+02  0.41997390646E+02  0.10240683708E+01  0.44732627991E+02  0.51100000000E-03 0. -1.
<mgrwt>
<rscale>  0 0.91535906E+02</rscale>
<asrwt>0</asrwt>
<pdfrwt beam="2">  1        1 0.85408269E-02 0.91535906E+02</pdfrwt>
<pdfrwt beam="1">  1       -1 0.58049214E-02 0.91535906E+02</pdfrwt>
<totfact> 0.94211328E+04</totfact>
</mgrwt>
</event>
<event>
 5   1  0.1357339E+00  0.9321039E+02  0.7818608E-02  0.1295258E+00
          1   -1    0    0  501    0  0.00000000000E+00  0.00000000000E+00  0.21220966291E+02  0.21220966805E+02  0.46700000000E-02 0. -1.
         -1   -1    0    0    0  501 -0.00000000000E+00 -0.00000000000E+00 -0.10235368614E+03  0.10235368625E+03  0.46700000000E-02 0.  1.
         23    2    1    2    0    0  0.00000000000E+00  0.00000000000E+00 -0.81132719848E+02  0.12357465305E+03  0.93210389156E+02 0.  0.
        -11    1    3    3    0    0  0.28078503928E+02  0.19967391726E+02  0.10410880455E+01  0.34470030167E+02  0.51100000000E-03 0. -1.
         11    1    3    3    0    0 -0.28078503928E+02 -0.19967391726E+02 -0.82173807894E+02  0.89104622883E+02  0.51100000000E-03 0.  1.
<mgrwt>
<rscale>  0 0.93210389E+02</rscale>
<asrwt>0</asrwt>
<pdfrwt beam="1">  1        1 0.32647641E-02 0.93210389E+02</pdfrwt>
<pdfrwt beam="2">  1       -1 0.15746721E-01 0.93210389E+02</pdfrwt>
<totfact> 0.76535375E+04</totfact>
</mgrwt>
</event>
<event>
 5   1  0.1357339E+00  0.9127235E+02  0.7818608E-02  0.1299799E+00
          1   -1    0    0  501    0  0.00000000000E+00  0.00000000000E+00  0.19847409083E+02  0.19847409632E+02  0.46700000000E-02 0. -1.
         -1   -1    0    0    0  501 -0.00000000000E+00 -0.00000000000E+00 -0.10493361189E+03  0.10493361200E+03  0.46700000000E-02 0.  1.
         23    2    1    2    0    0  0.00000000000E+00  0.00000000000E+00 -0.85086202810E+02  0.12478102163E+03  0.91272347675E+02 0.  0.
        -11    1    3    3    0    0 -0.34160756898E+02 -0.28251729340E+02 -0.27721081064E+02  0.52283609842E+02  0.51100000000E-03 0.  1.
         11    1    3    3    0    0  0.34160756898E+02  0.28251729340E+02 -0.57365121746E+02  0.72497411786E+02  0.51100000000E-03 0. -1.
<mgrwt>
<rscale>  0 0.91272348E+02</rscale>
<asrwt>0</asrwt>
<pdfrwt beam="1">  1        1 0.30534477E-02 0.91272348E+02</pdfrwt>
<pdfrwt beam="2">  1       -1 0.16143632E-01 0.91272348E+02</pdfrwt>
<totfact> 0.80419051E+04</totfact>
</mgrwt>
</event>
<event>
 5   1  0.1357339E+00  0.9148264E+02  0.7818608E-02  0.1299300E+00
          1   -1    0    0  501    0  0.00000000000E+00  0.00000000000E+00  0.28552865807E+02  0.28552866189E+02  0.46700000000E-02 0. -1.
         -1   -1    0    0    0  501 -0.00000000000E+00 -0.00000000000E+00 -0.73277003128E+02  0.73277003277E+02  0.46700000000E-02 0.  1.
         23    2    1    2    0    0  0.00000000000E+00  0.00000000000E+00 -0.44724137321E+02  0.10182986947E+03  0.91482642378E+02 0.  0.
        -11    1    3    3    0    0  0.17872487610E+02 -0.35704863135E+02  0.24780412050E+01  0.40005046598E+02  0.51100000000E-03 0. -1.
         11    1    3    3    0    0 -0.17872487610E+02  0.35704863135E+02 -0.47202178526E+02  0.61824822868E+02  0.51100000000E-03 0.  1.
<mgrwt>
<rscale>  0 0.91482642E+02</rscale>
<asrwt>0</asrwt>
<pdfrwt beam="1">  1        1 0.43927487E-02 0.91482642E+02</pdfrwt>
<pdfrwt beam="2">  1       -1 0.11273385E-01 0.91482642E+02</pdfrwt>
<totfact> 0.85164853E+04</totfact>
</mgrwt>
</event>
<event>
 5   1  0.1357339E+00  0.9127748E+02  0.7818608E-02  0.1299787E+00
         -1   -1    0    0    0  501 -0.00000000000E+00  0.00000000000E+00  0.17312405319E+02  0.17312405949E+02  0.46700000000E-02 0.  1.
          1   -1    0    0  501    0  0.00000000000E+00 -0.00000000000E+00 -0.12031224643E+03  0.12031224652E+03  0.46700000000E-02 0. -1.
         23    2    1    2    0    0  0.00000000000E+00  0.00000000000E+00 -0.10299984111E+03  0.13762465247E+03  0.91277476401E+02 0.  0.
        -11    1    3    3    0    0  0.28360156773E+02 -0.21387467592E+02 -0.94706483518E+02  0.10114860495E+03  0.51100000000E-03 0. -1.
         11    1    3    3    0    0 -0.28360156773E+02  0.21387467592E+02 -0.82933575897E+01  0.36476047518E+02  0.51100000000E-03 0.  1.
<mgrwt>
<rscale>  0 0.91277476E+02</rscale>
<asrwt>0</asrwt>
<pdfrwt beam="2">  1        1 0.18509576E-01 0.91277476E+02</pdfrwt>
<pdfrwt beam="1">  1       -1 0.26634471E-02 0.91277476E+02</pdfrwt>
<totfact> 0.10746513E+05</totfact>
</mgrwt>
</event>
<event>
 5   1  0.1357339E+00  0.9181975E+02  0.7818608E-02  0.1298504E+00
         -1   -1    0    0    0  501 -0.00000000000E+00  0.00000000000E+00  0.61366655989E+01  0.61366673758E+01  0.46700000000E-02 0.  1.
          1   -1    0    0  501    0  0.00000000000E+00 -0.00000000000E+00 -0.34346275731E+03  0.34346275734E+03  0.46700000000E-02 0. -1.
         23    2    1    2    0    0  0.00000000000E+00  0.00000000000E+00 -0.33732609171E+03  0.34959942472E+03  0.91819745229E+02 0.  0.
        -11    1    3    3    0    0 -0.30562471197E+02  0.34150399644E+02 -0.15830427939E+03  0.16480460950E+03  0.51100000000E-03 0.  1.
         11    1    3    3    0    0  0.30562471197E+02 -0.34150399644E+02 -0.17902181233E+03  0.18479481522E+03  0.51100000000E-03 0. -1.
<mgrwt>
<rscale>  0 0.91819745E+02</rscale>
<asrwt>0</asrwt>
<pdfrwt beam="2">  1        1 0.52840410E-01 0.91819745E+02</pdfrwt>
<pdfrwt beam="1">  1       -1 0.94410280E-03 0.91819745E+02</pdfrwt>
<totfact> 0.12895219E+05</totfact>
</mgrwt>
</event>
<event>
 5   1  0.1357339E+00  0.9484275E+02  0.7818608E-02  0.1291531E+00
          1   -1    0    0  501    0  0.00000000000E+00  0.00000000000E+00  0.26471210541E+02  0.26471210953E+02  0.46700000000E-02 0. -1.
         -1   -1    0    0    0  501 -0.00000000000E+00 -0.00000000000E+00 -0.84952174480E+02  0.84952174608E+02  0.46700000000E-02 0.  1.
         23    2    1    2    0    0  0.00000000000E+00  0.00000000000E+00 -0.58480963939E+02  0.11142338556E+03  0.94842752525E+02 0.  0.
        -11    1    3    3    0    0 -0.20054772265E+02 -0.34938957544E+02 -0.58631294330E+02  0.71137566166E+02  0.51100000000E-03 0.  1.
         11    1    3    3    0    0  0.20054772265E+02  0.34938957544E+02  0.15033039134E+00  0.40285819395E+02  0.51100000000E-03 0. -1.
<mgrwt>
<rscale>  0 0.94842753E+02</rscale>
<asrwt>0</asrwt>
<pdfrwt beam="1">  1        1 0.40724940E-02 0.94842753E+02</pdfrwt>
<pdfrwt beam="2">  1       -1 0.13069565E-01 0.94842753E+02</pdfrwt>
<totfact> 0.75719851E+04</totfact>
</mgrwt>
</event>
<event>
 5   1  0.1357339E+00  0.9042555E+02  0.7818608E-02  0.1301824E+00
         -1   -1    0    0    0  501 -0.00000000000E+00  0.00000000000E+00  0.20511575748E+03  0.20511575753E+03  0.46700000000E-02 0.  1.
          1   -1    0    0  501    0  0.00000000000E+00 -0.00000000000E+00 -0.99660558680E+01  0.99660569621E+01  0.46700000000E-02 0. -1.
         23    2    1    2    0    0  0.00000000000E+00  0.00000000000E+00  0.19514970161E+03  0.21508181450E+03  0.90425554393E+02 0.  0.
        -11    1    3    3    0    0 -0.24783528161E+02 -0.36488936225E+02  0.12118483094E+03  0.12896289771E+03  0.51100000000E-03 0.  1.
         11    1    3    3    0    0  0.24783528161E+02  0.36488936225E+02  0.73964870672E+02  0.86118916788E+02  0.51100000000E-03 0. -1.
<mgrwt>
<rscale>  0 0.90425554E+02</rscale>
<asrwt>0</asrwt>
<pdfrwt beam="2">  1        1 0.15332395E-02 0.90425554E+02</pdfrwt>
<pdfrwt beam="1">  1       -1 0.31556269E-01 0.90425554E+02</pdfrwt>
<totfact> 0.70421316E+04</totfact>
</mgrwt>
</event>
<event>
 5   1  0.1357339E+00  0.9197125E+02  0.7818608E-02  0.1298147E+00
         -1   -1    0    0    0  501 -0.00000000000E+00  0.00000000000E+00  0.10589801743E+02  0.10589802773E+02  0.46700000000E-02 0.  1.
          1   -1    0    0  501    0  0.00000000000E+00 -0.00000000000E+00 -0.19968999374E+03  0.19968999379E+03  0.46700000000E-02 0. -1.
         23    2    1    2    0    0  0.00000000000E+00  0.00000000000E+00 -0.18910019200E+03  0.21027979657E+03  0.91971246763E+02 0.  0.
        -11    1    3    3    0    0  0.26152733339E+01 -0.45657231403E+02 -0.10557576117E+03  0.11505504674E+03  0.51100000000E-03 0.  1.
         11    1    3    3    0    0 -0.26152733339E+01  0.45657231403E+02 -0.83524430828E+02  0.95224749825E+02  0.51100000000E-03 0. -1.
<mgrwt>
<rscale>  0 0.91971247E+02</rscale>
<asrwt>0</asrwt>
<pdfrwt beam="2">  1        1 0.30721535E-01 0.91971247E+02</pdfrwt>
<pdfrwt beam="1">  1       -1 0.16292005E-02 0.91971247E+02</pdfrwt>
<totfact> 0.11564481E+05</totfact>
</mgrwt>
</event>
<event>
 5   1  0.1357339E+00  0.8752686E+02  0.7818608E-02  0.1308954E+00
         -1   -1    0    0    0  501 -0.00000000000E+00  0.00000000000E+00  0.20208750374E+02  0.20208750913E+02  0.46700000000E-02 0.  1.
          1   -1    0    0  501    0  0.00000000000E+00 -0.00000000000E+00 -0.94772697491E+02  0.94772697606E+02  0.46700000000E-02 0. -1.
         23    2    1    2    0    0  0.00000000000E+00  0.00000000000E+00 -0.74563947117E+02  0.11498144852E+03  0.87526860413E+02 0.  0.
        -11    1    3    3    0    0  0.14924304775E+02  0.84616383280E+01 -0.90170932916E+02  0.91788514202E+02  0.51100000000E-03 0. -1.
         11    1    3    3    0    0 -0.14924304775E+02 -0.84616383280E+01  0.15606985799E+02  0.23192934316E+02  0.51100000000E-03 0.  1.
<mgrwt>
<rscale>  0 0.87526860E+02</rscale>
<asrwt>0</asrwt>
<pdfrwt beam="2">  1        1 0.14580415E-01 0.87526860E+02</pdfrwt>
<pdfrwt beam="1">  1       -1 0.31090386E-02 0.87526860E+02</pdfrwt>
<totfact> 0.11570191E+05</totfact>
</mgrwt>
</event>
<event>
 5   1  0.1357339E+00  0.8727376E+02  0.7818608E-02  0.1309591E+00
          1   -1    0    0  501    0  0.00000000000E+00  0.00000000000E+00  0.46263325666E+02  0.46263325902E+02  0.46700000000E-02 0. -1.
         -1   -1    0    0    0  501 -0.00000000000E+00 -0.00000000000E+00 -0.41159537916E+02  0.41159538181E+02  0.46700000000E-02 0.  1.
         23    2    1    2    0    0  0.00000000000E+00  0.00000000000E+00  0.51037877507E+01  0.87422864083E+02  0.87273756165E+02 0.  0.
        -11    1    3    3    0    0  0.15889221562E+02  0.39779890683E+02 -0.57851897289E+01  0.43224709196E+02  0.51100000000E-03 0. -1.
         11    1    3    3    0    0 -0.15889221562E+02 -0.39779890683E+02  0.10888977480E+02  0.44198154887E+02  0.51100000000E-03 0.  1.
<mgrwt>
<rscale>  0 0.87273756E+02</rscale>
<asrwt>0</asrwt>
<pdfrwt beam="1">  1        1 0.71174348E-02 0.87273756E+02</pdfrwt>
<pdfrwt beam="2">  1       -1 0.63322366E-02 0.87273756E+02</pdfrwt>
<totfact> 0.10472126E+05</totfact>
</mgrwt>
</event>
<event>
 5   1  0.1357339E+00  0.8061060E+02  0.7818608E-02  0.1327328E+00
         -1   -1    0    0    0  501 -0.00000000000E+00  0.00000000000E+00  0.11044454644E+03  0.11044454654E+03  0.46700000000E-02 0.  1.
          1   -1    0    0  501    0  0.00000000000E+00 -0.00000000000E+00 -0.14708895736E+02  0.14708896478E+02  0.46700000000E-02 0. -1.
         23    2    1    2    0    0  0.00000000000E+00  0.00000000000E+00  0.95735650705E+02  0.12515344302E+03  0.80610604037E+02 0.  0.
        -11    1    3    3    0    0 -0.37626324323E+02 -0.84888886205E+01  0.29714337741E+02  0.48690280136E+02  0.51100000000E-03 0. -1.
         11    1    3    3    0    0  0.37626324323E+02  0.84888886205E+01  0.66021312964E+02  0.76463162882E+02  0.51100000000E-03 0.  1.
<mgrwt>
<rscale>  0 0.80610604E+02</rscale>
<asrwt>0</asrwt>
<pdfrwt beam="2">  1        1 0.22629070E-02 0.80610604E+02</pdfrwt>
<pdfrwt beam="1">  1       -1 0.16991469E-01 0.80610604E+02</pdfrwt>
<totfact> 0.10961322E+05</totfact>
</mgrwt>
</event>
<event>
 5   1  0.1357339E+00  0.9065017E+02  0.7818608E-02  0.1301285E+00
         -1   -1    0    0    0  501 -0.00000000000E+00  0.00000000000E+00  0.30922944186E+02  0.30922944538E+02  0.46700000000E-02 0.  1.
          1   -1    0    0  501    0  0.00000000000E+00 -0.00000000000E+00 -0.66434926257E+02  0.66434926421E+02  0.46700000000E-02 0. -1.
         23    2    1    2    0    0  0.00000000000E+00  0.00000000000E+00 -0.35511982072E+02  0.97357870960E+02  0.90650174667E+02 0.  0.
        -11    1    3    3    0    0 -0.17107444581E+02  0.29488540694E+02 -0.49834578835E+02  0.60379830575E+02  0.51100000000E-03 0. -1.
         11    1    3    3    0    0  0.17107444581E+02 -0.29488540694E+02  0.14322596764E+02  0.36978040384E+02  0.51100000000E-03 0.  1.
<mgrwt>
<rscale>  0 0.90650175E+02</rscale>
<asrwt>0</asrwt>
<pdfrwt beam="2">  1        1 0.10220758E-01 0.90650175E+02</pdfrwt>
<pdfrwt beam="1">  1       -1 0.47573761E-02 0.90650175E+02</pdfrwt>
<totfact> 0.99455121E+04</totfact>
</mgrwt>
</event>
<event>
 5   1  0.1357339E+00  0.9134651E+02  0.7818608E-02  0.1299623E+00
         -1   -1    0    0    0  501 -0.00000000000E+00  0.00000000000E+00  0.25485291865E+02  0.25485292293E+02  0.46700000000E-02 0.  1.
          1   -1    0    0  501    0  0.00000000000E+00 -0.00000000000E+00 -0.81852944419E+02  0.81852944552E+02  0.46700000000E-02 0. -1.
         23    2    1    2    0    0  0.00000000000E+00  0.00000000000E+00 -0.56367652553E+02  0.10733823684E+03  0.91346509701E+02 0.  0.
        -11    1    3    3    0    0 -0.17462643744E+02  0.25479508248E+02 -0.67717387931E+02  0.74429791721E+02  0.51100000000E-03 0. -1.
         11    1    3    3    0    0  0.17462643744E+02 -0.25479508248E+02  0.11349735378E+02  0.32908445124E+02  0.51100000000E-03 0.  1.
<mgrwt>
<rscale>  0 0.91346510E+02</rscale>
<asrwt>0</asrwt>
<pdfrwt beam="2">  1        1 0.12592761E-01 0.91346510E+02</pdfrwt>
<pdfrwt beam="1">  1       -1 0.39208142E-02 0.91346510E+02</pdfrwt>
<totfact> 0.10059495E+05</totfact>
</mgrwt>
</event>
<event>
 5   1  0.1357339E+00  0.9300208E+02  0.7818608E-02  0.1295740E+00
         -1   -1    0    0    0  501 -0.00000000000E+00  0.00000000000E+00  0.70008927907E+02  0.70008928062E+02  0.46700000000E-02 0.  1.
          1   -1    0    0  501    0  0.00000000000E+00 -0.00000000000E+00 -0.30886729910E+02  0.30886730263E+02  0.46700000000E-02 0. -1.
         23    2    1    2    0    0  0.00000000000E+00  0.00000000000E+00  0.39122197997E+02  0.10089565833E+03  0.93002083271E+02 0.  0.
        -11    1    3    3    0    0 -0.45560880683E+02 -0.16142155103E+01  0.96211706930E+01  0.46593631175E+02  0.51100000000E-03 0.  1.
         11    1    3    3    0    0  0.45560880683E+02  0.16142155103E+01  0.29501027304E+02  0.54302027150E+02  0.51100000000E-03 0. -1.
<mgrwt>
<rscale>  0 0.93002083E+02</rscale>
<asrwt>0</asrwt>
<pdfrwt beam="2">  1        1 0.47518047E-02 0.93002083E+02</pdfrwt>
<pdfrwt beam="1">  1       -1 0.10770604E-01 0.93002083E+02</pdfrwt>
<totfact> 0.82268564E+04</totfact>
</mgrwt>
</event>
<event>
 5   1  0.1357339E+00  0.8942086E+02  0.7818608E-02  0.1304260E+00
         -1   -1    0    0    0  501 -0.00000000000E+00  0.00000000000E+00  0.29986458136E+03  0.29986458140E+03  0.46700000000E-02 0.  1.
          1   -1    0    0  501    0  0.00000000000E+00 -0.00000000000E+00 -0.66664163335E+01  0.66664179693E+01  0.46700000000E-02 0. -1.
         23    2    1    2    0    0  0.00000000000E+00  0.00000000000E+00  0.29319816503E+03  0.30653099937E+03  0.89420856612E+02 0.  0.
        -11    1    3    3    0    0  0.23074118093E+02 -0.37984680261E+02  0.12988570501E+03  0.13727908518E+03  0.51100000000E-03 0. -1.
         11    1    3    3    0    0 -0.23074118093E+02  0.37984680261E+02  0.16331246002E+03  0.16925191419E+03  0.51100000000E-03 0.  1.
<mgrwt>
<rscale>  0 0.89420857E+02</rscale>
<asrwt>0</asrwt>
<pdfrwt beam="2">  1        1 0.10256023E-02 0.89420857E+02</pdfrwt>
<pdfrwt beam="1">  1       -1 0.46133029E-01 0.89420857E+02</pdfrwt>
<totfact> 0.63754722E+04</totfact>
</mgrwt>
</event>
<event>
 5   1  0.1357339E+00  0.8989271E+02  0.7818608E-02  0.1303112E+00
          1   -1    0    0  501    0  0.00000000000E+00  0.00000000000E+00  0.17830856389E+02  0.17830857001E+02  0.46700000000E-02 0. -1.
         -1   -1    0    0    0  501 -0.00000000000E+00 -0.00000000000E+00 -0.11329656695E+03  0.11329656704E+03  0.46700000000E-02 0.  1.
         23    2    1    2    0    0  0.00000000000E+00  0.00000000000E+00 -0.95465710558E+02  0.13112742404E+03  0.89892710739E+02 0.  0.
        -11    1    3    3    0    0 -0.27804933565E+02 -0.26810575915E+02 -0.81259513309E+02  0.89972383624E+02  0.51100000000E-03 0.  1.
         11    1    3    3    0    0  0.27804933565E+02  0.26810575915E+02 -0.14206197249E+02  0.41155040420E+02  0.51100000000E-03 0. -1.
<mgrwt>
<rscale>  0 0.89892711E+02</rscale>
<asrwt>0</asrwt>
<pdfrwt beam="1">  1        1 0.27432088E-02 0.89892711E+02</pdfrwt>
<pdfrwt beam="2">  1       -1 0.17430241E-01 0.89892711E+02</pdfrwt>
<totfact> 0.82405078E+04</totfact>
</mgrwt>
</event>
<event>
 5   1  0.1357339E+00  0.9178137E+02  0.7818608E-02  0.1298594E+00
          1   -1    0    0  501    0  0.00000000000E+00  0.00000000000E+00  0.12698869346E+02  0.12698870205E+02  0.46700000000E-02 0. -1.
         -1   -1    0    0    0  501 -0.00000000000E+00 -0.00000000000E+00 -0.16583799441E+03  0.16583799447E+03  0.46700000000E-02 0.  1.
         23    2    1    2    0    0  0.00000000000E+00  0.00000000000E+00 -0.15313912506E+03  0.17853686468E+03  0.91781372972E+02 0.  0.
        -11    1    3    3    0    0 -0.24316693298E+01  0.45347931608E+02 -0.89415103543E+02  0.10028663250E+03  0.51100000000E-03 0.  1.
         11    1    3    3    0    0  0.24316693298E+01 -0.45347931608E+02 -0.63724021520E+02  0.78250232177E+02  0.51100000000E-03 0. -1.
<mgrwt>
<rscale>  0 0.91781373E+02</rscale>
<asrwt>0</asrwt>
<pdfrwt beam="1">  1        1 0.19536724E-02 0.91781373E+02</pdfrwt>
<pdfrwt beam="2">  1       -1 0.25513536E-01 0.91781373E+02</pdfrwt>
<totfact> 0.71749153E+04</totfact>
</mgrwt>
</event>
<event>
 5   1  0.1357339E+00  0.9829693E+02  0.7818608E-02  0.1283919E+00
          1   -1    0    0  501    0  0.00000000000E+00  0.00000000000E+00  0.91599988815E+02  0.91599988934E+02  0.46700000000E-02 0. -1.
         -1   -1    0    0    0  501 -0.00000000000E+00 -0.00000000000E+00 -0.26370870994E+02  0.26370871408E+02  0.46700000000E-02 0.  1.
         23    2    1    2    0    0  0.00000000000E+00  0.00000000000E+00  0.65229117821E+02  0.11797086034E+03  0.98296928122E+02 0.  0.
        -11    1    3    3    0    0 -0.23004954378E+02 -0.22931651905E+02  0.76881687277E+02  0.83461862092E+02  0.51100000000E-03 0. -1.
         11    1    3    3    0    0  0.23004954378E+02  0.22931651905E+02 -0.11652569456E+02  0.34508998250E+02  0.51100000000E-03 0.  1.
<mgrwt>
<rscale>  0 0.98296928E+02</rscale>
<asrwt>0</asrwt>
<pdfrwt beam="1">  1        1 0.14092306E-01 0.98296928E+02</pdfrwt>
<pdfrwt beam="2">  1       -1 0.40570571E-02 0.98296928E+02</pdfrwt>
<totfact> 0.83729999E+04</totfact>
</mgrwt>
</event>
<event>
 5   1  0.1357339E+00  0.9259204E+02  0.7818608E-02  0.1296693E+00
         -1   -1    0    0    0  501 -0.00000000000E+00  0.00000000000E+00  0.18677644595E+02  0.18677645179E+02  0.46700000000E-02 0.  1.
          1   -1    0    0  501    0  0.00000000000E+00 -0.00000000000E+00 -0.11475330482E+03  0.11475330492E+03  0.46700000000E-02 0. -1.
         23    2    1    2    0    0  0.00000000000E+00  0.00000000000E+00 -0.96075660226E+02  0.13343095009E+03  0.92592040454E+02 0.  0.
        -11    1    3    3    0    0  0.33130543195E+02  0.31182937718E+02 -0.35699016778E+02  0.57831032295E+02  0.51100000000E-03 0.  1.
         11    1    3    3    0    0 -0.33130543195E+02 -0.31182937718E+02 -0.60376643448E+02  0.75599917800E+02  0.51100000000E-03 0. -1.
<mgrwt>
<rscale>  0 0.92592040E+02</rscale>
<asrwt>0</asrwt>
<pdfrwt beam="2">  1        1 0.17654354E-01 0.92592040E+02</pdfrwt>
<pdfrwt beam="1">  1       -1 0.28734839E-02 0.92592040E+02</pdfrwt>
<totfact> 0.10252295E+05</totfact>
</mgrwt>
</event>
<event>
 5   1  0.1357339E+00  0.9195543E+02  0.7818608E-02  0.1298184E+00
         -1   -1    0    0    0  501 -0.00000000000E+00  0.00000000000E+00  0.80916839739E+01  0.80916853215E+01  0.46700000000E-02 0.  1.
          1   -1    0    0  501    0  0.00000000000E+00 -0.00000000000E+00 -0.26124969970E+03  0.26124969974E+03  0.46700000000E-02 0. -1.
         23    2    1    2    0    0  0.00000000000E+00  0.00000000000E+00 -0.25315801572E+03  0.26934138506E+03  0.91955428232E+02 0.  0.
        -11    1    3    3    0    0  0.25206000745E+00  0.38226428206E+02 -0.51752033352E+02  0.64339694622E+02  0.51100000000E-03 0.  1.
         11    1    3    3    0    0 -0.25206000745E+00 -0.38226428206E+02 -0.20140598237E+03  0.20500169044E+03  0.51100000000E-03 0. -1.
<mgrwt>
<rscale>  0 0.91955428E+02</rscale>
<asrwt>0</asrwt>
<pdfrwt beam="2">  1        1 0.40192255E-01 0.91955428E+02</pdfrwt>
<pdfrwt beam="1">  1       -1 0.12448748E-02 0.91955428E+02</pdfrwt>
<totfact> 0.12193393E+05</totfact>
</mgrwt>
</event>
<event>
 5   1  0.1357339E+00  0.8600000E+02  0.7818608E-02  0.1312838E+00
         -1   -1    0    0    0  501 -0.00000000000E+00  0.00000000000E+00  0.99988890125E+02  0.99988890234E+02  0.46700000000E-02 0.  1.
          1   -1    0    0  501    0  0.00000000000E+00 -0.00000000000E+00 -0.18492053768E+02  0.18492054357E+02  0.46700000000E-02 0. -1.
         23    2    1    2    0    0  0.00000000000E+00  0.00000000000E+00  0.81496836358E+02  0.11848094459E+03  0.85999999390E+02 0.  0.
        -11    1    3    3    0    0 -0.86314928454E+01 -0.41915862370E+02  0.34975639044E+02  0.55269679877E+02  0.51100000000E-03 0.  1.
         11    1    3    3    0    0  0.86314928454E+01  0.41915862370E+02  0.46521197314E+02  0.63211264714E+02  0.51100000000E-03 0. -1.
<mgrwt>
<rscale>  0 0.85999999E+02</rscale>
<asrwt>0</asrwt>
<pdfrwt beam="2">  1        1 0.28449313E-02 0.85999999E+02</pdfrwt>
<pdfrwt beam="1">  1       -1 0.15382907E-01 0.85999999E+02</pdfrwt>
<totfact> 0.94564589E+04</totfact>
</mgrwt>
</event>
<event>
 5   1  0.1357339E+00  0.9363035E+02  0.7818608E-02  0.1294291E+00
         -1   -1    0    0    0  501 -0.00000000000E+00  0.00000000000E+00  0.10927695077E+03  0.10927695087E+03  0.46700000000E-02 0.  1.
          1   -1    0    0  501    0  0.00000000000E+00 -0.00000000000E+00 -0.20056017092E+02  0.20056017635E+02  0.46700000000E-02 0. -1.
         23    2    1    2    0    0  0.00000000000E+00  0.00000000000E+00  0.89220933676E+02  0.12933296850E+03  0.93630346233E+02 0.  0.
        -11    1    3    3    0    0  0.28213570535E+02  0.10370553432E+02 -0.49651927562E+01  0.30466491103E+02  0.51100000000E-03 0. -1.
         11    1    3    3    0    0 -0.28213570535E+02 -0.10370553432E+02  0.94186126432E+02  0.98866477399E+02  0.51100000000E-03 0.  1.
<mgrwt>
<rscale>  0 0.93630346E+02</rscale>
<asrwt>0</asrwt>
<pdfrwt beam="2">  1        1 0.30855411E-02 0.93630346E+02</pdfrwt>
<pdfrwt beam="1">  1       -1 0.16811839E-01 0.93630346E+02</pdfrwt>
<totfact> 0.74704263E+04</totfact>
</mgrwt>
</event>
<event>
 5   1  0.1357339E+00  0.9531126E+02  0.7818608E-02  0.1290477E+00
         -1   -1    0    0    0  501 -0.00000000000E+00  0.00000000000E+00  0.95595049534E+02  0.95595049648E+02  0.46700000000E-02 0.  1.
          1   -1    0    0  501    0  0.00000000000E+00 -0.00000000000E+00 -0.23757078363E+02  0.23757078822E+02  0.46700000000E-02 0. -1.
         23    2    1    2    0    0  0.00000000000E+00  0.00000000000E+00  0.71837971171E+02  0.11935212847E+03  0.95311260974E+02 0.  0.
        -11    1    3    3    0    0 -0.11703472230E+02 -0.13483841692E+02 -0.19410460653E+02  0.26373305292E+02  0.51100000000E-03 0. -1.
         11    1    3    3    0    0  0.11703472230E+02  0.13483841692E+02  0.91248431824E+02  0.92978823178E+02  0.51100000000E-03 0.  1.
<mgrwt>
<rscale>  0 0.95311261E+02</rscale>
<asrwt>0</asrwt>
<pdfrwt beam="2">  1        1 0.36549352E-02 0.95311261E+02</pdfrwt>
<pdfrwt beam="1">  1       -1 0.14706931E-01 0.95311261E+02</pdfrwt>
<totfact> 0.73189884E+04</totfact>
</mgrwt>
</event>
<event>
 5   1  0.1357339E+00  0.9037316E+02  0.7818608E-02  0.1301951E+00
          1   -1    0    0  501    0  0.00000000000E+00  0.00000000000E+00  0.60568425912E+02  0.60568426092E+02  0.46700000000E-02 0. -1.
         -1   -1    0    0    0  501 -0.00000000000E+00 -0.00000000000E+00 -0.33711078122E+02  0.33711078445E+02  0.46700000000E-02 0.  1.
         23    2    1    2    0    0  0.00000000000E+00  0.00000000000E+00  0.26857347790E+02  0.94279504537E+02  0.90373158877E+02 0.  0.
        -11    1    3    3    0    0  0.94195664951E+01  0.39768870109E+02 -0.66797533006E+01  0.41411476273E+02  0.51100000000E-03 0.  1.
         11    1    3    3    0    0 -0.94195664951E+01 -0.39768870109E+02  0.33537101091E+02  0.52868028264E+02  0.51100000000E-03 0. -1.
<mgrwt>
<rscale>  0 0.90373159E+02</rscale>
<asrwt>0</asrwt>
<pdfrwt beam="1">  1        1 0.93182194E-02 0.90373159E+02</pdfrwt>
<pdfrwt beam="2">  1       -1 0.51863198E-02 0.90373159E+02</pdfrwt>
<totfact> 0.98904284E+04</totfact>
</mgrwt>
</event>
<event>
 5   1  0.1357339E+00  0.9174208E+02  0.7818608E-02  0.1298687E+00
          1   -1    0    0  501    0  0.00000000000E+00  0.00000000000E+00  0.34016402395E+03  0.34016402398E+03  0.46700000000E-02 0. -1.
         -1   -1    0    0    0  501 -0.00000000000E+00 -0.00000000000E+00 -0.61856981339E+01  0.61856998968E+01  0.46700000000E-02 0.  1.
         23    2    1    2    0    0  0.00000000000E+00  0.00000000000E+00  0.33397832582E+03  0.34634972388E+03  0.91742079310E+02 0.  0.
        -11    1    3    3    0    0  0.28659697407E+02  0.29798271238E+02  0.91972935706E+02  0.10083816801E+03  0.51100000000E-03 0.  1.
         11    1    3    3    0    0 -0.28659697407E+02 -0.29798271238E+02  0.24200539011E+03  0.24551155587E+03  0.51100000000E-03 0. -1.
<mgrwt>
<rscale>  0 0.91742079E+02</rscale>
<asrwt>0</asrwt>
<pdfrwt beam="1">  1        1 0.52332945E-01 0.91742079E+02</pdfrwt>
<pdfrwt beam="2">  1       -1 0.95164568E-03 0.91742079E+02</pdfrwt>
<totfact> 0.12901747E+05</totfact>
</mgrwt>
</event>
<event>
 5   1  0.1357339E+00  0.9176637E+02  0.7818608E-02  0.1298630E+00
         -1   -1    0    0    0  501 -0.00000000000E+00  0.00000000000E+00  0.27861929974E+03  0.27861929978E+03  0.46700000000E-02 0.  1.
          1   -1    0    0  501    0  0.00000000000E+00 -0.00000000000E+00 -0.75560677077E+01  0.75560691508E+01  0.46700000000E-02 0. -1.
         23    2    1    2    0    0  0.00000000000E+00  0.00000000000E+00  0.27106323204E+03  0.28617536893E+03  0.91766366510E+02 0.  0.
        -11    1    3    3    0    0  0.16696687414E+02  0.39600672376E+02  0.18564906541E+03  0.19055856871E+03  0.51100000000E-03 0.  1.
         11    1    3    3    0    0 -0.16696687414E+02 -0.39600672376E+02  0.85414166627E+02  0.95616800219E+02  0.51100000000E-03 0. -1.
<mgrwt>
<rscale>  0 0.91766367E+02</rscale>
<asrwt>0</asrwt>
<pdfrwt beam="2">  1        1 0.11624721E-02 0.91766367E+02</pdfrwt>
<pdfrwt beam="1">  1       -1 0.42864506E-01 0.91766367E+02</pdfrwt>
<totfact> 0.61280105E+04</totfact>
</mgrwt>
</event>
<event>
 5   1  0.1357339E+00  0.9522672E+02  0.7818608E-02  0.1290666E+00
          1   -1    0    0  501    0  0.00000000000E+00  0.00000000000E+00  0.34709723437E+02  0.34709723751E+02  0.46700000000E-02 0. -1.
         -1   -1    0    0    0  501 -0.00000000000E+00 -0.00000000000E+00 -0.65314033290E+02  0.65314033456E+02  0.46700000000E-02 0.  1.
         23    2    1    2    0    0  0.00000000000E+00  0.00000000000E+00 -0.30604309853E+02  0.10002375721E+03  0.95226720118E+02 0.  0.
        -11    1    3    3    0    0  0.42870090008E+02  0.20220710615E+02 -0.20035874379E+02  0.51460256679E+02  0.51100000000E-03 0.  1.
         11    1    3    3    0    0 -0.42870090008E+02 -0.20220710615E+02 -0.10568435473E+02  0.48563500529E+02  0.51100000000E-03 0. -1.
<mgrwt>
<rscale>  0 0.95226720E+02</rscale>
<asrwt>0</asrwt>
<pdfrwt beam="1">  1        1 0.53399575E-02 0.95226720E+02</pdfrwt>
<pdfrwt beam="2">  1       -1 0.10048313E-01 0.95226720E+02</pdfrwt>
<totfact> 0.78339336E+04</totfact>
</mgrwt>
</event>
<event>
 5   1  0.1357339E+00  0.8705368E+02  0.7818608E-02  0.1310148E+00
          1   -1    0    0  501    0  0.00000000000E+00  0.00000000000E+00  0.65936249048E+02  0.65936249214E+02  0.46700000000E-02 0. -1.
         -1   -1    0    0    0  501 -0.00000000000E+00 -0.00000000000E+00 -0.28733597310E+02  0.28733597690E+02  0.46700000000E-02 0.  1.
         23    2    1    2    0    0  0.00000000000E+00  0.00000000000E+00  0.37202651738E+02  0.94669846904E+02  0.87053676639E+02 0.  0.
        -11    1    3    3    0    0 -0.42400296618E+02  0.66398230765E+01  0.26496913420E+02  0.50437672675E+02  0.51100000000E-03 0. -1.
         11    1    3    3    0    0  0.42400296618E+02 -0.66398230765E+01  0.10705738318E+02  0.44232174229E+02  0.51100000000E-03 0.  1.
<mgrwt>
<rscale>  0 0.87053677E+02</rscale>
<asrwt>0</asrwt>
<pdfrwt beam="1">  1        1 0.10144038E-01 0.87053677E+02</pdfrwt>
<pdfrwt beam="2">  1       -1 0.44205535E-02 0.87053677E+02</pdfrwt>
<totfact> 0.11104413E+05</totfact>
</mgrwt>
</event>
<event>
 5   1  0.1357339E+00  0.9845883E+02  0.7818608E-02  0.1283571E+00
          1   -1    0    0  501    0  0.00000000000E+00  0.00000000000E+00  0.17760931329E+03  0.17760931335E+03  0.46700000000E-02 0. -1.
         -1   -1    0    0    0  501 -0.00000000000E+00 -0.00000000000E+00 -0.13645315877E+02  0.13645316677E+02  0.46700000000E-02 0.  1.
         23    2    1    2    0    0  0.00000000000E+00  0.00000000000E+00  0.16396399741E+03  0.19125463003E+03  0.98458829262E+02 0.  0.
        -11    1    3    3    0    0 -0.23821970259E+02 -0.25286644330E+02  0.14227618831E+02  0.37540988085E+02  0.51100000000E-03 0.  1.
         11    1    3    3    0    0  0.23821970259E+02  0.25286644330E+02  0.14973637858E+03  0.15371364194E+03  0.51100000000E-03 0. -1.
<mgrwt>
<rscale>  0 0.98458829E+02</rscale>
<asrwt>0</asrwt>
<pdfrwt beam="1">  1        1 0.27324507E-01 0.98458829E+02</pdfrwt>
<pdfrwt beam="2">  1       -1 0.20992797E-02 0.98458829E+02</pdfrwt>
<totfact> 0.94037475E+04</totfact>
</mgrwt>
</event>
<event>
 5   1  0.1357339E+00  0.8218842E+02  0.7818608E-02  0.1322953E+00
         -1   -1    0    0    0  501 -0.00000000000E+00  0.00000000000E+00  0.38990775224E+02  0.38990775503E+02  0.46700000000E-02 0.  1.
          1   -1    0    0  501    0  0.00000000000E+00 -0.00000000000E+00 -0.43311120496E+02  0.43311120748E+02  0.46700000000E-02 0. -1.
         23    2    1    2    0    0  0.00000000000E+00  0.00000000000E+00 -0.43203452724E+01  0.82301896251E+02  0.82188422197E+02 0.  0.
        -11    1    3    3    0    0 -0.18521670585E+02  0.12357853984E+02 -0.36747190087E+02  0.42966554620E+02  0.51100000000E-03 0. -1.
         11    1    3    3    0    0  0.18521670585E+02 -0.12357853984E+02  0.32426844815E+02  0.39335341631E+02  0.51100000000E-03 0.  1.
<mgrwt>
<rscale>  0 0.82188422E+02</rscale>
<asrwt>0</asrwt>
<pdfrwt beam="2">  1        1 0.66632494E-02 0.82188422E+02</pdfrwt>
<pdfrwt beam="1">  1       -1 0.59985808E-02 0.82188422E+02</pdfrwt>
<totfact> 0.12255249E+05</totfact>
</mgrwt>
</event>
<event>
 5   1  0.1357339E+00  0.9204549E+02  0.7818608E-02  0.1297973E+00
         -1   -1    0    0    0  501 -0.00000000000E+00  0.00000000000E+00  0.66152146428E+01  0.66152162912E+01  0.46700000000E-02 0.  1.
          1   -1    0    0  501    0  0.00000000000E+00 -0.00000000000E+00 -0.32018503281E+03  0.32018503284E+03  0.46700000000E-02 0. -1.
         23    2    1    2    0    0  0.00000000000E+00  0.00000000000E+00 -0.31356981817E+03  0.32680024914E+03  0.92045488588E+02 0.  0.
        -11    1    3    3    0    0  0.95102672092E+01 -0.42398401145E+02 -0.21063244956E+03  0.21506766008E+03  0.51100000000E-03 0.  1.
         11    1    3    3    0    0 -0.95102672092E+01  0.42398401145E+02 -0.10293736860E+03  0.11173258906E+03  0.51100000000E-03 0. -1.
<mgrwt>
<rscale>  0 0.92045489E+02</rscale>
<asrwt>0</asrwt>
<pdfrwt beam="2">  1        1 0.49259224E-01 0.92045489E+02</pdfrwt>
<pdfrwt beam="1">  1       -1 0.10177257E-02 0.92045489E+02</pdfrwt>
<totfact> 0.12646861E+05</totfact>
</mgrwt>
</event>
<event>
 5   1  0.1357339E+00  0.8777144E+02  0.7818608E-02  0.1308340E+00
          1   -1    0    0  501    0  0.00000000000E+00  0.00000000000E+00  0.94727214323E+01  0.94727225834E+01  0.46700000000E-02 0.  1.
         -1   -1    0    0    0  501 -0.00000000000E+00 -0.00000000000E+00 -0.20331603300E+03  0.20331603306E+03  0.46700000000E-02 0. -1.
         23    2    1    2    0    0  0.00000000000E+00  0.00000000000E+00 -0.19384331157E+03  0.21278875564E+03  0.87771436619E+02 0.  0.
        -11    1    3    3    0    0 -0.28988572537E+02 -0.30096388297E+02 -0.64411269728E+02  0.76778523003E+02  0.51100000000E-03 0.  1.
         11    1    3    3    0    0  0.28988572537E+02  0.30096388297E+02 -0.12943204184E+03  0.13601023264E+03  0.51100000000E-03 0. -1.
<mgrwt>
<rscale>  0 0.87771437E+02</rscale>
<asrwt>0</asrwt>
<pdfrwt beam="1">  1        1 0.14573420E-02 0.87771437E+02</pdfrwt>
<pdfrwt beam="2">  1       -1 0.31279387E-01 0.87771437E+02</pdfrwt>
<totfact> 0.76288464E+04</totfact>
</mgrwt>
</event>
<event>
 5   1  0.1357339E+00  0.9488118E+02  0.7818608E-02  0.1291444E+00
         -1   -1    0    0    0  501 -0.00000000000E+00  0.00000000000E+00  0.15559456304E+03  0.15559456311E+03  0.46700000000E-02 0.  1.
          1   -1    0    0  501    0  0.00000000000E+00 -0.00000000000E+00 -0.14464577078E+02  0.14464577832E+02  0.46700000000E-02 0. -1.
         23    2    1    2    0    0  0.00000000000E+00  0.00000000000E+00  0.14112998596E+03  0.17005914094E+03  0.94881180853E+02 0.  0.
        -11    1    3    3    0    0 -0.67433508723E+00  0.43386769180E+02  0.36193990676E+02  0.56505499104E+02  0.51100000000E-03 0.  1.
         11    1    3    3    0    0  0.67433508723E+00 -0.43386769180E+02  0.10493599528E+03  0.11355364183E+03  0.51100000000E-03 0. -1.
<mgrwt>
<rscale>  0 0.94881181E+02</rscale>
<asrwt>0</asrwt>
<pdfrwt beam="2">  1        1 0.22253197E-02 0.94881181E+02</pdfrwt>
<pdfrwt beam="1">  1       -1 0.23937624E-01 0.94881181E+02</pdfrwt>
<totfact> 0.66845214E+04</totfact>
</mgrwt>
</event>
<event>
 5   1  0.1357339E+00  0.8888912E+02  0.7818608E-02  0.1305564E+00
          1   -1    0    0  501    0  0.00000000000E+00  0.00000000000E+00  0.14129072039E+02  0.14129072811E+02  0.46700000000E-02 0. -1.
         -1   -1    0    0    0  501 -0.00000000000E+00 -0.00000000000E+00 -0.13980527748E+03  0.13980527756E+03  0.46700000000E-02 0.  1.
         23    2    1    2    0    0  0.00000000000E+00  0.00000000000E+00 -0.12567620544E+03  0.15393435037E+03  0.88889119748E+02 0.  0.
        -11    1    3    3    0    0 -0.31686254987E+01  0.43937008391E+02 -0.73056643898E+02  0.85309871128E+02  0.51100000000E-03 0. -1.
         11    1    3    3    0    0  0.31686254987E+01 -0.43937008391E+02 -0.52619561547E+02  0.68624479244E+02  0.51100000000E-03 0.  1.
<mgrwt>
<rscale>  0 0.88889120E+02</rscale>
<asrwt>0</asrwt>
<pdfrwt beam="1">  1        1 0.21737036E-02 0.88889120E+02</pdfrwt>
<pdfrwt beam="2">  1       -1 0.21508503E-01 0.88889120E+02</pdfrwt>
<totfact> 0.81171938E+04</totfact>
</mgrwt>
</event>
<event>
 5   1  0.1357339E+00  0.9176946E+02  0.7818608E-02  0.1298622E+00
         -1   -1    0    0    0  501 -0.00000000000E+00  0.00000000000E+00  0.19363462174E+03  0.19363462179E+03  0.46700000000E-02 0.  1.
          1   -1    0    0  501    0  0.00000000000E+00 -0.00000000000E+00 -0.10873098146E+02  0.10873099149E+02  0.46700000000E-02 0. -1.
         23    2    1    2    0    0  0.00000000000E+00  0.00000000000E+00  0.18276152359E+03  0.20450772094E+03  0.91769457990E+02 0.  0.
        -11    1    3    3    0    0 -0.40423404192E+02  0.21493141379E+02  0.84547738005E+02  0.96147421883E+02  0.51100000000E-03 0.  1.
         11    1    3    3    0    0  0.40423404192E+02 -0.21493141379E+02  0.98213785587E+02  0.10836029906E+03  0.51100000000E-03 0. -1.
<mgrwt>
<rscale>  0 0.91769458E+02</rscale>
<asrwt>0</asrwt>
<pdfrwt beam="2">  1        1 0.16727844E-02 0.91769458E+02</pdfrwt>
<pdfrwt beam="1">  1       -1 0.29789943E-01 0.91769458E+02</pdfrwt>
<totfact> 0.68888912E+04</totfact>
</mgrwt>
</event>
<event>
 5   1  0.1357339E+00  0.9003639E+02  0.7818608E-02  0.1302764E+00
          1   -1    0    0  501    0  0.00000000000E+00  0.00000000000E+00  0.77473003945E+01  0.77473018020E+01  0.46700000000E-02 0. -1.
         -1   -1    0    0    0  501 -0.00000000000E+00 -0.00000000000E+00 -0.26159277776E+03  0.26159277780E+03  0.46700000000E-02 0.  1.
         23    2    1    2    0    0  0.00000000000E+00  0.00000000000E+00 -0.25384547737E+03  0.26934007960E+03  0.90036393209E+02 0.  0.
        -11    1    3    3    0    0 -0.28735233537E+02 -0.22141250884E+02 -0.20667129142E+03  0.20983081598E+03  0.51100000000E-03 0.  1.
         11    1    3    3    0    0  0.28735233537E+02  0.22141250884E+02 -0.47174185943E+02  0.59509263622E+02  0.51100000000E-03 0. -1.
<mgrwt>
<rscale>  0 0.90036393E+02</rscale>
<asrwt>0</asrwt>
<pdfrwt beam="1">  1        1 0.11918927E-02 0.90036393E+02</pdfrwt>
<pdfrwt beam="2">  1       -1 0.40245036E-01 0.90036393E+02</pdfrwt>
<totfact> 0.65887851E+04</totfact>
</mgrwt>
</event>
<event>
 5   1  0.1357339E+00  0.9019641E+02  0.7818608E-02  0.1302377E+00
         -1   -1    0    0    0  501 -0.00000000000E+00  0.00000000000E+00  0.19219634278E+03  0.19219634284E+03  0.46700000000E-02 0.  1.
          1   -1    0    0  501    0  0.00000000000E+00 -0.00000000000E+00 -0.10582135625E+02  0.10582136656E+02  0.46700000000E-02 0. -1.
         23    2    1    2    0    0  0.00000000000E+00  0.00000000000E+00  0.18161420716E+03  0.20277847950E+03  0.90196405166E+02 0.  0.
        -11    1    3    3    0    0 -0.36737364739E+02 -0.65368300696E+01  0.33866054186E+02  0.50391206988E+02  0.51100000000E-03 0. -1.
         11    1    3    3    0    0  0.36737364739E+02  0.65368300696E+01  0.14774815297E+03  0.15238727251E+03  0.51100000000E-03 0.  1.
<mgrwt>
<rscale>  0 0.90196405E+02</rscale>
<asrwt>0</asrwt>
<pdfrwt beam="2">  1        1 0.16280209E-02 0.90196405E+02</pdfrwt>
<pdfrwt beam="1">  1       -1 0.29568669E-01 0.90196405E+02</pdfrwt>
<totfact> 0.72211030E+04</totfact>
</mgrwt>
</event>
<event>
 5   1  0.1357339E+00  0.9084647E+02  0.7818608E-02  0.1300815E+00
         -1   -1    0    0    0  501 -0.00000000000E+00  0.00000000000E+00  0.95825844114E+02  0.95825844227E+02  0.46700000000E-02 0.  1.
          1   -1    0    0  501    0  0.00000000000E+00 -0.00000000000E+00 -0.21531458590E+02  0.21531459096E+02  0.46700000000E-02 0. -1.
         23    2    1    2    0    0  0.00000000000E+00  0.00000000000E+00  0.74294385524E+02  0.11735730332E+03  0.90846468963E+02 0.  0.
        -11    1    3    3    0    0  0.80643121358E+01 -0.28212581420E+02  0.81939786236E+02  0.87035116184E+02  0.51100000000E-03 0.  1.
         11    1    3    3    0    0 -0.80643121358E+01  0.28212581420E+02 -0.76454007118E+01  0.30322187140E+02  0.51100000000E-03 0. -1.
<mgrwt>
<rscale>  0 0.90846469E+02</rscale>
<asrwt>0</asrwt>
<pdfrwt beam="2">  1        1 0.33125321E-02 0.90846469E+02</pdfrwt>
<pdfrwt beam="1">  1       -1 0.14742438E-01 0.90846469E+02</pdfrwt>
<totfact> 0.82781200E+04</totfact>
</mgrwt>
</event>
<event>
 5   1  0.1357339E+00  0.9216640E+02  0.7818608E-02  0.1297689E+00
          1   -1    0    0  501    0  0.00000000000E+00  0.00000000000E+00  0.87586633531E+02  0.87586633655E+02  0.46700000000E-02 0. -1.
         -1   -1    0    0    0  501 -0.00000000000E+00 -0.00000000000E+00 -0.24246410242E+02  0.24246410692E+02  0.46700000000E-02 0.  1.
         23    2    1    2    0    0  0.00000000000E+00  0.00000000000E+00  0.63340223288E+02  0.11183304435E+03  0.92166403433E+02 0.  0.
        -11    1    3    3    0    0 -0.22532106396E+02 -0.19631872163E+02 -0.10894440384E+02  0.31808726080E+02  0.51100000000E-03 0.  1.
         11    1    3    3    0    0  0.22532106396E+02  0.19631872163E+02  0.74234663672E+02  0.80024318267E+02  0.51100000000E-03 0. -1.
<mgrwt>
<rscale>  0 0.92166403E+02</rscale>
<asrwt>0</asrwt>
<pdfrwt beam="1">  1        1 0.13474867E-01 0.92166403E+02</pdfrwt>
<pdfrwt beam="2">  1       -1 0.37302170E-02 0.92166403E+02</pdfrwt>
<totfact> 0.99229843E+04</totfact>
</mgrwt>
</event>
<event>
 5   1  0.1357339E+00  0.9284916E+02  0.7818608E-02  0.1296095E+00
         -1   -1    0    0    0  501 -0.00000000000E+00  0.00000000000E+00  0.11797208612E+03  0.11797208621E+03  0.46700000000E-02 0.  1.
          1   -1    0    0  501    0  0.00000000000E+00 -0.00000000000E+00 -0.18269081200E+02  0.18269081797E+02  0.46700000000E-02 0. -1.
         23    2    1    2    0    0  0.00000000000E+00  0.00000000000E+00  0.99703004921E+02  0.13624116801E+03  0.92849160851E+02 0.  0.
        -11    1    3    3    0    0  0.33204880504E+02 -0.90383917383E+01  0.95574705618E+02  0.10158140070E+03  0.51100000000E-03 0.  1.
         11    1    3    3    0    0 -0.33204880504E+02  0.90383917383E+01  0.41282993034E+01  0.34659767309E+02  0.51100000000E-03 0. -1.
<mgrwt>
<rscale>  0 0.92849161E+02</rscale>
<asrwt>0</asrwt>
<pdfrwt beam="2">  1        1 0.28106280E-02 0.92849161E+02</pdfrwt>
<pdfrwt beam="1">  1       -1 0.18149551E-01 0.92849161E+02</pdfrwt>
<totfact> 0.75183152E+04</totfact>
</mgrwt>
</event>
<event>
 5   1  0.1357339E+00  0.9022061E+02  0.7818608E-02  0.1302318E+00
          1   -1    0    0  501    0  0.00000000000E+00  0.00000000000E+00  0.56914325269E+02  0.56914325460E+02  0.46700000000E-02 0. -1.
         -1   -1    0    0    0  501 -0.00000000000E+00 -0.00000000000E+00 -0.35754436844E+02  0.35754437149E+02  0.46700000000E-02 0.  1.
         23    2    1    2    0    0  0.00000000000E+00  0.00000000000E+00  0.21159888425E+02  0.92668762609E+02  0.90220611200E+02 0.  0.
        -11    1    3    3    0    0 -0.21457222628E+02  0.82442555794E+01 -0.29287715790E+02  0.37231041477E+02  0.51100000000E-03 0.  1.
         11    1    3    3    0    0  0.21457222628E+02 -0.82442555794E+01  0.50447604216E+02  0.55437721132E+02  0.51100000000E-03 0. -1.
<mgrwt>
<rscale>  0 0.90220611E+02</rscale>
<asrwt>0</asrwt>
<pdfrwt beam="1">  1        1 0.87560500E-02 0.90220611E+02</pdfrwt>
<pdfrwt beam="2">  1       -1 0.55006827E-02 0.90220611E+02</pdfrwt>
<totfact> 0.98444973E+04</totfact>
</mgrwt>
</event>
<event>
 5   1  0.1357339E+00  0.9018308E+02  0.7818608E-02  0.1302409E+00
          1   -1    0    0  501    0  0.00000000000E+00  0.00000000000E+00  0.29556231026E+02  0.29556231394E+02  0.46700000000E-02 0. -1.
         -1   -1    0    0    0  501 -0.00000000000E+00 -0.00000000000E+00 -0.68792494525E+02  0.68792494683E+02  0.46700000000E-02 0.  1.
         23    2    1    2    0    0  0.00000000000E+00  0.00000000000E+00 -0.39236263499E+02  0.98348726078E+02  0.90183077946E+02 0.  0.
        -11    1    3    3    0    0  0.45742082765E+01 -0.35279956000E+02  0.10597021820E+02  0.37120015470E+02  0.51100000000E-03 0. -1.
         11    1    3    3    0    0 -0.45742082765E+01  0.35279956000E+02 -0.49833285319E+02  0.61228710608E+02  0.51100000000E-03 0.  1.
<mgrwt>
<rscale>  0 0.90183078E+02</rscale>
<asrwt>0</asrwt>
<pdfrwt beam="1">  1        1 0.45471125E-02 0.90183078E+02</pdfrwt>
<pdfrwt beam="2">  1       -1 0.10583461E-01 0.90183078E+02</pdfrwt>
<totfact> 0.89237775E+04</totfact>
</mgrwt>
</event>
<event>
 5   1  0.1357339E+00  0.9229634E+02  0.7818608E-02  0.1297384E+00
          1   -1    0    0  501    0  0.00000000000E+00  0.00000000000E+00  0.11231483614E+02  0.11231484585E+02  0.46700000000E-02 0. -1.
         -1   -1    0    0    0  501 -0.00000000000E+00 -0.00000000000E+00 -0.18961463576E+03  0.18961463581E+03  0.46700000000E-02 0.  1.
         23    2    1    2    0    0  0.00000000000E+00  0.00000000000E+00 -0.17838315214E+03  0.20084612040E+03  0.92296343973E+02 0.  0.
        -11    1    3    3    0    0  0.31916051279E+02  0.30287463140E+01 -0.16957948264E+02  0.36268162941E+02  0.51100000000E-03 0. -1.
         11    1    3    3    0    0 -0.31916051279E+02 -0.30287463140E+01 -0.16142520388E+03  0.16457795746E+03  0.51100000000E-03 0.  1.
<mgrwt>
<rscale>  0 0.92296344E+02</rscale>
<asrwt>0</asrwt>
<pdfrwt beam="1">  1        1 0.17279208E-02 0.92296344E+02</pdfrwt>
<pdfrwt beam="2">  1       -1 0.29171480E-01 0.92296344E+02</pdfrwt>
<totfact> 0.68264622E+04</totfact>
</mgrwt>
</event>
<event>
 5   1  0.1357339E+00  0.9199689E+02  0.7818608E-02  0.1298087E+00
         -1   -1    0    0    0  501 -0.00000000000E+00  0.00000000000E+00  0.28323481890E+03  0.28323481894E+03  0.46700000000E-02 0.  1.
          1   -1    0    0  501    0  0.00000000000E+00 -0.00000000000E+00 -0.74703265914E+01  0.74703280511E+01  0.46700000000E-02 0. -1.
         23    2    1    2    0    0  0.00000000000E+00  0.00000000000E+00  0.27576449231E+03  0.29070514699E+03  0.91996887274E+02 0.  0.
        -11    1    3    3    0    0 -0.40997783172E+02 -0.20743022755E+02  0.13098400575E+03  0.13880886492E+03  0.51100000000E-03 0.  1.
         11    1    3    3    0    0  0.40997783172E+02  0.20743022755E+02  0.14478048656E+03  0.15189628207E+03  0.51100000000E-03 0. -1.
<mgrwt>
<rscale>  0 0.91996887E+02</rscale>
<asrwt>0</asrwt>
<pdfrwt beam="2">  1        1 0.11492813E-02 0.91996887E+02</pdfrwt>
<pdfrwt beam="1">  1       -1 0.43574583E-01 0.91996887E+02</pdfrwt>
<totfact> 0.60506824E+04</totfact>
</mgrwt>
</event>
<event>
 5   1  0.1357339E+00  0.9003486E+02  0.7818608E-02  0.1302767E+00
          1   -1    0    0  501    0  0.00000000000E+00  0.00000000000E+00  0.13250982019E+03  0.13250982027E+03  0.46700000000E-02 0. -1.
         -1   -1    0    0    0  501 -0.00000000000E+00 -0.00000000000E+00 -0.15293726580E+02  0.15293727293E+02  0.46700000000E-02 0.  1.
         23    2    1    2    0    0  0.00000000000E+00  0.00000000000E+00  0.11721609361E+03  0.14780354756E+03  0.90034860312E+02 0.  0.
        -11    1    3    3    0    0 -0.22064248646E+02  0.36162855567E+02  0.33604311717E+02  0.54072478742E+02  0.51100000000E-03 0.  1.
         11    1    3    3    0    0  0.22064248646E+02 -0.36162855567E+02  0.83611781889E+02  0.93731068819E+02  0.51100000000E-03 0. -1.
<mgrwt>
<rscale>  0 0.90034860E+02</rscale>
<asrwt>0</asrwt>
<pdfrwt beam="1">  1        1 0.20386127E-01 0.90034860E+02</pdfrwt>
<pdfrwt beam="2">  1       -1 0.23528810E-02 0.90034860E+02</pdfrwt>
<totfact> 0.11343796E+05</totfact>
</mgrwt>
</event>
<event>
 5   1  0.1357339E+00  0.9226141E+02  0.7818608E-02  0.1297466E+00
          1   -1    0    0  501    0  0.00000000000E+00  0.00000000000E+00  0.16893084293E+03  0.16893084299E+03  0.46700000000E-02 0. -1.
         -1   -1    0    0    0  501 -0.00000000000E+00 -0.00000000000E+00 -0.12597118682E+02  0.12597119547E+02  0.46700000000E-02 0.  1.
         23    2    1    2    0    0  0.00000000000E+00  0.00000000000E+00  0.15633372424E+03  0.18152796254E+03  0.92261410390E+02 0.  0.
        -11    1    3    3    0    0 -0.39591053134E+02 -0.13245582576E+02  0.39553680779E+02  0.57509917488E+02  0.51100000000E-03 0. -1.
         11    1    3    3    0    0  0.39591053134E+02  0.13245582576E+02  0.11678004347E+03  0.12401804505E+03  0.51100000000E-03 0.  1.
<mgrwt>
<rscale>  0 0.92261410E+02</rscale>
<asrwt>0</asrwt>
<pdfrwt beam="1">  1        1 0.25989360E-01 0.92261410E+02</pdfrwt>
<pdfrwt beam="2">  1       -1 0.19380184E-02 0.92261410E+02</pdfrwt>
<totfact> 0.11104408E+05</totfact>
</mgrwt>
</event>
<event>
 5   1  0.1357339E+00  0.9024772E+02  0.7818608E-02  0.1302253E+00
          1   -1    0    0  501    0  0.00000000000E+00  0.00000000000E+00  0.48766961405E+02  0.48766961629E+02  0.46700000000E-02 0. -1.
         -1   -1    0    0    0  501 -0.00000000000E+00 -0.00000000000E+00 -0.41752911324E+02  0.41752911585E+02  0.46700000000E-02 0.  1.
         23    2    1    2    0    0  0.00000000000E+00  0.00000000000E+00  0.70140500812E+01  0.90519873214E+02  0.90247717689E+02 0.  0.
        -11    1    3    3    0    0  0.21773001826E+02  0.37813247739E+02 -0.80279743105E+01  0.44366132183E+02  0.51100000000E-03 0.  1.
         11    1    3    3    0    0 -0.21773001826E+02 -0.37813247739E+02  0.15042024392E+02  0.46153741031E+02  0.51100000000E-03 0. -1.
<mgrwt>
<rscale>  0 0.90247718E+02</rscale>
<asrwt>0</asrwt>
<pdfrwt beam="1">  1        1 0.75026095E-02 0.90247718E+02</pdfrwt>
<pdfrwt beam="2">  1       -1 0.64235249E-02 0.90247718E+02</pdfrwt>
<totfact> 0.96125109E+04</totfact>
</mgrwt>
</event>
<event>
 5   1  0.1357339E+00  0.1166047E+03  0.7818608E-02  0.1248806E+00
          1   -1    0    0  501    0  0.00000000000E+00  0.00000000000E+00  0.13302656447E+03  0.13302656455E+03  0.46700000000E-02 0. -1.
         -1   -1    0    0    0  501 -0.00000000000E+00 -0.00000000000E+00 -0.25552505544E+02  0.25552505971E+02  0.46700000000E-02 0.  1.
         23    2    1    2    0    0  0.00000000000E+00  0.00000000000E+00  0.10747405893E+03  0.15857907052E+03  0.11660466657E+03 0.  0.
        -11    1    3    3    0    0  0.33926879926E+02 -0.49636930671E+01  0.11786501373E+03  0.12275110139E+03  0.51100000000E-03 0. -1.
         11    1    3    3    0    0 -0.33926879926E+02  0.49636930671E+01 -0.10390954803E+02  0.35827969135E+02  0.51100000000E-03 0.  1.
<mgrwt>
<rscale>  0 0.11660467E+03</rscale>
<asrwt>0</asrwt>
<pdfrwt beam="1">  1        1 0.20465625E-01 0.11660467E+03</pdfrwt>
<pdfrwt beam="2">  1       -1 0.39311548E-02 0.11660467E+03</pdfrwt>
<totfact> 0.55800717E+04</totfact>
</mgrwt>
</event>
<event>
 5   1  0.1357339E+00  0.9062310E+02  0.7818608E-02  0.1301350E+00
          1   -1    0    0  501    0  0.00000000000E+00  0.00000000000E+00  0.23392166459E+03  0.23392166464E+03  0.46700000000E-02 0. -1.
         -1   -1    0    0    0  501 -0.00000000000E+00 -0.00000000000E+00 -0.87770245189E+01  0.87770257613E+01  0.46700000000E-02 0.  1.
         23    2    1    2    0    0  0.00000000000E+00  0.00000000000E+00  0.22514464007E+03  0.24269869040E+03  0.90623095114E+02 0.  0.
        -11    1    3    3    0    0 -0.39739637638E+02 -0.21494520215E+02  0.10334035395E+03  0.11278511406E+03  0.51100000000E-03 0.  1.
         11    1    3    3    0    0  0.39739637638E+02  0.21494520215E+02  0.12180428612E+03  0.12991357634E+03  0.51100000000E-03 0. -1.
<mgrwt>
<rscale>  0 0.90623095E+02</rscale>
<asrwt>0</asrwt>
<pdfrwt beam="1">  1        1 0.35987945E-01 0.90623095E+02</pdfrwt>
<pdfrwt beam="2">  1       -1 0.13503117E-02 0.90623095E+02</pdfrwt>
<totfact> 0.12408093E+05</totfact>
</mgrwt>
</event>
<event>
 5   1  0.1357339E+00  0.8991848E+02  0.7818608E-02  0.1303049E+00
         -1   -1    0    0    0  501 -0.00000000000E+00  0.00000000000E+00  0.75234148590E+02  0.75234148735E+02  0.46700000000E-02 0.  1.
          1   -1    0    0  501    0  0.00000000000E+00 -0.00000000000E+00 -0.26867229971E+02  0.26867230377E+02  0.46700000000E-02 0. -1.
         23    2    1    2    0    0  0.00000000000E+00  0.00000000000E+00  0.48366918618E+02  0.10210137911E+03  0.89918478634E+02 0.  0.
        -11    1    3    3    0    0 -0.24804826678E+02 -0.58029794401E+01  0.66248345865E+02  0.70977442382E+02  0.51100000000E-03 0.  1.
         11    1    3    3    0    0  0.24804826678E+02  0.58029794401E+01 -0.17881427247E+02  0.31123936730E+02  0.51100000000E-03 0. -1.
<mgrwt>
<rscale>  0 0.89918479E+02</rscale>
<asrwt>0</asrwt>
<pdfrwt beam="2">  1        1 0.41334200E-02 0.89918479E+02</pdfrwt>
<pdfrwt beam="1">  1       -1 0.11574484E-01 0.89918479E+02</pdfrwt>
<totfact> 0.88613191E+04</totfact>
</mgrwt>
</event>
<event>
 5   1  0.1357339E+00  0.9315312E+02  0.7818608E-02  0.1295391E+00
         -1   -1    0    0    0  501 -0.00000000000E+00  0.00000000000E+00  0.78970373815E+01  0.78970387623E+01  0.46700000000E-02 0.  1.
          1   -1    0    0  501    0  0.00000000000E+00 -0.00000000000E+00 -0.27470756897E+03  0.27470756901E+03  0.46700000000E-02 0. -1.
         23    2    1    2    0    0  0.00000000000E+00  0.00000000000E+00 -0.26681053159E+03  0.28260460777E+03  0.93153124303E+02 0.  0.
        -11    1    3    3    0    0  0.38828814853E+02 -0.20418039966E+02 -0.18087208305E+03  0.18611631751E+03  0.51100000000E-03 0. -1.
         11    1    3    3    0    0 -0.38828814853E+02  0.20418039966E+02 -0.85938448545E+02  0.96488290261E+02  0.51100000000E-03 0.  1.
<mgrwt>
<rscale>  0 0.93153124E+02</rscale>
<asrwt>0</asrwt>
<pdfrwt beam="2">  1        1 0.42262696E-01 0.93153124E+02</pdfrwt>
<pdfrwt beam="1">  1       -1 0.12149292E-02 0.93153124E+02</pdfrwt>
<totfact> 0.11894977E+05</totfact>
</mgrwt>
</event>
<event>
 5   1  0.1357339E+00  0.9579716E+02  0.7818608E-02  0.1289391E+00
         -1   -1    0    0    0  501 -0.00000000000E+00  0.00000000000E+00  0.14550531689E+03  0.14550531697E+03  0.46700000000E-02 0.  1.
          1   -1    0    0  501    0  0.00000000000E+00 -0.00000000000E+00 -0.15767630808E+02  0.15767631500E+02  0.46700000000E-02 0. -1.
         23    2    1    2    0    0  0.00000000000E+00  0.00000000000E+00  0.12973768609E+03  0.16127294847E+03  0.95797164452E+02 0.  0.
        -11    1    3    3    0    0 -0.87260932914E+01 -0.45472909596E+02  0.44226838210E+02  0.64030800632E+02  0.51100000000E-03 0. -1.
         11    1    3    3    0    0  0.87260932914E+01  0.45472909596E+02  0.85510847877E+02  0.97242147838E+02  0.51100000000E-03 0.  1.
<mgrwt>
<rscale>  0 0.95797164E+02</rscale>
<asrwt>0</asrwt>
<pdfrwt beam="2">  1        1 0.24257895E-02 0.95797164E+02</pdfrwt>
<pdfrwt beam="1">  1       -1 0.22385433E-01 0.95797164E+02</pdfrwt>
<totfact> 0.66236485E+04</totfact>
</mgrwt>
</event>
<event>
 5   1  0.1357339E+00  0.9288954E+02  0.7818608E-02  0.1296001E+00
          1   -1    0    0  501    0  0.00000000000E+00  0.00000000000E+00  0.43061106688E+02  0.43061106941E+02  0.46700000000E-02 0. -1.
         -1   -1    0    0    0  501 -0.00000000000E+00 -0.00000000000E+00 -0.50094311484E+02  0.50094311701E+02  0.46700000000E-02 0.  1.
         23    2    1    2    0    0  0.00000000000E+00  0.00000000000E+00 -0.70332047955E+01  0.93155418643E+02  0.92889536832E+02 0.  0.
        -11    1    3    3    0    0  0.26977408598E+02  0.29170687907E+02  0.20602328824E+02  0.44756737603E+02  0.51100000000E-03 0. -1.
         11    1    3    3    0    0 -0.26977408598E+02 -0.29170687907E+02 -0.27635533620E+02  0.48398681040E+02  0.51100000000E-03 0.  1.
<mgrwt>
<rscale>  0 0.92889537E+02</rscale>
<asrwt>0</asrwt>
<pdfrwt beam="1">  1        1 0.66247857E-02 0.92889537E+02</pdfrwt>
<pdfrwt beam="2">  1       -1 0.77068172E-02 0.92889537E+02</pdfrwt>
<totfact> 0.86991461E+04</totfact>
</mgrwt>
</event>
<event>
 5   1  0.1357339E+00  0.9136734E+02  0.7818608E-02  0.1299574E+00
         -1   -1    0    0    0  501 -0.00000000000E+00  0.00000000000E+00  0.10686307899E+03  0.10686307909E+03  0.46700000000E-02 0.  1.
          1   -1    0    0  501    0  0.00000000000E+00 -0.00000000000E+00 -0.19529641491E+02  0.19529642049E+02  0.46700000000E-02 0. -1.
         23    2    1    2    0    0  0.00000000000E+00  0.00000000000E+00  0.87333437501E+02  0.12639272114E+03  0.91367339090E+02 0.  0.
        -11    1    3    3    0    0 -0.43192988504E+02  0.14822766423E+02  0.45443122772E+02  0.64423800476E+02  0.51100000000E-03 0. -1.
         11    1    3    3    0    0  0.43192988504E+02 -0.14822766423E+02  0.41890314729E+02  0.61968920667E+02  0.51100000000E-03 0.  1.
<mgrwt>
<rscale>  0 0.91367339E+02</rscale>
<asrwt>0</asrwt>
<pdfrwt beam="2">  1        1 0.30045603E-02 0.91367339E+02</pdfrwt>
<pdfrwt beam="1">  1       -1 0.16440473E-01 0.91367339E+02</pdfrwt>
<totfact> 0.79924276E+04</totfact>
</mgrwt>
</event>
<event>
 5   1  0.1357339E+00  0.7507935E+02  0.7818608E-02  0.1343625E+00
          1   -1    0    0  501    0  0.00000000000E+00  0.00000000000E+00  0.10644588542E+02  0.10644589566E+02  0.46700000000E-02 0. -1.
         -1   -1    0    0    0  501 -0.00000000000E+00 -0.00000000000E+00 -0.13238906459E+03  0.13238906468E+03  0.46700000000E-02 0.  1.
         23    2    1    2    0    0  0.00000000000E+00  0.00000000000E+00 -0.12174447605E+03  0.14303365424E+03  0.75079350002E+02 0.  0.
        -11    1    3    3    0    0  0.31217790608E+01  0.35752089091E+02 -0.81851687938E+02  0.89373688508E+02  0.51100000000E-03 0. -1.
         11    1    3    3    0    0 -0.31217790608E+01 -0.35752089091E+02 -0.39892788113E+02  0.53659965734E+02  0.51100000000E-03 0.  1.
<mgrwt>
<rscale>  0 0.75079350E+02</rscale>
<asrwt>0</asrwt>
<pdfrwt beam="1">  1        1 0.16376292E-02 0.75079350E+02</pdfrwt>
<pdfrwt beam="2">  1       -1 0.20367547E-01 0.75079350E+02</pdfrwt>
<totfact> 0.12688084E+05</totfact>
</mgrwt>
</event>
<event>
 5   1  0.1357339E+00  0.1065224E+03  0.7818608E-02  0.1267149E+00
          1   -1    0    0  501    0  0.00000000000E+00  0.00000000000E+00  0.22276508055E+03  0.22276508060E+03  0.46700000000E-02 0. -1.
         -1   -1    0    0    0  501 -0.00000000000E+00 -0.00000000000E+00 -0.12734287471E+02  0.12734288327E+02  0.46700000000E-02 0.  1.
         23    2    1    2    0    0  0.00000000000E+00  0.00000000000E+00  0.21003079308E+03  0.23549936893E+03  0.10652238602E+03 0.  0.
        -11    1    3    3    0    0 -0.39600474518E+02 -0.17015113902E+02  0.35840304657E+02  0.56055678761E+02  0.51100000000E-03 0.  1.
         11    1    3    3    0    0  0.39600474518E+02  0.17015113902E+02  0.17419048843E+03  0.17944369017E+03  0.51100000000E-03 0. -1.
<mgrwt>
<rscale>  0 0.10652239E+03</rscale>
<asrwt>0</asrwt>
<pdfrwt beam="1">  1        1 0.34271548E-01 0.10652239E+03</pdfrwt>
<pdfrwt beam="2">  1       -1 0.19591214E-02 0.10652239E+03</pdfrwt>
<totfact> 0.79442727E+04</totfact>
</mgrwt>
</event>
<event>
 5   1  0.1357339E+00  0.9270510E+02  0.7818608E-02  0.1296430E+00
         -1   -1    0    0    0  501 -0.00000000000E+00  0.00000000000E+00  0.64481656038E+02  0.64481656207E+02  0.46700000000E-02 0.  1.
          1   -1    0    0  501    0  0.00000000000E+00 -0.00000000000E+00 -0.33320463905E+02  0.33320464232E+02  0.46700000000E-02 0. -1.
         23    2    1    2    0    0  0.00000000000E+00  0.00000000000E+00  0.31161192133E+02  0.97802120439E+02  0.92705096231E+02 0.  0.
        -11    1    3    3    0    0 -0.65965700336E+01 -0.14222232429E+02  0.61599688285E+02  0.63563418949E+02  0.51100000000E-03 0.  1.
         11    1    3    3    0    0  0.65965700336E+01  0.14222232429E+02 -0.30438496152E+02  0.34238701490E+02  0.51100000000E-03 0. -1.
<mgrwt>
<rscale>  0 0.92705096E+02</rscale>
<asrwt>0</asrwt>
<pdfrwt beam="2">  1        1 0.51262253E-02 0.92705096E+02</pdfrwt>
<pdfrwt beam="1">  1       -1 0.99202547E-02 0.92705096E+02</pdfrwt>
<totfact> 0.84051504E+04</totfact>
</mgrwt>
</event>
<event>
 5   1  0.1357339E+00  0.9258036E+02  0.7818608E-02  0.1296721E+00
         -1   -1    0    0    0  501 -0.00000000000E+00  0.00000000000E+00  0.94955733647E+02  0.94955733762E+02  0.46700000000E-02 0.  1.
          1   -1    0    0  501    0  0.00000000000E+00 -0.00000000000E+00 -0.22566099186E+02  0.22566099669E+02  0.46700000000E-02 0. -1.
         23    2    1    2    0    0  0.00000000000E+00  0.00000000000E+00  0.72389634462E+02  0.11752183343E+03  0.92580355128E+02 0.  0.
        -11    1    3    3    0    0  0.19481808007E+02  0.33745377405E+02  0.44726988464E+01  0.39221121538E+02  0.51100000000E-03 0. -1.
         11    1    3    3    0    0 -0.19481808007E+02 -0.33745377405E+02  0.67916935615E+02  0.78300711894E+02  0.51100000000E-03 0.  1.
<mgrwt>
<rscale>  0 0.92580355E+02</rscale>
<asrwt>0</asrwt>
<pdfrwt beam="2">  1        1 0.34717077E-02 0.92580355E+02</pdfrwt>
<pdfrwt beam="1">  1       -1 0.14608574E-01 0.92580355E+02</pdfrwt>
<totfact> 0.78979466E+04</totfact>
</mgrwt>
</event>
<event>
 5   1  0.1357339E+00  0.9139437E+02  0.7818608E-02  0.1299510E+00
          1   -1    0    0  501    0  0.00000000000E+00  0.00000000000E+00  0.77938340529E+02  0.77938340668E+02  0.46700000000E-02 0. -1.
         -1   -1    0    0    0  501 -0.00000000000E+00 -0.00000000000E+00 -0.26793393999E+02  0.26793394406E+02  0.46700000000E-02 0.  1.
         23    2    1    2    0    0  0.00000000000E+00  0.00000000000E+00  0.51144946530E+02  0.10473173507E+03  0.91394369499E+02 0.  0.
        -11    1    3    3    0    0 -0.27037077999E+02 -0.96272852301E+01 -0.15177367262E+02  0.32465992744E+02  0.51100000000E-03 0.  1.
         11    1    3    3    0    0  0.27037077999E+02  0.96272852301E+01  0.66322313791E+02  0.72265742330E+02  0.51100000000E-03 0. -1.
<mgrwt>
<rscale>  0 0.91394369E+02</rscale>
<asrwt>0</asrwt>
<pdfrwt beam="1">  1        1 0.11990514E-01 0.91394369E+02</pdfrwt>
<pdfrwt beam="2">  1       -1 0.41220607E-02 0.91394369E+02</pdfrwt>
<totfact> 0.99675515E+04</totfact>
</mgrwt>
</event>
<event>
 5   1  0.1357339E+00  0.9113139E+02  0.7818608E-02  0.1300135E+00
         -1   -1    0    0    0  501 -0.00000000000E+00  0.00000000000E+00  0.25220658207E+02  0.25220658640E+02  0.46700000000E-02 0.  1.
          1   -1    0    0  501    0  0.00000000000E+00 -0.00000000000E+00 -0.82322685120E+02  0.82322685252E+02  0.46700000000E-02 0. -1.
         23    2    1    2    0    0  0.00000000000E+00  0.00000000000E+00 -0.57102026912E+02  0.10754334389E+03  0.91131385032E+02 0.  0.
        -11    1    3    3    0    0  0.40123019416E+02 -0.18947283371E+01 -0.31643568823E+01  0.40292180845E+02  0.51100000000E-03 0.  1.
         11    1    3    3    0    0 -0.40123019416E+02  0.18947283371E+01 -0.53937670030E+02  0.67251163046E+02  0.51100000000E-03 0. -1.
<mgrwt>
<rscale>  0 0.91131385E+02</rscale>
<asrwt>0</asrwt>
<pdfrwt beam="2">  1        1 0.12665028E-01 0.91131385E+02</pdfrwt>
<pdfrwt beam="1">  1       -1 0.38801013E-02 0.91131385E+02</pdfrwt>
<totfact> 0.10134025E+05</totfact>
</mgrwt>
</event>
<event>
 5   1  0.1357339E+00  0.9053229E+02  0.7818608E-02  0.1301568E+00
         -1   -1    0    0    0  501 -0.00000000000E+00  0.00000000000E+00  0.29098906441E+02  0.29098906816E+02  0.46700000000E-02 0.  1.
          1   -1    0    0  501    0  0.00000000000E+00 -0.00000000000E+00 -0.70415835770E+02  0.70415835925E+02  0.46700000000E-02 0. -1.
         23    2    1    2    0    0  0.00000000000E+00  0.00000000000E+00 -0.41316929329E+02  0.99514742741E+02  0.90532289122E+02 0.  0.
        -11    1    3    3    0    0 -0.21429120328E+02  0.38526518723E+01 -0.64281971854E+02  0.67869153745E+02  0.51100000000E-03 0. -1.
         11    1    3    3    0    0  0.21429120328E+02 -0.38526518723E+01  0.22965042525E+02  0.31645588996E+02  0.51100000000E-03 0.  1.
<mgrwt>
<rscale>  0 0.90532289E+02</rscale>
<asrwt>0</asrwt>
<pdfrwt beam="2">  1        1 0.10833205E-01 0.90532289E+02</pdfrwt>
<pdfrwt beam="1">  1       -1 0.44767549E-02 0.90532289E+02</pdfrwt>
<totfact> 0.10070597E+05</totfact>
</mgrwt>
</event>
<event>
 5   1  0.1357339E+00  0.9111435E+02  0.7818608E-02  0.1300175E+00
         -1   -1    0    0    0  501 -0.00000000000E+00  0.00000000000E+00  0.53865736806E+02  0.53865737009E+02  0.46700000000E-02 0.  1.
          1   -1    0    0  501    0  0.00000000000E+00 -0.00000000000E+00 -0.38530174243E+02  0.38530174526E+02  0.46700000000E-02 0. -1.
         23    2    1    2    0    0  0.00000000000E+00  0.00000000000E+00  0.15335562563E+02  0.92395911535E+02  0.91114351171E+02 0.  0.
        -11    1    3    3    0    0 -0.18189557506E+02 -0.10226313831E+02  0.48734535041E+02  0.53014077402E+02  0.51100000000E-03 0.  1.
         11    1    3    3    0    0  0.18189557506E+02  0.10226313831E+02 -0.33398972478E+02  0.39381834133E+02  0.51100000000E-03 0. -1.
<mgrwt>
<rscale>  0 0.91114351E+02</rscale>
<asrwt>0</asrwt>
<pdfrwt beam="2">  1        1 0.59277192E-02 0.91114351E+02</pdfrwt>
<pdfrwt beam="1">  1       -1 0.82870365E-02 0.91114351E+02</pdfrwt>
<totfact> 0.90323261E+04</totfact>
</mgrwt>
</event>
<event>
 5   1  0.1357339E+00  0.9023122E+02  0.7818608E-02  0.1302293E+00
         -1   -1    0    0    0  501 -0.00000000000E+00  0.00000000000E+00  0.41940299417E+02  0.41940299677E+02  0.46700000000E-02 0.  1.
          1   -1    0    0  501    0  0.00000000000E+00 -0.00000000000E+00 -0.48531320046E+02  0.48531320270E+02  0.46700000000E-02 0. -1.
         23    2    1    2    0    0  0.00000000000E+00  0.00000000000E+00 -0.65910206282E+01  0.90471619948E+02  0.90231216677E+02 0.  0.
        -11    1    3    3    0    0  0.15935449237E+02  0.24088647346E+02 -0.38046423660E+02  0.47767476665E+02  0.51100000000E-03 0. -1.
         11    1    3    3    0    0 -0.15935449237E+02 -0.24088647346E+02  0.31455403032E+02  0.42704143283E+02  0.51100000000E-03 0.  1.
<mgrwt>
<rscale>  0 0.90231217E+02</rscale>
<asrwt>0</asrwt>
<pdfrwt beam="2">  1        1 0.74663569E-02 0.90231217E+02</pdfrwt>
<pdfrwt beam="1">  1       -1 0.64523538E-02 0.90231217E+02</pdfrwt>
<totfact> 0.96104884E+04</totfact>
</mgrwt>
</event>
<event>
 5   1  0.1357339E+00  0.8953203E+02  0.7818608E-02  0.1303989E+00
          1   -1    0    0  501    0  0.00000000000E+00  0.00000000000E+00  0.38219134087E+02  0.38219134373E+02  0.46700000000E-02 0. -1.
         -1   -1    0    0    0  501 -0.00000000000E+00 -0.00000000000E+00 -0.52434365114E+02  0.52434365322E+02  0.46700000000E-02 0.  1.
         23    2    1    2    0    0  0.00000000000E+00  0.00000000000E+00 -0.14215231027E+02  0.90653499695E+02  0.89532028983E+02 0.  0.
        -11    1    3    3    0    0 -0.15698635758E+02 -0.12843588738E+01 -0.49535946908E+02  0.51979868975E+02  0.51100000000E-03 0.  1.
         11    1    3    3    0    0  0.15698635758E+02  0.12843588738E+01  0.35320715881E+02  0.38673630719E+02  0.51100000000E-03 0. -1.
<mgrwt>
<rscale>  0 0.89532029E+02</rscale>
<asrwt>0</asrwt>
<pdfrwt beam="1">  1        1 0.58798668E-02 0.89532029E+02</pdfrwt>
<pdfrwt beam="2">  1       -1 0.80668254E-02 0.89532029E+02</pdfrwt>
<totfact> 0.94787156E+04</totfact>
</mgrwt>
</event>
<event>
 5   1  0.1357339E+00  0.8914456E+02  0.7818608E-02  0.1304937E+00
         -1   -1    0    0    0  501 -0.00000000000E+00  0.00000000000E+00  0.11454156540E+03  0.11454156549E+03  0.46700000000E-02 0.  1.
          1   -1    0    0  501    0  0.00000000000E+00 -0.00000000000E+00 -0.17344689964E+02  0.17344690593E+02  0.46700000000E-02 0. -1.
         23    2    1    2    0    0  0.00000000000E+00  0.00000000000E+00  0.97196875434E+02  0.13188625609E+03  0.89144556481E+02 0.  0.
        -11    1    3    3    0    0 -0.99008058448E+01  0.19402619714E+02  0.10613042591E+03  0.10834276585E+03  0.51100000000E-03 0.  1.
         11    1    3    3    0    0  0.99008058448E+01 -0.19402619714E+02 -0.89335504747E+01  0.23543490236E+02  0.51100000000E-03 0. -1.
<mgrwt>
<rscale>  0 0.89144556E+02</rscale>
<asrwt>0</asrwt>
<pdfrwt beam="2">  1        1 0.26684138E-02 0.89144556E+02</pdfrwt>
<pdfrwt beam="1">  1       -1 0.17621780E-01 0.89144556E+02</pdfrwt>
<totfact> 0.84018107E+04</totfact>
</mgrwt>
</event>
<event>
 5   1  0.1357339E+00  0.8864405E+02  0.7818608E-02  0.1306169E+00
         -1   -1    0    0    0  501 -0.00000000000E+00  0.00000000000E+00  0.50729897549E+01  0.50729919044E+01  0.46700000000E-02 0.  1.
          1   -1    0    0  501    0  0.00000000000E+00 -0.00000000000E+00 -0.38723548829E+03  0.38723548832E+03  0.46700000000E-02 0. -1.
         23    2    1    2    0    0  0.00000000000E+00  0.00000000000E+00 -0.38216249853E+03  0.39230848022E+03  0.88644054329E+02 0.  0.
        -11    1    3    3    0    0  0.60951215585E+01  0.41737854621E+02 -0.25131627184E+03  0.25483144921E+03  0.51100000000E-03 0.  1.
         11    1    3    3    0    0 -0.60951215585E+01 -0.41737854621E+02 -0.13084622670E+03  0.13747703101E+03  0.51100000000E-03 0. -1.
<mgrwt>
<rscale>  0 0.88644054E+02</rscale>
<asrwt>0</asrwt>
<pdfrwt beam="2">  1        1 0.59574667E-01 0.88644054E+02</pdfrwt>
<pdfrwt beam="1">  1       -1 0.78046043E-03 0.88644054E+02</pdfrwt>
<totfact> 0.14457175E+05</totfact>
</mgrwt>
</event>
<event>
 5   1  0.1357339E+00  0.6895305E+02  0.7818608E-02  0.1363690E+00
         -1   -1    0    0    0  501 -0.00000000000E+00  0.00000000000E+00  0.82757949359E+01  0.82757962535E+01  0.46700000000E-02 0.  1.
          1   -1    0    0  501    0  0.00000000000E+00 -0.00000000000E+00 -0.14362738209E+03  0.14362738217E+03  0.46700000000E-02 0. -1.
         23    2    1    2    0    0  0.00000000000E+00  0.00000000000E+00 -0.13535158716E+03  0.15190317842E+03  0.68953052644E+02 0.  0.
        -11    1    3    3    0    0 -0.29575947229E+02 -0.17328329196E+02 -0.75806967375E+02  0.83196778484E+02  0.51100000000E-03 0. -1.
         11    1    3    3    0    0  0.29575947229E+02  0.17328329196E+02 -0.59544619782E+02  0.68706399938E+02  0.51100000000E-03 0.  1.
<mgrwt>
<rscale>  0 0.68953053E+02</rscale>
<asrwt>0</asrwt>
<pdfrwt beam="2">  1        1 0.22096518E-01 0.68953053E+02</pdfrwt>
<pdfrwt beam="1">  1       -1 0.12731994E-02 0.68953053E+02</pdfrwt>
<totfact> 0.23356480E+05</totfact>
</mgrwt>
</event>
<event>
 5   1  0.1357339E+00  0.8953253E+02  0.7818608E-02  0.1303988E+00
         -1   -1    0    0    0  501 -0.00000000000E+00  0.00000000000E+00  0.30226384448E+02  0.30226384809E+02  0.46700000000E-02 0.  1.
          1   -1    0    0  501    0  0.00000000000E+00 -0.00000000000E+00 -0.66300298679E+02  0.66300298843E+02  0.46700000000E-02 0. -1.
         23    2    1    2    0    0  0.00000000000E+00  0.00000000000E+00 -0.36073914230E+02  0.96526683652E+02  0.89532526877E+02 0.  0.
        -11    1    3    3    0    0  0.22011968619E+02  0.30233114605E+02  0.84911226602E+01  0.38349278292E+02  0.51100000000E-03 0.  1.
         11    1    3    3    0    0 -0.22011968619E+02 -0.30233114605E+02 -0.44565036890E+02  0.58177405361E+02  0.51100000000E-03 0. -1.
<mgrwt>
<rscale>  0 0.89532527E+02</rscale>
<asrwt>0</asrwt>
<pdfrwt beam="2">  1        1 0.10200046E-01 0.89532527E+02</pdfrwt>
<pdfrwt beam="1">  1       -1 0.46502130E-02 0.89532527E+02</pdfrwt>
<totfact> 0.10288226E+05</totfact>
</mgrwt>
</event>
<event>
 5   1  0.1357339E+00  0.9449959E+02  0.7818608E-02  0.1292307E+00
         -1   -1    0    0    0  501 -0.00000000000E+00  0.00000000000E+00  0.58395976802E+02  0.58395976989E+02  0.46700000000E-02 0.  1.
          1   -1    0    0  501    0  0.00000000000E+00 -0.00000000000E+00 -0.38231112141E+02  0.38231112427E+02  0.46700000000E-02 0. -1.
         23    2    1    2    0    0  0.00000000000E+00  0.00000000000E+00  0.20164864661E+02  0.96627089416E+02  0.94499590698E+02 0.  0.
        -11    1    3    3    0    0 -0.36561185682E+02 -0.19776232354E+02  0.33054269630E+02  0.53107479752E+02  0.51100000000E-03 0.  1.
         11    1    3    3    0    0  0.36561185682E+02  0.19776232354E+02 -0.12889404969E+02  0.43519609664E+02  0.51100000000E-03 0. -1.
<mgrwt>
<rscale>  0 0.94499591E+02</rscale>
<asrwt>0</asrwt>
<pdfrwt beam="2">  1        1 0.58817096E-02 0.94499591E+02</pdfrwt>
<pdfrwt beam="1">  1       -1 0.89839964E-02 0.94499591E+02</pdfrwt>
<totfact> 0.81329020E+04</totfact>
</mgrwt>
</event>
<event>
 5   1  0.1357339E+00  0.9127177E+02  0.7818608E-02  0.1299801E+00
          1   -1    0    0  501    0  0.00000000000E+00  0.00000000000E+00  0.39857553566E+02  0.39857553840E+02  0.46700000000E-02 0. -1.
         -1   -1    0    0    0  501 -0.00000000000E+00 -0.00000000000E+00 -0.52251922451E+02  0.52251922660E+02  0.46700000000E-02 0.  1.
         23    2    1    2    0    0  0.00000000000E+00  0.00000000000E+00 -0.12394368885E+02  0.92109476500E+02  0.91271766067E+02 0.  0.
        -11    1    3    3    0    0 -0.32529458041E+02 -0.24921581629E+02  0.14071549788E+02  0.43327351466E+02  0.51100000000E-03 0. -1.
         11    1    3    3    0    0  0.32529458041E+02  0.24921581629E+02 -0.26465918673E+02  0.48782125034E+02  0.51100000000E-03 0.  1.
<mgrwt>
<rscale>  0 0.91271766E+02</rscale>
<asrwt>0</asrwt>
<pdfrwt beam="1">  1        1 0.61319314E-02 0.91271766E+02</pdfrwt>
<pdfrwt beam="2">  1       -1 0.80387573E-02 0.91271766E+02</pdfrwt>
<totfact> 0.90348282E+04</totfact>
</mgrwt>
</event>
<event>
 5   1  0.1357339E+00  0.9089151E+02  0.7818608E-02  0.1300707E+00
         -1   -1    0    0    0  501 -0.00000000000E+00  0.00000000000E+00  0.19460649359E+03  0.19460649365E+03  0.46700000000E-02 0.  1.
          1   -1    0    0  501    0  0.00000000000E+00 -0.00000000000E+00 -0.10612782558E+02  0.10612783585E+02  0.46700000000E-02 0. -1.
         23    2    1    2    0    0  0.00000000000E+00  0.00000000000E+00  0.18399371103E+03  0.20521927723E+03  0.90891507018E+02 0.  0.
        -11    1    3    3    0    0 -0.30683982436E+02 -0.32815203574E+02  0.10747129973E+03  0.11648358094E+03  0.51100000000E-03 0.  1.
         11    1    3    3    0    0  0.30683982436E+02  0.32815203574E+02  0.76522411302E+02  0.88735696287E+02  0.51100000000E-03 0. -1.
<mgrwt>
<rscale>  0 0.90891507E+02</rscale>
<asrwt>0</asrwt>
<pdfrwt beam="2">  1        1 0.16327361E-02 0.90891507E+02</pdfrwt>
<pdfrwt beam="1">  1       -1 0.29939457E-01 0.90891507E+02</pdfrwt>
<totfact> 0.70537722E+04</totfact>
</mgrwt>
</event>
<event>
 5   1  0.1357339E+00  0.9153191E+02  0.7818608E-02  0.1299184E+00
          1   -1    0    0  501    0  0.00000000000E+00  0.00000000000E+00  0.35118563790E+02  0.35118564101E+02  0.46700000000E-02 0. -1.
         -1   -1    0    0    0  501 -0.00000000000E+00 -0.00000000000E+00 -0.59641460765E+02  0.59641460948E+02  0.46700000000E-02 0.  1.
         23    2    1    2    0    0  0.00000000000E+00  0.00000000000E+00 -0.24522896975E+02  0.94760025049E+02  0.91531906302E+02 0.  0.
        -11    1    3    3    0    0  0.67037369683E+01  0.17851055761E+02 -0.55333090818E+02  0.58526500159E+02  0.51100000000E-03 0.  1.
         11    1    3    3    0    0 -0.67037369683E+01 -0.17851055761E+02  0.30810193842E+02  0.36233524890E+02  0.51100000000E-03 0. -1.
<mgrwt>
<rscale>  0 0.91531906E+02</rscale>
<asrwt>0</asrwt>
<pdfrwt beam="1">  1        1 0.54028560E-02 0.91531906E+02</pdfrwt>
<pdfrwt beam="2">  1       -1 0.91756094E-02 0.91531906E+02</pdfrwt>
<totfact> 0.87892162E+04</totfact>
</mgrwt>
</event>
<event>
 5   1  0.1357339E+00  0.9041659E+02  0.7818608E-02  0.1301846E+00
         -1   -1    0    0    0  501 -0.00000000000E+00  0.00000000000E+00  0.98987347257E+02  0.98987347367E+02  0.46700000000E-02 0.  1.
          1   -1    0    0  501    0  0.00000000000E+00 -0.00000000000E+00 -0.20646979758E+02  0.20646980287E+02  0.46700000000E-02 0. -1.
         23    2    1    2    0    0  0.00000000000E+00  0.00000000000E+00  0.78340367498E+02  0.11963432765E+03  0.90416586826E+02 0.  0.
        -11    1    3    3    0    0  0.12183305932E+02 -0.34625319157E+02  0.74088302971E+02  0.82682660260E+02  0.51100000000E-03 0.  1.
         11    1    3    3    0    0 -0.12183305932E+02  0.34625319157E+02  0.42520645271E+01  0.36951667394E+02  0.51100000000E-03 0. -1.
<mgrwt>
<rscale>  0 0.90416587E+02</rscale>
<asrwt>0</asrwt>
<pdfrwt beam="2">  1        1 0.31764585E-02 0.90416587E+02</pdfrwt>
<pdfrwt beam="1">  1       -1 0.15228822E-01 0.90416587E+02</pdfrwt>
<totfact> 0.83299461E+04</totfact>
</mgrwt>
</event>
<event>
 5   1  0.1357339E+00  0.9193720E+02  0.7818608E-02  0.1298227E+00
         -1   -1    0    0    0  501 -0.00000000000E+00  0.00000000000E+00  0.42233785108E+02  0.42233785367E+02  0.46700000000E-02 0.  1.
          1   -1    0    0  501    0  0.00000000000E+00 -0.00000000000E+00 -0.50033691349E+02  0.50033691567E+02  0.46700000000E-02 0. -1.
         23    2    1    2    0    0  0.00000000000E+00  0.00000000000E+00 -0.77999062407E+01  0.92267476934E+02  0.91937200101E+02 0.  0.
        -11    1    3    3    0    0  0.34102281578E+02 -0.23650443878E+02 -0.23739710812E+02  0.47810908527E+02  0.51100000000E-03 0. -1.
         11    1    3    3    0    0 -0.34102281578E+02  0.23650443878E+02  0.15939804571E+02  0.44456568407E+02  0.51100000000E-03 0.  1.
<mgrwt>
<rscale>  0 0.91937200E+02</rscale>
<asrwt>0</asrwt>
<pdfrwt beam="2">  1        1 0.76974911E-02 0.91937200E+02</pdfrwt>
<pdfrwt beam="1">  1       -1 0.64975054E-02 0.91937200E+02</pdfrwt>
<totfact> 0.91618152E+04</totfact>
</mgrwt>
</event>
<event>
 5   1  0.1357339E+00  0.9081404E+02  0.7818608E-02  0.1300892E+00
         -1   -1    0    0    0  501 -0.00000000000E+00  0.00000000000E+00  0.14989866087E+03  0.14989866094E+03  0.46700000000E-02 0.  1.
          1   -1    0    0  501    0  0.00000000000E+00 -0.00000000000E+00 -0.13754607345E+02  0.13754608138E+02  0.46700000000E-02 0. -1.
         23    2    1    2    0    0  0.00000000000E+00  0.00000000000E+00  0.13614405352E+03  0.16365326908E+03  0.90814036196E+02 0.  0.
        -11    1    3    3    0    0 -0.31437778831E+01 -0.45059065097E+02  0.76446246344E+02  0.88793193811E+02  0.51100000000E-03 0.  1.
         11    1    3    3    0    0  0.31437778831E+01  0.45059065097E+02  0.59697807178E+02  0.74860075266E+02  0.51100000000E-03 0. -1.
<mgrwt>
<rscale>  0 0.90814036E+02</rscale>
<asrwt>0</asrwt>
<pdfrwt beam="2">  1        1 0.21160935E-02 0.90814036E+02</pdfrwt>
<pdfrwt beam="1">  1       -1 0.23061332E-01 0.90814036E+02</pdfrwt>
<totfact> 0.75578186E+04</totfact>
</mgrwt>
</event>
<event>
 5   1  0.1357339E+00  0.9217368E+02  0.7818608E-02  0.1297672E+00
          1   -1    0    0  501    0  0.00000000000E+00  0.00000000000E+00  0.34387846595E+02  0.34387846912E+02  0.46700000000E-02 0. -1.
         -1   -1    0    0    0  501 -0.00000000000E+00 -0.00000000000E+00 -0.61765910963E+02  0.61765911140E+02  0.46700000000E-02 0.  1.
         23    2    1    2    0    0  0.00000000000E+00  0.00000000000E+00 -0.27378064368E+02  0.96153758052E+02  0.92173677256E+02 0.  0.
        -11    1    3    3    0    0 -0.26062943382E+02 -0.35458070175E+02 -0.27971268184E+02  0.52143490508E+02  0.51100000000E-03 0.  1.
         11    1    3    3    0    0  0.26062943382E+02  0.35458070175E+02  0.59320381618E+00  0.44010267544E+02  0.51100000000E-03 0. -1.
<mgrwt>
<rscale>  0 0.92173677E+02</rscale>
<asrwt>0</asrwt>
<pdfrwt beam="1">  1        1 0.52904380E-02 0.92173677E+02</pdfrwt>
<pdfrwt beam="2">  1       -1 0.95024479E-02 0.92173677E+02</pdfrwt>
<totfact> 0.85873881E+04</totfact>
</mgrwt>
</event>
<event>
 5   1  0.1357339E+00  0.9249035E+02  0.7818608E-02  0.1296931E+00
         -1   -1    0    0    0  501 -0.00000000000E+00  0.00000000000E+00  0.73796713149E+01  0.73796727926E+01  0.46700000000E-02 0.  1.
          1   -1    0    0  501    0  0.00000000000E+00 -0.00000000000E+00 -0.28979825323E+03  0.28979825327E+03  0.46700000000E-02 0. -1.
         23    2    1    2    0    0  0.00000000000E+00  0.00000000000E+00 -0.28241858192E+03  0.29717792606E+03  0.92490347208E+02 0.  0.
        -11    1    3    3    0    0 -0.43555900867E+02  0.14446867273E+02 -0.15960747669E+03  0.16607340271E+03  0.51100000000E-03 0. -1.
         11    1    3    3    0    0  0.43555900867E+02 -0.14446867273E+02 -0.12281110523E+03  0.13110452335E+03  0.51100000000E-03 0.  1.
<mgrwt>
<rscale>  0 0.92490347E+02</rscale>
<asrwt>0</asrwt>
<pdfrwt beam="2">  1        1 0.44584338E-01 0.92490347E+02</pdfrwt>
<pdfrwt beam="1">  1       -1 0.11353344E-02 0.92490347E+02</pdfrwt>
<totfact> 0.12250766E+05</totfact>
</mgrwt>
</event>
<event>
 5   1  0.1357339E+00  0.8967352E+02  0.7818608E-02  0.1303644E+00
         -1   -1    0    0    0  501 -0.00000000000E+00  0.00000000000E+00  0.21851472192E+02  0.21851472691E+02  0.46700000000E-02 0.  1.
          1   -1    0    0  501    0  0.00000000000E+00 -0.00000000000E+00 -0.91999972771E+02  0.91999972890E+02  0.46700000000E-02 0. -1.
         23    2    1    2    0    0  0.00000000000E+00  0.00000000000E+00 -0.70148500579E+02  0.11385144558E+03  0.89673516311E+02 0.  0.
        -11    1    3    3    0    0 -0.23888293113E+02 -0.24809933752E+02 -0.71522601036E+02  0.79383032317E+02  0.51100000000E-03 0. -1.
         11    1    3    3    0    0  0.23888293113E+02  0.24809933752E+02  0.13741004566E+01  0.34468413265E+02  0.51100000000E-03 0.  1.
<mgrwt>
<rscale>  0 0.89673516E+02</rscale>
<asrwt>0</asrwt>
<pdfrwt beam="2">  1        1 0.14153842E-01 0.89673516E+02</pdfrwt>
<pdfrwt beam="1">  1       -1 0.33617650E-02 0.89673516E+02</pdfrwt>
<totfact> 0.10780755E+05</totfact>
</mgrwt>
</event>
<event>
 5   1  0.1357339E+00  0.8899993E+02  0.7818608E-02  0.1305292E+00
         -1   -1    0    0    0  501 -0.00000000000E+00  0.00000000000E+00  0.80211080250E+02  0.80211080386E+02  0.46700000000E-02 0.  1.
          1   -1    0    0  501    0  0.00000000000E+00 -0.00000000000E+00 -0.24687947953E+02  0.24687948395E+02  0.46700000000E-02 0. -1.
         23    2    1    2    0    0  0.00000000000E+00  0.00000000000E+00  0.55523132297E+02  0.10489902878E+03  0.88999932691E+02 0.  0.
        -11    1    3    3    0    0 -0.40592627093E+01  0.40727492104E+02  0.48347033858E+02  0.63345417435E+02  0.51100000000E-03 0.  1.
         11    1    3    3    0    0  0.40592627093E+01 -0.40727492104E+02  0.71760984385E+01  0.41553611346E+02  0.51100000000E-03 0. -1.
<mgrwt>
<rscale>  0 0.88999933E+02</rscale>
<asrwt>0</asrwt>
<pdfrwt beam="2">  1        1 0.37981459E-02 0.88999933E+02</pdfrwt>
<pdfrwt beam="1">  1       -1 0.12340166E-01 0.88999933E+02</pdfrwt>
<totfact> 0.90006162E+04</totfact>
</mgrwt>
</event>
<event>
 5   1  0.1357339E+00  0.9066018E+02  0.7818608E-02  0.1301261E+00
         -1   -1    0    0    0  501 -0.00000000000E+00  0.00000000000E+00  0.68758852050E+02  0.68758852208E+02  0.46700000000E-02 0.  1.
          1   -1    0    0  501    0  0.00000000000E+00 -0.00000000000E+00 -0.29884398925E+02  0.29884399290E+02  0.46700000000E-02 0. -1.
         23    2    1    2    0    0  0.00000000000E+00  0.00000000000E+00  0.38874453125E+02  0.98643251498E+02  0.90660178470E+02 0.  0.
        -11    1    3    3    0    0  0.10930067480E+00 -0.40316254293E+02 -0.31095363279E+01  0.40436141301E+02  0.51100000000E-03 0. -1.
         11    1    3    3    0    0 -0.10930067480E+00  0.40316254293E+02  0.41983989453E+02  0.58207110197E+02  0.51100000000E-03 0.  1.
<mgrwt>
<rscale>  0 0.90660178E+02</rscale>
<asrwt>0</asrwt>
<pdfrwt beam="2">  1        1 0.45975999E-02 0.90660178E+02</pdfrwt>
<pdfrwt beam="1">  1       -1 0.10578285E-01 0.90660178E+02</pdfrwt>
<totfact> 0.88054476E+04</totfact>
</mgrwt>
</event>
<event>
 5   1  0.1357339E+00  0.8868946E+02  0.7818608E-02  0.1306057E+00
          1   -1    0    0  501    0  0.00000000000E+00  0.00000000000E+00  0.24611355547E+02  0.24611355990E+02  0.46700000000E-02 0. -1.
         -1   -1    0    0    0  501 -0.00000000000E+00 -0.00000000000E+00 -0.79900315685E+02  0.79900315822E+02  0.46700000000E-02 0.  1.
         23    2    1    2    0    0  0.00000000000E+00  0.00000000000E+00 -0.55288960138E+02  0.10451167181E+03  0.88689460658E+02 0.  0.
        -11    1    3    3    0    0  0.85270937868E+01 -0.27260927300E+02 -0.67616146309E+02  0.73401721557E+02  0.51100000000E-03 0.  1.
         11    1    3    3    0    0 -0.85270937868E+01  0.27260927300E+02  0.12327186170E+02  0.31109950255E+02  0.51100000000E-03 0. -1.
<mgrwt>
<rscale>  0 0.88689461E+02</rscale>
<asrwt>0</asrwt>
<pdfrwt beam="1">  1        1 0.37863625E-02 0.88689461E+02</pdfrwt>
<pdfrwt beam="2">  1       -1 0.12292356E-01 0.88689461E+02</pdfrwt>
<totfact> 0.90872660E+04</totfact>
</mgrwt>
</event>
<event>
 5   1  0.1357339E+00  0.1122088E+03  0.7818608E-02  0.1256533E+00
          1   -1    0    0  501    0  0.00000000000E+00  0.00000000000E+00  0.78906540804E+02  0.78906540943E+02  0.46700000000E-02 0. -1.
         -1   -1    0    0    0  501 -0.00000000000E+00 -0.00000000000E+00 -0.39891574786E+02  0.39891575059E+02  0.46700000000E-02 0.  1.
         23    2    1    2    0    0  0.00000000000E+00  0.00000000000E+00  0.39014966019E+02  0.11879811600E+03  0.11220884454E+03 0.  0.
        -11    1    3    3    0    0  0.30123948583E+02 -0.47287683248E+02  0.21658784889E+02  0.60105575685E+02  0.51100000000E-03 0. -1.
         11    1    3    3    0    0 -0.30123948583E+02  0.47287683248E+02  0.17356181129E+02  0.58692540317E+02  0.51100000000E-03 0.  1.
<mgrwt>
<rscale>  0 0.11220884E+03</rscale>
<asrwt>0</asrwt>
<pdfrwt beam="1">  1        1 0.12139468E-01 0.11220884E+03</pdfrwt>
<pdfrwt beam="2">  1       -1 0.61371654E-02 0.11220884E+03</pdfrwt>
<totfact> 0.56350303E+04</totfact>
</mgrwt>
</event>
<event>
 5   1  0.1357339E+00  0.8870877E+02  0.7818608E-02  0.1306009E+00
          1   -1    0    0  501    0  0.00000000000E+00  0.00000000000E+00  0.26453548302E+03  0.26453548306E+03  0.46700000000E-02 0. -1.
         -1   -1    0    0    0  501 -0.00000000000E+00 -0.00000000000E+00 -0.74368527284E+01  0.74368541947E+01  0.46700000000E-02 0.  1.
         23    2    1    2    0    0  0.00000000000E+00  0.00000000000E+00  0.25709863029E+03  0.27197233726E+03  0.88708773719E+02 0.  0.
        -11    1    3    3    0    0  0.10133588882E+02 -0.41446917592E+02  0.91405693281E+02  0.10087386860E+03  0.51100000000E-03 0.  1.
         11    1    3    3    0    0 -0.10133588882E+02  0.41446917592E+02  0.16569293701E+03  0.17109846866E+03  0.51100000000E-03 0. -1.
<mgrwt>
<rscale>  0 0.88708774E+02</rscale>
<asrwt>0</asrwt>
<pdfrwt beam="1">  1        1 0.40697763E-01 0.88708774E+02</pdfrwt>
<pdfrwt beam="2">  1       -1 0.11441314E-02 0.88708774E+02</pdfrwt>
<totfact> 0.13452535E+05</totfact>
</mgrwt>
</event>
<event>
 5   1  0.1357339E+00  0.8637016E+02  0.7818608E-02  0.1311888E+00
          1   -1    0    0  501    0  0.00000000000E+00  0.00000000000E+00  0.75912212820E+02  0.75912212964E+02  0.46700000000E-02 0.  1.
         -1   -1    0    0    0  501 -0.00000000000E+00 -0.00000000000E+00 -0.24567207500E+02  0.24567207944E+02  0.46700000000E-02 0. -1.
         23    2    1    2    0    0  0.00000000000E+00  0.00000000000E+00  0.51345005320E+02  0.10047942091E+03  0.86370159514E+02 0.  0.
        -11    1    3    3    0    0  0.13653243127E+02  0.33482963130E+02  0.53139365321E+02  0.64275283079E+02  0.51100000000E-03 0.  1.
         11    1    3    3    0    0 -0.13653243127E+02 -0.33482963130E+02 -0.17943600012E+01  0.36204137829E+02  0.51100000000E-03 0. -1.
<mgrwt>
<rscale>  0 0.86370160E+02</rscale>
<asrwt>0</asrwt>
<pdfrwt beam="1">  1        1 0.11678802E-01 0.86370160E+02</pdfrwt>
<pdfrwt beam="2">  1       -1 0.37795705E-02 0.86370160E+02</pdfrwt>
<totfact> 0.11588339E+05</totfact>
</mgrwt>
</event>
<event>
 5   1  0.1357339E+00  0.9168128E+02  0.7818608E-02  0.1298831E+00
          1   -1    0    0  501    0  0.00000000000E+00  0.00000000000E+00  0.43179824578E+03  0.43179824581E+03  0.46700000000E-02 0. -1.
         -1   -1    0    0    0  501 -0.00000000000E+00 -0.00000000000E+00 -0.48665412255E+01  0.48665434662E+01  0.46700000000E-02 0.  1.
         23    2    1    2    0    0  0.00000000000E+00  0.00000000000E+00  0.42693170456E+03  0.43666478927E+03  0.91681283999E+02 0.  0.
        -11    1    3    3    0    0 -0.34322443056E+02  0.30050328755E+02  0.23493154619E+03  0.23931962675E+03  0.51100000000E-03 0.  1.
         11    1    3    3    0    0  0.34322443056E+02 -0.30050328755E+02  0.19200015837E+03  0.19734516252E+03  0.51100000000E-03 0. -1.
<mgrwt>
<rscale>  0 0.91681284E+02</rscale>
<asrwt>0</asrwt>
<pdfrwt beam="1">  1        1 0.66430489E-01 0.91681284E+02</pdfrwt>
<pdfrwt beam="2">  1       -1 0.74869894E-03 0.91681284E+02</pdfrwt>
<totfact> 0.13454128E+05</totfact>
</mgrwt>
</event>
<event>
 5   1  0.1357339E+00  0.9095583E+02  0.7818608E-02  0.1300553E+00
         -1   -1    0    0    0  501 -0.00000000000E+00  0.00000000000E+00  0.27222177731E+02  0.27222178132E+02  0.46700000000E-02 0.  1.
          1   -1    0    0  501    0  0.00000000000E+00 -0.00000000000E+00 -0.75976306014E+02  0.75976306158E+02  0.46700000000E-02 0. -1.
         23    2    1    2    0    0  0.00000000000E+00  0.00000000000E+00 -0.48754128283E+02  0.10319848429E+03  0.90955825185E+02 0.  0.
        -11    1    3    3    0    0  0.31321233820E+02  0.36623035991E+01  0.12802662676E+02  0.34034399180E+02  0.51100000000E-03 0.  1.
         11    1    3    3    0    0 -0.31321233820E+02 -0.36623035991E+01 -0.61556790959E+02  0.69164085110E+02  0.51100000000E-03 0. -1.
<mgrwt>
<rscale>  0 0.90955825E+02</rscale>
<asrwt>0</asrwt>
<pdfrwt beam="2">  1        1 0.11688662E-01 0.90955825E+02</pdfrwt>
<pdfrwt beam="1">  1       -1 0.41880274E-02 0.90955825E+02</pdfrwt>
<totfact> 0.10060018E+05</totfact>
</mgrwt>
</event>
<event>
 5   1  0.1357339E+00  0.9119977E+02  0.7818608E-02  0.1299972E+00
          1   -1    0    0  501    0  0.00000000000E+00  0.00000000000E+00  0.66645040493E+02  0.66645040656E+02  0.46700000000E-02 0. -1.
         -1   -1    0    0    0  501 -0.00000000000E+00 -0.00000000000E+00 -0.31200364145E+02  0.31200364494E+02  0.46700000000E-02 0.  1.
         23    2    1    2    0    0  0.00000000000E+00  0.00000000000E+00  0.35444676348E+02  0.97845405151E+02  0.91199770985E+02 0.  0.
        -11    1    3    3    0    0  0.60618862689E+01 -0.23015770222E+02  0.59452354782E+02  0.64039477148E+02  0.51100000000E-03 0. -1.
         11    1    3    3    0    0 -0.60618862689E+01  0.23015770222E+02 -0.24007678434E+02  0.33805928002E+02  0.51100000000E-03 0.  1.
<mgrwt>
<rscale>  0 0.91199771E+02</rscale>
<asrwt>0</asrwt>
<pdfrwt beam="1">  1        1 0.10253083E-01 0.91199771E+02</pdfrwt>
<pdfrwt beam="2">  1       -1 0.48000561E-02 0.91199771E+02</pdfrwt>
<totfact> 0.97856494E+04</totfact>
</mgrwt>
</event>
<event>
 5   1  0.1357339E+00  0.9937951E+02  0.7818608E-02  0.1281606E+00
         -1   -1    0    0    0  501 -0.00000000000E+00  0.00000000000E+00  0.50323596543E+02  0.50323596760E+02  0.46700000000E-02 0.  1.
          1   -1    0    0  501    0  0.00000000000E+00 -0.00000000000E+00 -0.49063898238E+02  0.49063898460E+02  0.46700000000E-02 0. -1.
         23    2    1    2    0    0  0.00000000000E+00  0.00000000000E+00  0.12596983050E+01  0.99387495220E+02  0.99379511804E+02 0.  0.
        -11    1    3    3    0    0  0.29575359914E+02 -0.10499519866E+02 -0.37897653590E+02  0.49205426320E+02  0.51100000000E-03 0. -1.
         11    1    3    3    0    0 -0.29575359914E+02  0.10499519866E+02  0.39157351895E+02  0.50182068900E+02  0.51100000000E-03 0.  1.
<mgrwt>
<rscale>  0 0.99379512E+02</rscale>
<asrwt>0</asrwt>
<pdfrwt beam="2">  1        1 0.75482921E-02 0.99379512E+02</pdfrwt>
<pdfrwt beam="1">  1       -1 0.77420918E-02 0.99379512E+02</pdfrwt>
<totfact> 0.73338095E+04</totfact>
</mgrwt>
</event>
<event>
 5   1  0.1357339E+00  0.9154590E+02  0.7818608E-02  0.1299151E+00
         -1   -1    0    0    0  501 -0.00000000000E+00  0.00000000000E+00  0.18311059167E+03  0.18311059173E+03  0.46700000000E-02 0.  1.
          1   -1    0    0  501    0  0.00000000000E+00 -0.00000000000E+00 -0.11442063469E+02  0.11442064422E+02  0.46700000000E-02 0. -1.
         23    2    1    2    0    0  0.00000000000E+00  0.00000000000E+00  0.17166852820E+03  0.19455265615E+03  0.91545903465E+02 0.  0.
        -11    1    3    3    0    0 -0.98487636240E+00  0.33356321793E+02  0.19252664422E+02  0.38526345176E+02  0.51100000000E-03 0. -1.
         11    1    3    3    0    0  0.98487636240E+00 -0.33356321793E+02  0.15241586378E+03  0.15602631098E+03  0.51100000000E-03 0.  1.
<mgrwt>
<rscale>  0 0.91545903E+02</rscale>
<asrwt>0</asrwt>
<pdfrwt beam="2">  1        1 0.17603176E-02 0.91545903E+02</pdfrwt>
<pdfrwt beam="1">  1       -1 0.28170859E-01 0.91545903E+02</pdfrwt>
<totfact> 0.70398429E+04</totfact>
</mgrwt>
</event>
<event>
 5   1  0.1357339E+00  0.9135199E+02  0.7818608E-02  0.1299610E+00
         -1   -1    0    0    0  501 -0.00000000000E+00  0.00000000000E+00  0.14098652888E+03  0.14098652896E+03  0.46700000000E-02 0.  1.
          1   -1    0    0  501    0  0.00000000000E+00 -0.00000000000E+00 -0.14797843489E+02  0.14797844225E+02  0.46700000000E-02 0. -1.
         23    2    1    2    0    0  0.00000000000E+00  0.00000000000E+00  0.12618868539E+03  0.15578437318E+03  0.91351992901E+02 0.  0.
        -11    1    3    3    0    0 -0.12633350438E+02  0.29760367480E+02  0.11811610435E+03  0.12246099429E+03  0.51100000000E-03 0.  1.
         11    1    3    3    0    0  0.12633350438E+02 -0.29760367480E+02  0.80725810422E+01  0.33323378892E+02  0.51100000000E-03 0. -1.
<mgrwt>
<rscale>  0 0.91351993E+02</rscale>
<asrwt>0</asrwt>
<pdfrwt beam="2">  1        1 0.22765914E-02 0.91351993E+02</pdfrwt>
<pdfrwt beam="1">  1       -1 0.21690235E-01 0.91351993E+02</pdfrwt>
<totfact> 0.75483352E+04</totfact>
</mgrwt>
</event>
<event>
 5   1  0.1357339E+00  0.9391568E+02  0.7818608E-02  0.1293637E+00
         -1   -1    0    0    0  501 -0.00000000000E+00  0.00000000000E+00  0.13353545438E+02  0.13353546255E+02  0.46700000000E-02 0.  1.
          1   -1    0    0  501    0  0.00000000000E+00 -0.00000000000E+00 -0.16512757384E+03  0.16512757390E+03  0.46700000000E-02 0. -1.
         23    2    1    2    0    0  0.00000000000E+00  0.00000000000E+00 -0.15177402840E+03  0.17848112016E+03  0.93915677905E+02 0.  0.
        -11    1    3    3    0    0 -0.29083181765E+02  0.73050121655E+01 -0.72118304706E+01  0.30841614149E+02  0.51100000000E-03 0.  1.
         11    1    3    3    0    0  0.29083181765E+02 -0.73050121655E+01 -0.14456219793E+03  0.14763950601E+03  0.51100000000E-03 0. -1.
<mgrwt>
<rscale>  0 0.93915678E+02</rscale>
<asrwt>0</asrwt>
<pdfrwt beam="2">  1        1 0.25404241E-01 0.93915678E+02</pdfrwt>
<pdfrwt beam="1">  1       -1 0.20543918E-02 0.93915678E+02</pdfrwt>
<totfact> 0.10538783E+05</totfact>
</mgrwt>
</event>
<event>
 5   1  0.1357339E+00  0.9093402E+02  0.7818608E-02  0.1300605E+00
          1   -1    0    0  501    0  0.00000000000E+00  0.00000000000E+00  0.33379410831E+03  0.33379410834E+03  0.46700000000E-02 0. -1.
         -1   -1    0    0    0  501 -0.00000000000E+00 -0.00000000000E+00 -0.61931848667E+01  0.61931866274E+01  0.46700000000E-02 0.  1.
         23    2    1    2    0    0  0.00000000000E+00  0.00000000000E+00  0.32760092344E+03  0.33998729497E+03  0.90934018387E+02 0.  0.
        -11    1    3    3    0    0  0.12629548700E+02  0.41857654898E+02  0.21045059909E+03  0.21494423331E+03  0.51100000000E-03 0.  1.
         11    1    3    3    0    0 -0.12629548700E+02 -0.41857654898E+02  0.11715032435E+03  0.12504306166E+03  0.51100000000E-03 0. -1.
<mgrwt>
<rscale>  0 0.90934018E+02</rscale>
<asrwt>0</asrwt>
<pdfrwt beam="1">  1        1 0.51352951E-01 0.90934018E+02</pdfrwt>
<pdfrwt beam="2">  1       -1 0.95279760E-03 0.90934018E+02</pdfrwt>
<totfact> 0.13163778E+05</totfact>
</mgrwt>
</event>
<event>
 5   1  0.1357339E+00  0.9198505E+02  0.7818608E-02  0.1298115E+00
          1   -1    0    0  501    0  0.00000000000E+00  0.00000000000E+00  0.92125724335E+02  0.92125724454E+02  0.46700000000E-02 0. -1.
         -1   -1    0    0    0  501 -0.00000000000E+00 -0.00000000000E+00 -0.22961147482E+02  0.22961147957E+02  0.46700000000E-02 0.  1.
         23    2    1    2    0    0  0.00000000000E+00  0.00000000000E+00  0.69164576854E+02  0.11508687241E+03  0.91985050470E+02 0.  0.
        -11    1    3    3    0    0 -0.19702866011E+02  0.41544325498E+02  0.35940499516E+02  0.58359689991E+02  0.51100000000E-03 0. -1.
         11    1    3    3    0    0  0.19702866011E+02 -0.41544325498E+02  0.33224077337E+02  0.56727182420E+02  0.51100000000E-03 0.  1.
<mgrwt>
<rscale>  0 0.91985050E+02</rscale>
<asrwt>0</asrwt>
<pdfrwt beam="1">  1        1 0.14173189E-01 0.91985050E+02</pdfrwt>
<pdfrwt beam="2">  1       -1 0.35324842E-02 0.91985050E+02</pdfrwt>
<totfact> 0.10059165E+05</totfact>
</mgrwt>
</event>
<event>
 5   1  0.1357339E+00  0.9334351E+02  0.7818608E-02  0.1294951E+00
         -1   -1    0    0    0  501 -0.00000000000E+00  0.00000000000E+00  0.10747106583E+03  0.10747106593E+03  0.46700000000E-02 0.  1.
          1   -1    0    0  501    0  0.00000000000E+00 -0.00000000000E+00 -0.20268270534E+02  0.20268271072E+02  0.46700000000E-02 0. -1.
         23    2    1    2    0    0  0.00000000000E+00  0.00000000000E+00  0.87202795291E+02  0.12773933700E+03  0.93343509204E+02 0.  0.
        -11    1    3    3    0    0 -0.90064741598E+00 -0.20144002495E+02  0.10120250153E+03  0.10319175509E+03  0.51100000000E-03 0.  1.
         11    1    3    3    0    0  0.90064741598E+00  0.20144002495E+02 -0.13999706242E+02  0.24547581906E+02  0.51100000000E-03 0. -1.
<mgrwt>
<rscale>  0 0.93343509E+02</rscale>
<asrwt>0</asrwt>
<pdfrwt beam="2">  1        1 0.31181955E-02 0.93343509E+02</pdfrwt>
<pdfrwt beam="1">  1       -1 0.16534010E-01 0.93343509E+02</pdfrwt>
<totfact> 0.75543986E+04</totfact>
</mgrwt>
</event>
<event>
 5   1  0.1357339E+00  0.9448822E+02  0.7818608E-02  0.1292333E+00
          1   -1    0    0  501    0  0.00000000000E+00  0.00000000000E+00  0.12774247923E+02  0.12774248777E+02  0.46700000000E-02 0. -1.
         -1   -1    0    0    0  501 -0.00000000000E+00 -0.00000000000E+00 -0.17472698126E+03  0.17472698132E+03  0.46700000000E-02 0.  1.
         23    2    1    2    0    0  0.00000000000E+00  0.00000000000E+00 -0.16195273333E+03  0.18750123010E+03  0.94488218596E+02 0.  0.
        -11    1    3    3    0    0  0.24096533870E+02 -0.38949421039E+02 -0.57979249909E+02  0.73887033803E+02  0.51100000000E-03 0. -1.
         11    1    3    3    0    0 -0.24096533870E+02  0.38949421039E+02 -0.10397348343E+03  0.11361419629E+03  0.51100000000E-03 0.  1.
<mgrwt>
<rscale>  0 0.94488219E+02</rscale>
<asrwt>0</asrwt>
<pdfrwt beam="1">  1        1 0.19652691E-02 0.94488219E+02</pdfrwt>
<pdfrwt beam="2">  1       -1 0.26881072E-01 0.94488219E+02</pdfrwt>
<totfact> 0.65635706E+04</totfact>
</mgrwt>
</event>
<event>
 5   1  0.1357339E+00  0.1055850E+03  0.7818608E-02  0.1268971E+00
         -1   -1    0    0    0  501 -0.00000000000E+00  0.00000000000E+00  0.19833223143E+03  0.19833223148E+03  0.46700000000E-02 0.  1.
          1   -1    0    0  501    0  0.00000000000E+00 -0.00000000000E+00 -0.14052428184E+02  0.14052428960E+02  0.46700000000E-02 0. -1.
         23    2    1    2    0    0  0.00000000000E+00  0.00000000000E+00  0.18427980324E+03  0.21238466044E+03  0.10558502786E+03 0.  0.
        -11    1    3    3    0    0  0.10972315947E+02 -0.29974462897E+02  0.17672331301E+03  0.17958282074E+03  0.51100000000E-03 0.  1.
         11    1    3    3    0    0 -0.10972315947E+02  0.29974462897E+02  0.75564902371E+01  0.32801839707E+02  0.51100000000E-03 0. -1.
<mgrwt>
<rscale>  0 0.10558503E+03</rscale>
<asrwt>0</asrwt>
<pdfrwt beam="2">  1        1 0.21619123E-02 0.10558503E+03</pdfrwt>
<pdfrwt beam="1">  1       -1 0.30512648E-01 0.10558503E+03</pdfrwt>
<totfact> 0.47405520E+04</totfact>
</mgrwt>
</event>
<event>
 5   1  0.1357339E+00  0.9159595E+02  0.7818608E-02  0.1299032E+00
         -1   -1    0    0    0  501 -0.00000000000E+00  0.00000000000E+00  0.44939975193E+02  0.44939975436E+02  0.46700000000E-02 0.  1.
          1   -1    0    0  501    0  0.00000000000E+00 -0.00000000000E+00 -0.46672352057E+02  0.46672352291E+02  0.46700000000E-02 0. -1.
         23    2    1    2    0    0  0.00000000000E+00  0.00000000000E+00 -0.17323768640E+01  0.91612327727E+02  0.91595946755E+02 0.  0.
        -11    1    3    3    0    0  0.24496988226E+00  0.29603220359E+02 -0.35815873411E+02  0.46467057732E+02  0.51100000000E-03 0. -1.
         11    1    3    3    0    0 -0.24496988226E+00 -0.29603220359E+02  0.34083496547E+02  0.45145269995E+02  0.51100000000E-03 0.  1.
<mgrwt>
<rscale>  0 0.91595947E+02</rscale>
<asrwt>0</asrwt>
<pdfrwt beam="2">  1        1 0.71803619E-02 0.91595947E+02</pdfrwt>
<pdfrwt beam="1">  1       -1 0.69138424E-02 0.91595947E+02</pdfrwt>
<totfact> 0.91612152E+04</totfact>
</mgrwt>
</event>
<event>
 5   1  0.1357339E+00  0.1008623E+03  0.7818608E-02  0.1278493E+00
          1   -1    0    0  501    0  0.00000000000E+00  0.00000000000E+00  0.30272764027E+02  0.30272764387E+02  0.46700000000E-02 0. -1.
         -1   -1    0    0    0  501 -0.00000000000E+00 -0.00000000000E+00 -0.84012921962E+02  0.84012922092E+02  0.46700000000E-02 0.  1.
         23    2    1    2    0    0  0.00000000000E+00  0.00000000000E+00 -0.53740157935E+02  0.11428568648E+03  0.10086234956E+03 0.  0.
        -11    1    3    3    0    0 -0.13689858921E+02 -0.46005128458E+02 -0.93376395868E+01  0.48898625697E+02  0.51100000000E-03 0. -1.
         11    1    3    3    0    0  0.13689858921E+02  0.46005128458E+02 -0.44402518348E+02  0.65387060782E+02  0.51100000000E-03 0.  1.
<mgrwt>
<rscale>  0 0.10086235E+03</rscale>
<asrwt>0</asrwt>
<pdfrwt beam="1">  1        1 0.46573484E-02 0.10086235E+03</pdfrwt>
<pdfrwt beam="2">  1       -1 0.12925065E-01 0.10086235E+03</pdfrwt>
<totfact> 0.64777116E+04</totfact>
</mgrwt>
</event>
<event>
 5   1  0.1357339E+00  0.9588350E+02  0.7818608E-02  0.1289199E+00
         -1   -1    0    0    0  501 -0.00000000000E+00  0.00000000000E+00  0.79646214477E+01  0.79646228168E+01  0.46700000000E-02 0.  1.
          1   -1    0    0  501    0  0.00000000000E+00 -0.00000000000E+00 -0.28857758575E+03  0.28857758579E+03  0.46700000000E-02 0. -1.
         23    2    1    2    0    0  0.00000000000E+00  0.00000000000E+00 -0.28061296431E+03  0.29654220861E+03  0.95883500925E+02 0.  0.
        -11    1    3    3    0    0  0.31765923629E+02 -0.30280624222E+02 -0.80622209130E+02  0.91792868528E+02  0.51100000000E-03 0.  1.
         11    1    3    3    0    0 -0.31765923629E+02  0.30280624222E+02 -0.19999075517E+03  0.20474934008E+03  0.51100000000E-03 0. -1.
<mgrwt>
<rscale>  0 0.95883501E+02</rscale>
<asrwt>0</asrwt>
<pdfrwt beam="2">  1        1 0.44396544E-01 0.95883501E+02</pdfrwt>
<pdfrwt beam="1">  1       -1 0.12253267E-02 0.95883501E+02</pdfrwt>
<totfact> 0.11115595E+05</totfact>
</mgrwt>
</event>
<event>
 5   1  0.1357339E+00  0.9744718E+02  0.7818608E-02  0.1285758E+00
         -1   -1    0    0    0  501 -0.00000000000E+00  0.00000000000E+00  0.74789269424E+01  0.74789284005E+01  0.46700000000E-02 0.  1.
          1   -1    0    0  501    0  0.00000000000E+00 -0.00000000000E+00 -0.31742359050E+03  0.31742359053E+03  0.46700000000E-02 0. -1.
         23    2    1    2    0    0  0.00000000000E+00  0.00000000000E+00 -0.30994466356E+03  0.32490251893E+03  0.97447177190E+02 0.  0.
        -11    1    3    3    0    0 -0.19402255661E+02  0.43431618855E+02 -0.11980781683E+03  0.12890564773E+03  0.51100000000E-03 0.  1.
         11    1    3    3    0    0  0.19402255661E+02 -0.43431618855E+02 -0.19013684672E+03  0.19599687121E+03  0.51100000000E-03 0. -1.
<mgrwt>
<rscale>  0 0.97447177E+02</rscale>
<asrwt>0</asrwt>
<pdfrwt beam="2">  1        1 0.48834388E-01 0.97447177E+02</pdfrwt>
<pdfrwt beam="1">  1       -1 0.11506045E-02 0.97447177E+02</pdfrwt>
<totfact> 0.10840470E+05</totfact>
</mgrwt>
</event>
<event>
 5   1  0.1357339E+00  0.9785116E+02  0.7818608E-02  0.1284881E+00
          1   -1    0    0  501    0  0.00000000000E+00  0.00000000000E+00  0.32381963905E+02  0.32381964241E+02  0.46700000000E-02 0. -1.
         -1   -1    0    0    0  501 -0.00000000000E+00 -0.00000000000E+00 -0.73921164954E+02  0.73921165101E+02  0.46700000000E-02 0.  1.
         23    2    1    2    0    0  0.00000000000E+00  0.00000000000E+00 -0.41539201049E+02  0.10630312934E+03  0.97851162917E+02 0.  0.
        -11    1    3    3    0    0 -0.94790865884E+00  0.47966905866E+02 -0.10350020706E+02  0.49079991016E+02  0.51100000000E-03 0. -1.
         11    1    3    3    0    0  0.94790865884E+00 -0.47966905866E+02 -0.31189180343E+02  0.57223138327E+02  0.51100000000E-03 0.  1.
<mgrwt>
<rscale>  0 0.97851163E+02</rscale>
<asrwt>0</asrwt>
<pdfrwt beam="1">  1        1 0.49818407E-02 0.97851163E+02</pdfrwt>
<pdfrwt beam="2">  1       -1 0.11372487E-01 0.97851163E+02</pdfrwt>
<totfact> 0.71597316E+04</totfact>
</mgrwt>
</event>
<event>
 5   1  0.1357339E+00  0.7894908E+02  0.7818608E-02  0.1332061E+00
         -1   -1    0    0    0  501 -0.00000000000E+00  0.00000000000E+00  0.14355093352E+02  0.14355094111E+02  0.46700000000E-02 0.  1.
          1   -1    0    0  501    0  0.00000000000E+00 -0.00000000000E+00 -0.10854956208E+03  0.10854956218E+03  0.46700000000E-02 0. -1.
         23    2    1    2    0    0  0.00000000000E+00  0.00000000000E+00 -0.94194468727E+02  0.12290465629E+03  0.78949075987E+02 0.  0.
        -11    1    3    3    0    0  0.18600878096E+02 -0.34576784147E+02 -0.40736873758E+02  0.56577730175E+02  0.51100000000E-03 0.  1.
         11    1    3    3    0    0 -0.18600878096E+02  0.34576784147E+02 -0.53457594969E+02  0.66326926116E+02  0.51100000000E-03 0. -1.
<mgrwt>
<rscale>  0 0.78949076E+02</rscale>
<asrwt>0</asrwt>
<pdfrwt beam="2">  1        1 0.16699932E-01 0.78949076E+02</pdfrwt>
<pdfrwt beam="1">  1       -1 0.22084760E-02 0.78949076E+02</pdfrwt>
<totfact> 0.15608169E+05</totfact>
</mgrwt>
</event>
<event>
 5   1  0.1357339E+00  0.9475502E+02  0.7818608E-02  0.1291729E+00
          1   -1    0    0  501    0  0.00000000000E+00  0.00000000000E+00  0.24115620922E+03  0.24115620927E+03  0.46700000000E-02 0. -1.
         -1   -1    0    0    0  501 -0.00000000000E+00 -0.00000000000E+00 -0.93077779513E+01  0.93077791228E+01  0.46700000000E-02 0.  1.
         23    2    1    2    0    0  0.00000000000E+00  0.00000000000E+00  0.23184843127E+03  0.25046398839E+03  0.94755023073E+02 0.  0.
        -11    1    3    3    0    0  0.37435705252E+02  0.28740830697E+02  0.10497413902E+03  0.11509577421E+03  0.51100000000E-03 0.  1.
         11    1    3    3    0    0 -0.37435705252E+02 -0.28740830697E+02  0.12687429225E+03  0.13536821418E+03  0.51100000000E-03 0. -1.
<mgrwt>
<rscale>  0 0.94755023E+02</rscale>
<asrwt>0</asrwt>
<pdfrwt beam="1">  1        1 0.37100953E-01 0.94755023E+02</pdfrwt>
<pdfrwt beam="2">  1       -1 0.14319660E-02 0.94755023E+02</pdfrwt>
<totfact> 0.11076601E+05</totfact>
</mgrwt>
</event>
<event>
 5   1  0.1357339E+00  0.8681837E+02  0.7818608E-02  0.1310745E+00
         -1   -1    0    0    0  501 -0.00000000000E+00  0.00000000000E+00  0.92182759853E+01  0.92182771683E+01  0.46700000000E-02 0.  1.
          1   -1    0    0  501    0  0.00000000000E+00 -0.00000000000E+00 -0.20441533776E+03  0.20441533782E+03  0.46700000000E-02 0. -1.
         23    2    1    2    0    0  0.00000000000E+00  0.00000000000E+00 -0.19519706178E+03  0.21363361499E+03  0.86818365136E+02 0.  0.
        -11    1    3    3    0    0 -0.33233723881E+02 -0.18491492928E+01 -0.16616579098E+03  0.16946672195E+03  0.51100000000E-03 0.  1.
         11    1    3    3    0    0  0.33233723881E+02  0.18491492928E+01 -0.29031270803E+02  0.44166893040E+02  0.51100000000E-03 0. -1.
<mgrwt>
<rscale>  0 0.86818365E+02</rscale>
<asrwt>0</asrwt>
<pdfrwt beam="2">  1        1 0.31448510E-01 0.86818365E+02</pdfrwt>
<pdfrwt beam="1">  1       -1 0.14181966E-02 0.86818365E+02</pdfrwt>
<totfact> 0.13553599E+05</totfact>
</mgrwt>
</event>
<event>
 5   1  0.1357339E+00  0.9218942E+02  0.7818608E-02  0.1297635E+00
         -1   -1    0    0    0  501 -0.00000000000E+00  0.00000000000E+00  0.41856728063E+01  0.41856754115E+01  0.46700000000E-02 0.  1.
          1   -1    0    0  501    0  0.00000000000E+00 -0.00000000000E+00 -0.50761768872E+03  0.50761768875E+03  0.46700000000E-02 0. -1.
         23    2    1    2    0    0  0.00000000000E+00  0.00000000000E+00 -0.50343201592E+03  0.51180336416E+03  0.92189418652E+02 0.  0.
        -11    1    3    3    0    0 -0.45760682628E+02 -0.53319920619E+01 -0.24338480779E+03  0.24770675178E+03  0.51100000000E-03 0.  1.
         11    1    3    3    0    0  0.45760682628E+02  0.53319920619E+01 -0.26004720813E+03  0.26409661238E+03  0.51100000000E-03 0. -1.
<mgrwt>
<rscale>  0 0.92189419E+02</rscale>
<asrwt>0</asrwt>
<pdfrwt beam="2">  1        1 0.78094981E-01 0.92189419E+02</pdfrwt>
<pdfrwt beam="1">  1       -1 0.64395026E-03 0.92189419E+02</pdfrwt>
<totfact> 0.13548263E+05</totfact>
</mgrwt>
</event>
<event>
 5   1  0.1357339E+00  0.9169822E+02  0.7818608E-02  0.1298791E+00
         -1   -1    0    0    0  501 -0.00000000000E+00  0.00000000000E+00  0.42639469317E+02  0.42639469573E+02  0.46700000000E-02 0.  1.
          1   -1    0    0  501    0  0.00000000000E+00 -0.00000000000E+00 -0.49300353744E+02  0.49300353965E+02  0.46700000000E-02 0. -1.
         23    2    1    2    0    0  0.00000000000E+00  0.00000000000E+00 -0.66608844268E+01  0.91939823538E+02  0.91698221198E+02 0.  0.
        -11    1    3    3    0    0 -0.34089326115E+02  0.24343216825E+02  0.15359126341E+02  0.44615884196E+02  0.51100000000E-03 0.  1.
         11    1    3    3    0    0  0.34089326115E+02 -0.24343216825E+02 -0.22020010768E+02  0.47323939342E+02  0.51100000000E-03 0. -1.
<mgrwt>
<rscale>  0 0.91698221E+02</rscale>
<asrwt>0</asrwt>
<pdfrwt beam="2">  1        1 0.75846698E-02 0.91698221E+02</pdfrwt>
<pdfrwt beam="1">  1       -1 0.65599184E-02 0.91698221E+02</pdfrwt>
<totfact> 0.92083262E+04</totfact>
</mgrwt>
</event>
<event>
 5   1  0.1357339E+00  0.1026512E+03  0.7818608E-02  0.1274818E+00
         -1   -1    0    0    0  501 -0.00000000000E+00  0.00000000000E+00  0.53217887246E+02  0.53217887451E+02  0.46700000000E-02 0.  1.
          1   -1    0    0  501    0  0.00000000000E+00 -0.00000000000E+00 -0.49500558364E+02  0.49500558584E+02  0.46700000000E-02 0. -1.
         23    2    1    2    0    0  0.00000000000E+00  0.00000000000E+00  0.37173288818E+01  0.10271844603E+03  0.10265115987E+03 0.  0.
        -11    1    3    3    0    0 -0.11808357944E+02  0.22975527795E+02  0.46238642838E+02  0.52965312107E+02  0.51100000000E-03 0.  1.
         11    1    3    3    0    0  0.11808357944E+02 -0.22975527795E+02 -0.42521313957E+02  0.49753133928E+02  0.51100000000E-03 0. -1.
<mgrwt>
<rscale>  0 0.10265116E+03</rscale>
<asrwt>0</asrwt>
<pdfrwt beam="2">  1        1 0.76154705E-02 0.10265116E+03</pdfrwt>
<pdfrwt beam="1">  1       -1 0.81873674E-02 0.10265116E+03</pdfrwt>
<totfact> 0.66978492E+04</totfact>
</mgrwt>
</event>
<event>
 5   1  0.1357339E+00  0.9142466E+02  0.7818608E-02  0.1299438E+00
         -1   -1    0    0    0  501 -0.00000000000E+00  0.00000000000E+00  0.12823877990E+03  0.12823877998E+03  0.46700000000E-02 0.  1.
          1   -1    0    0  501    0  0.00000000000E+00 -0.00000000000E+00 -0.16294736008E+02  0.16294736678E+02  0.46700000000E-02 0. -1.
         23    2    1    2    0    0  0.00000000000E+00  0.00000000000E+00  0.11194404389E+03  0.14453351666E+03  0.91424660109E+02 0.  0.
        -11    1    3    3    0    0  0.23631213858E+02 -0.38726280148E+02  0.47105132467E+02  0.65399178493E+02  0.51100000000E-03 0. -1.
         11    1    3    3    0    0 -0.23631213858E+02  0.38726280148E+02  0.64838911424E+02  0.79134338169E+02  0.51100000000E-03 0.  1.
<mgrwt>
<rscale>  0 0.91424660E+02</rscale>
<asrwt>0</asrwt>
<pdfrwt beam="2">  1        1 0.25068824E-02 0.91424660E+02</pdfrwt>
<pdfrwt beam="1">  1       -1 0.19729044E-01 0.91424660E+02</pdfrwt>
<totfact> 0.76907296E+04</totfact>
</mgrwt>
</event>
<event>
 5   1  0.1357339E+00  0.9198009E+02  0.7818608E-02  0.1298126E+00
          1   -1    0    0  501    0  0.00000000000E+00  0.00000000000E+00  0.23023451123E+02  0.23023451596E+02  0.46700000000E-02 0. -1.
         -1   -1    0    0    0  501 -0.00000000000E+00 -0.00000000000E+00 -0.91866507031E+02  0.91866507149E+02  0.46700000000E-02 0.  1.
         23    2    1    2    0    0  0.00000000000E+00  0.00000000000E+00 -0.68843055908E+02  0.11488995875E+03  0.91980086290E+02 0.  0.
        -11    1    3    3    0    0  0.17617210971E+01 -0.35295328040E+02 -0.71183806452E+02  0.79473254268E+02  0.51100000000E-03 0.  1.
         11    1    3    3    0    0 -0.17617210971E+01  0.35295328040E+02  0.23407505447E+01  0.35416704477E+02  0.51100000000E-03 0. -1.
<mgrwt>
<rscale>  0 0.91980086E+02</rscale>
<asrwt>0</asrwt>
<pdfrwt beam="1">  1        1 0.35420695E-02 0.91980086E+02</pdfrwt>
<pdfrwt beam="2">  1       -1 0.14133309E-01 0.91980086E+02</pdfrwt>
<totfact> 0.80795430E+04</totfact>
</mgrwt>
</event>
<event>
 5   1  0.1357339E+00  0.1235889E+03  0.7818608E-02  0.1237291E+00
         -1   -1    0    0    0  501 -0.00000000000E+00  0.00000000000E+00  0.25626788015E+03  0.25626788019E+03  0.46700000000E-02 0.  1.
          1   -1    0    0  501    0  0.00000000000E+00 -0.00000000000E+00 -0.14900635003E+02  0.14900635735E+02  0.46700000000E-02 0. -1.
         23    2    1    2    0    0  0.00000000000E+00  0.00000000000E+00  0.24136724515E+03  0.27116851593E+03  0.12358890322E+03 0.  0.
        -11    1    3    3    0    0 -0.47097946654E+02 -0.13418553839E+02  0.20337244071E+03  0.20918562046E+03  0.51100000000E-03 0.  1.
         11    1    3    3    0    0  0.47097946654E+02  0.13418553839E+02  0.37994804438E+02  0.61982895469E+02  0.51100000000E-03 0. -1.
<mgrwt>
<rscale>  0 0.12358890E+03</rscale>
<asrwt>0</asrwt>
<pdfrwt beam="2">  1        1 0.22924054E-02 0.12358890E+03</pdfrwt>
<pdfrwt beam="1">  1       -1 0.39425828E-01 0.12358890E+03</pdfrwt>
<totfact> 0.28804446E+04</totfact>
</mgrwt>
</event>
<event>
 5   1  0.1357339E+00  0.9152400E+02  0.7818608E-02  0.1299203E+00
         -1   -1    0    0    0  501 -0.00000000000E+00  0.00000000000E+00  0.17533818339E+02  0.17533818961E+02  0.46700000000E-02 0.  1.
          1   -1    0    0  501    0  0.00000000000E+00 -0.00000000000E+00 -0.11943550888E+03  0.11943550897E+03  0.46700000000E-02 0. -1.
         23    2    1    2    0    0  0.00000000000E+00  0.00000000000E+00 -0.10190169054E+03  0.13696932793E+03  0.91523998267E+02 0.  0.
        -11    1    3    3    0    0 -0.16180863808E+02  0.41975204925E+02 -0.38392173872E+02  0.59141332391E+02  0.51100000000E-03 0. -1.
         11    1    3    3    0    0  0.16180863808E+02 -0.41975204925E+02 -0.63509516668E+02  0.77827995540E+02  0.51100000000E-03 0.  1.
<mgrwt>
<rscale>  0 0.91523998E+02</rscale>
<asrwt>0</asrwt>
<pdfrwt beam="2">  1        1 0.18374693E-01 0.91523998E+02</pdfrwt>
<pdfrwt beam="1">  1       -1 0.26975106E-02 0.91523998E+02</pdfrwt>
<totfact> 0.10654534E+05</totfact>
</mgrwt>
</event>
<event>
 5   1  0.1357339E+00  0.9111464E+02  0.7818608E-02  0.1300175E+00
          1   -1    0    0  501    0  0.00000000000E+00  0.00000000000E+00  0.18013166061E+02  0.18013166666E+02  0.46700000000E-02 0. -1.
         -1   -1    0    0    0  501 -0.00000000000E+00 -0.00000000000E+00 -0.11521958345E+03  0.11521958354E+03  0.46700000000E-02 0.  1.
         23    2    1    2    0    0  0.00000000000E+00  0.00000000000E+00 -0.97206417385E+02  0.13323275021E+03  0.91114642878E+02 0.  0.
        -11    1    3    3    0    0 -0.44176179116E+02 -0.43171791203E+01 -0.63608008136E+02  0.77563854573E+02  0.51100000000E-03 0.  1.
         11    1    3    3    0    0  0.44176179116E+02  0.43171791203E+01 -0.33598409248E+02  0.55668895634E+02  0.51100000000E-03 0. -1.
<mgrwt>
<rscale>  0 0.91114643E+02</rscale>
<asrwt>0</asrwt>
<pdfrwt beam="1">  1        1 0.27712565E-02 0.91114643E+02</pdfrwt>
<pdfrwt beam="2">  1       -1 0.17726089E-01 0.91114643E+02</pdfrwt>
<totfact> 0.79318763E+04</totfact>
</mgrwt>
</event>
<event>
 5   1  0.1357339E+00  0.9158596E+02  0.7818608E-02  0.1299056E+00
         -1   -1    0    0    0  501 -0.00000000000E+00  0.00000000000E+00  0.15250812796E+03  0.15250812803E+03  0.46700000000E-02 0.  1.
          1   -1    0    0  501    0  0.00000000000E+00 -0.00000000000E+00 -0.13750067461E+02  0.13750068254E+02  0.46700000000E-02 0. -1.
         23    2    1    2    0    0  0.00000000000E+00  0.00000000000E+00  0.13875806050E+03  0.16625819629E+03  0.91585962235E+02 0.  0.
        -11    1    3    3    0    0  0.28246444968E+02 -0.16823129782E+02  0.11512668824E+02  0.34834191432E+02  0.51100000000E-03 0. -1.
         11    1    3    3    0    0 -0.28246444968E+02  0.16823129782E+02  0.12724539168E+03  0.13142400485E+03  0.51100000000E-03 0.  1.
<mgrwt>
<rscale>  0 0.91585962E+02</rscale>
<asrwt>0</asrwt>
<pdfrwt beam="2">  1        1 0.21153950E-02 0.91585962E+02</pdfrwt>
<pdfrwt beam="1">  1       -1 0.23462789E-01 0.91585962E+02</pdfrwt>
<totfact> 0.73635348E+04</totfact>
</mgrwt>
</event>
<event>
 5   1  0.1357339E+00  0.9108883E+02  0.7818608E-02  0.1300236E+00
         -1   -1    0    0    0  501 -0.00000000000E+00  0.00000000000E+00  0.49604228502E+02  0.49604228722E+02  0.46700000000E-02 0.  1.
          1   -1    0    0  501    0  0.00000000000E+00 -0.00000000000E+00 -0.41816870961E+02  0.41816871221E+02  0.46700000000E-02 0. -1.
         23    2    1    2    0    0  0.00000000000E+00  0.00000000000E+00  0.77873575417E+01  0.91421099944E+02  0.91088827951E+02 0.  0.
        -11    1    3    3    0    0  0.17812603857E+02 -0.27362164957E+02  0.35763513546E+02  0.48425260234E+02  0.51100000000E-03 0.  1.
         11    1    3    3    0    0 -0.17812603857E+02  0.27362164957E+02 -0.27976156004E+02  0.42995839710E+02  0.51100000000E-03 0. -1.
<mgrwt>
<rscale>  0 0.91088828E+02</rscale>
<asrwt>0</asrwt>
<pdfrwt beam="2">  1        1 0.64333648E-02 0.91088828E+02</pdfrwt>
<pdfrwt beam="1">  1       -1 0.76314198E-02 0.91088828E+02</pdfrwt>
<totfact> 0.91525315E+04</totfact>
</mgrwt>
</event>
<event>
 5   1  0.1357339E+00  0.9062942E+02  0.7818608E-02  0.1301335E+00
          1   -1    0    0  501    0  0.00000000000E+00  0.00000000000E+00  0.11441143925E+02  0.11441144878E+02  0.46700000000E-02 0. -1.
         -1   -1    0    0    0  501 -0.00000000000E+00 -0.00000000000E+00 -0.17947704690E+03  0.17947704696E+03  0.46700000000E-02 0.  1.
         23    2    1    2    0    0  0.00000000000E+00  0.00000000000E+00 -0.16803590297E+03  0.19091819184E+03  0.90629417335E+02 0.  0.
        -11    1    3    3    0    0  0.68593837371E+01 -0.33287870398E+02 -0.20880615609E+02  0.39889015648E+02  0.51100000000E-03 0. -1.
         11    1    3    3    0    0 -0.68593837371E+01  0.33287870398E+02 -0.14715528737E+03  0.15102917619E+03  0.51100000000E-03 0.  1.
<mgrwt>
<rscale>  0 0.90629417E+02</rscale>
<asrwt>0</asrwt>
<pdfrwt beam="1">  1        1 0.17601762E-02 0.90629417E+02</pdfrwt>
<pdfrwt beam="2">  1       -1 0.27611851E-01 0.90629417E+02</pdfrwt>
<totfact> 0.72653344E+04</totfact>
</mgrwt>
</event>
<event>
 5   1  0.1357339E+00  0.9154359E+02  0.7818608E-02  0.1299156E+00
          1   -1    0    0  501    0  0.00000000000E+00  0.00000000000E+00  0.27359902466E+02  0.27359902864E+02  0.46700000000E-02 0. -1.
         -1   -1    0    0    0  501 -0.00000000000E+00 -0.00000000000E+00 -0.76574001569E+02  0.76574001712E+02  0.46700000000E-02 0.  1.
         23    2    1    2    0    0  0.00000000000E+00  0.00000000000E+00 -0.49214099104E+02  0.10393390458E+03  0.91543590545E+02 0.  0.
        -11    1    3    3    0    0  0.77295827829E+01 -0.34750852088E+02 -0.57270564006E+02  0.67433564881E+02  0.51100000000E-03 0.  1.
         11    1    3    3    0    0 -0.77295827829E+01  0.34750852088E+02  0.80564649020E+01  0.36500339694E+02  0.51100000000E-03 0. -1.
<mgrwt>
<rscale>  0 0.91543591E+02</rscale>
<asrwt>0</asrwt>
<pdfrwt beam="1">  1        1 0.42092158E-02 0.91543591E+02</pdfrwt>
<pdfrwt beam="2">  1       -1 0.11780616E-01 0.91543591E+02</pdfrwt>
<totfact> 0.84402921E+04</totfact>
</mgrwt>
</event>
<event>
 5   1  0.1357339E+00  0.8861747E+02  0.7818608E-02  0.1306235E+00
          1   -1    0    0  501    0  0.00000000000E+00  0.00000000000E+00  0.36933972152E+03  0.36933972155E+03  0.46700000000E-02 0. -1.
         -1   -1    0    0    0  501 -0.00000000000E+00 -0.00000000000E+00 -0.53156037572E+01  0.53156058086E+01  0.46700000000E-02 0.  1.
         23    2    1    2    0    0  0.00000000000E+00  0.00000000000E+00  0.36402411776E+03  0.37465532735E+03  0.88617470088E+02 0.  0.
        -11    1    3    3    0    0  0.37385839552E+02 -0.23416387753E+02  0.19956411982E+03  0.20438166781E+03  0.51100000000E-03 0.  1.
         11    1    3    3    0    0 -0.37385839552E+02  0.23416387753E+02  0.16445999794E+03  0.17027365955E+03  0.51100000000E-03 0. -1.
<mgrwt>
<rscale>  0 0.88617470E+02</rscale>
<asrwt>0</asrwt>
<pdfrwt beam="1">  1        1 0.56821525E-01 0.88617470E+02</pdfrwt>
<pdfrwt beam="2">  1       -1 0.81778493E-03 0.88617470E+02</pdfrwt>
<totfact> 0.14352433E+05</totfact>
</mgrwt>
</event>
<event>
 5   1  0.1357339E+00  0.9373935E+02  0.7818608E-02  0.1294041E+00
          1   -1    0    0  501    0  0.00000000000E+00  0.00000000000E+00  0.10469291223E+03  0.10469291233E+03  0.46700000000E-02 0. -1.
         -1   -1    0    0    0  501 -0.00000000000E+00 -0.00000000000E+00 -0.20982952912E+02  0.20982953432E+02  0.46700000000E-02 0.  1.
         23    2    1    2    0    0  0.00000000000E+00  0.00000000000E+00  0.83709959314E+02  0.12567586576E+03  0.93739351111E+02 0.  0.
        -11    1    3    3    0    0 -0.42453125337E+02  0.13937062648E+02  0.60827442427E+02  0.75475077467E+02  0.51100000000E-03 0. -1.
         11    1    3    3    0    0  0.42453125337E+02 -0.13937062648E+02  0.22882516886E+02  0.50200788295E+02  0.51100000000E-03 0.  1.
<mgrwt>
<rscale>  0 0.93739351E+02</rscale>
<asrwt>0</asrwt>
<pdfrwt beam="1">  1        1 0.16106602E-01 0.93739351E+02</pdfrwt>
<pdfrwt beam="2">  1       -1 0.32281467E-02 0.93739351E+02</pdfrwt>
<totfact> 0.97585803E+04</totfact>
</mgrwt>
</event>
<event>
 5   1  0.1357339E+00  0.8640055E+02  0.7818608E-02  0.1311810E+00
         -1   -1    0    0    0  501 -0.00000000000E+00  0.00000000000E+00  0.17627493593E+02  0.17627494212E+02  0.46700000000E-02 0.  1.
          1   -1    0    0  501    0  0.00000000000E+00 -0.00000000000E+00 -0.10587231868E+03  0.10587231878E+03  0.46700000000E-02 0. -1.
         23    2    1    2    0    0  0.00000000000E+00  0.00000000000E+00 -0.88244825086E+02  0.12349981299E+03  0.86400547772E+02 0.  0.
        -11    1    3    3    0    0  0.24208279695E+02  0.58287125264E+01  0.63381641934E+01  0.25694104793E+02  0.51100000000E-03 0.  1.
         11    1    3    3    0    0 -0.24208279695E+02 -0.58287125264E+01 -0.94582989280E+02  0.97805708202E+02  0.51100000000E-03 0. -1.
<mgrwt>
<rscale>  0 0.86400548E+02</rscale>
<asrwt>0</asrwt>
<pdfrwt beam="2">  1        1 0.16288049E-01 0.86400548E+02</pdfrwt>
<pdfrwt beam="1">  1       -1 0.27119222E-02 0.86400548E+02</pdfrwt>
<totfact> 0.12200898E+05</totfact>
</mgrwt>
</event>
<event>
 5   1  0.1357339E+00  0.9011232E+02  0.7818608E-02  0.1302580E+00
         -1   -1    0    0    0  501 -0.00000000000E+00  0.00000000000E+00  0.38255667021E+02  0.38255667306E+02  0.46700000000E-02 0.  1.
          1   -1    0    0  501    0  0.00000000000E+00 -0.00000000000E+00 -0.53065537154E+02  0.53065537360E+02  0.46700000000E-02 0. -1.
         23    2    1    2    0    0  0.00000000000E+00  0.00000000000E+00 -0.14809870133E+02  0.91321204666E+02  0.90112319737E+02 0.  0.
        -11    1    3    3    0    0  0.12188631253E+02  0.19421371754E+02  0.31900755447E+02  0.39286264915E+02  0.51100000000E-03 0.  1.
         11    1    3    3    0    0 -0.12188631253E+02 -0.19421371754E+02 -0.46710625580E+02  0.52034939751E+02  0.51100000000E-03 0. -1.
<mgrwt>
<rscale>  0 0.90112320E+02</rscale>
<asrwt>0</asrwt>
<pdfrwt beam="2">  1        1 0.81639289E-02 0.90112320E+02</pdfrwt>
<pdfrwt beam="1">  1       -1 0.58854873E-02 0.90112320E+02</pdfrwt>
<totfact> 0.97748256E+04</totfact>
</mgrwt>
</event>
<event>
 5   1  0.1357339E+00  0.9050282E+02  0.7818608E-02  0.1301639E+00
         -1   -1    0    0    0  501 -0.00000000000E+00  0.00000000000E+00  0.69642706698E+01  0.69642722356E+01  0.46700000000E-02 0.  1.
          1   -1    0    0  501    0  0.00000000000E+00 -0.00000000000E+00 -0.29402790470E+03  0.29402790473E+03  0.46700000000E-02 0. -1.
         23    2    1    2    0    0  0.00000000000E+00  0.00000000000E+00 -0.28706363403E+03  0.30099217697E+03  0.90502821039E+02 0.  0.
        -11    1    3    3    0    0 -0.10442031377E+02 -0.43800799756E+02 -0.12860501549E+03  0.13626003114E+03  0.51100000000E-03 0.  1.
         11    1    3    3    0    0  0.10442031377E+02  0.43800799756E+02 -0.15845861854E+03  0.16473214583E+03  0.51100000000E-03 0. -1.
<mgrwt>
<rscale>  0 0.90502821E+02</rscale>
<asrwt>0</asrwt>
<pdfrwt beam="2">  1        1 0.45235053E-01 0.90502821E+02</pdfrwt>
<pdfrwt beam="1">  1       -1 0.10714266E-02 0.90502821E+02</pdfrwt>
<totfact> 0.13017751E+05</totfact>
</mgrwt>
</event>
<event>
 5   1  0.1357339E+00  0.9297293E+02  0.7818608E-02  0.1295808E+00
         -1   -1    0    0    0  501 -0.00000000000E+00  0.00000000000E+00  0.55133271939E+02  0.55133272137E+02  0.46700000000E-02 0.  1.
          1   -1    0    0  501    0  0.00000000000E+00 -0.00000000000E+00 -0.39195779619E+02  0.39195779897E+02  0.46700000000E-02 0. -1.
         23    2    1    2    0    0  0.00000000000E+00  0.00000000000E+00  0.15937492321E+02  0.94329052034E+02  0.92972933675E+02 0.  0.
        -11    1    3    3    0    0 -0.38789965681E+02  0.22689061411E+02  0.20039194360E+02  0.49203904886E+02  0.51100000000E-03 0. -1.
         11    1    3    3    0    0  0.38789965681E+02 -0.22689061411E+02 -0.41017020395E+01  0.45125147148E+02  0.51100000000E-03 0.  1.
<mgrwt>
<rscale>  0 0.92972934E+02</rscale>
<asrwt>0</asrwt>
<pdfrwt beam="2">  1        1 0.60301200E-02 0.92972934E+02</pdfrwt>
<pdfrwt beam="1">  1       -1 0.84820418E-02 0.92972934E+02</pdfrwt>
<totfact> 0.85520751E+04</totfact>
</mgrwt>
</event>
<event>
 5   1  0.1357339E+00  0.8912409E+02  0.7818608E-02  0.1304987E+00
         -1   -1    0    0    0  501 -0.00000000000E+00  0.00000000000E+00  0.89915623750E+02  0.89915623871E+02  0.46700000000E-02 0.  1.
          1   -1    0    0  501    0  0.00000000000E+00 -0.00000000000E+00 -0.22084881175E+02  0.22084881669E+02  0.46700000000E-02 0. -1.
         23    2    1    2    0    0  0.00000000000E+00  0.00000000000E+00  0.67830742575E+02  0.11200050554E+03  0.89124091037E+02 0.  0.
        -11    1    3    3    0    0  0.22935885921E+02 -0.36628972378E+02  0.20262047083E+02  0.47731405099E+02  0.51100000000E-03 0.  1.
         11    1    3    3    0    0 -0.22935885921E+02  0.36628972378E+02  0.47568695492E+02  0.64269100441E+02  0.51100000000E-03 0. -1.
<mgrwt>
<rscale>  0 0.89124091E+02</rscale>
<asrwt>0</asrwt>
<pdfrwt beam="2">  1        1 0.33976741E-02 0.89124091E+02</pdfrwt>
<pdfrwt beam="1">  1       -1 0.13833173E-01 0.89124091E+02</pdfrwt>
<totfact> 0.87945837E+04</totfact>
</mgrwt>
</event>
<event>
 5   1  0.1357339E+00  0.9235641E+02  0.7818608E-02  0.1297244E+00
          1   -1    0    0  501    0  0.00000000000E+00  0.00000000000E+00  0.10809451231E+02  0.10809452240E+02  0.46700000000E-02 0. -1.
         -1   -1    0    0    0  501 -0.00000000000E+00 -0.00000000000E+00 -0.19727427587E+03  0.19727427592E+03  0.46700000000E-02 0.  1.
         23    2    1    2    0    0  0.00000000000E+00  0.00000000000E+00 -0.18646482464E+03  0.20808372816E+03  0.92356413417E+02 0.  0.
        -11    1    3    3    0    0  0.29349960450E+02  0.73580569178E+01 -0.14637873974E+02  0.33612922140E+02  0.51100000000E-03 0. -1.
         11    1    3    3    0    0 -0.29349960450E+02 -0.73580569178E+01 -0.17182695066E+03  0.17447080602E+03  0.51100000000E-03 0.  1.
<mgrwt>
<rscale>  0 0.92356413E+02</rscale>
<asrwt>0</asrwt>
<pdfrwt beam="1">  1        1 0.16629927E-02 0.92356413E+02</pdfrwt>
<pdfrwt beam="2">  1       -1 0.30349886E-01 0.92356413E+02</pdfrwt>
<totfact> 0.67398394E+04</totfact>
</mgrwt>
</event>
<event>
 5   1  0.1357339E+00  0.8093981E+02  0.7818608E-02  0.1326405E+00
         -1   -1    0    0    0  501 -0.00000000000E+00  0.00000000000E+00  0.28200815436E+02  0.28200815823E+02  0.46700000000E-02 0.  1.
          1   -1    0    0  501    0  0.00000000000E+00 -0.00000000000E+00 -0.58076801479E+02  0.58076801667E+02  0.46700000000E-02 0. -1.
         23    2    1    2    0    0  0.00000000000E+00  0.00000000000E+00 -0.29875986042E+02  0.86277617490E+02  0.80939809351E+02 0.  0.
        -11    1    3    3    0    0  0.19580361623E+02  0.24082572727E+02  0.12744907438E+02  0.33552846918E+02  0.51100000000E-03 0.  1.
         11    1    3    3    0    0 -0.19580361623E+02 -0.24082572727E+02 -0.42620893481E+02  0.52724770572E+02  0.51100000000E-03 0. -1.
<mgrwt>
<rscale>  0 0.80939809E+02</rscale>
<asrwt>0</asrwt>
<pdfrwt beam="2">  1        1 0.89348926E-02 0.80939809E+02</pdfrwt>
<pdfrwt beam="1">  1       -1 0.43385870E-02 0.80939809E+02</pdfrwt>
<totfact> 0.13307739E+05</totfact>
</mgrwt>
</event>
<event>
 5   1  0.1357339E+00  0.9038712E+02  0.7818608E-02  0.1301917E+00
         -1   -1    0    0    0  501 -0.00000000000E+00  0.00000000000E+00  0.49002620032E+02  0.49002620254E+02  0.46700000000E-02 0.  1.
          1   -1    0    0  501    0  0.00000000000E+00 -0.00000000000E+00 -0.41680586987E+02  0.41680587249E+02  0.46700000000E-02 0. -1.
         23    2    1    2    0    0  0.00000000000E+00  0.00000000000E+00  0.73220330445E+01  0.90683207503E+02  0.90387122728E+02 0.  0.
        -11    1    3    3    0    0  0.27658755808E+02 -0.13444816471E+02  0.36885778757E+02  0.48024270297E+02  0.51100000000E-03 0.  1.
         11    1    3    3    0    0 -0.27658755808E+02  0.13444816471E+02 -0.29563745712E+02  0.42658937206E+02  0.51100000000E-03 0. -1.
<mgrwt>
<rscale>  0 0.90387123E+02</rscale>
<asrwt>0</asrwt>
<pdfrwt beam="2">  1        1 0.64123980E-02 0.90387123E+02</pdfrwt>
<pdfrwt beam="1">  1       -1 0.75388647E-02 0.90387123E+02</pdfrwt>
<totfact> 0.93492929E+04</totfact>
</mgrwt>
</event>
<event>
 5   1  0.1357339E+00  0.1080471E+03  0.7818608E-02  0.1264230E+00
          1   -1    0    0  501    0  0.00000000000E+00  0.00000000000E+00  0.10444958758E+02  0.10444959802E+02  0.46700000000E-02 0. -1.
         -1   -1    0    0    0  501 -0.00000000000E+00 -0.00000000000E+00 -0.27942137227E+03  0.27942137231E+03  0.46700000000E-02 0.  1.
         23    2    1    2    0    0  0.00000000000E+00  0.00000000000E+00 -0.26897641351E+03  0.28986633211E+03  0.10804711688E+03 0.  0.
        -11    1    3    3    0    0  0.50199946829E+02  0.15297880840E+02 -0.16889528565E+03  0.17686061556E+03  0.51100000000E-03 0.  1.
         11    1    3    3    0    0 -0.50199946829E+02 -0.15297880840E+02 -0.10008112786E+03  0.11300571655E+03  0.51100000000E-03 0. -1.
<mgrwt>
<rscale>  0 0.10804712E+03</rscale>
<asrwt>0</asrwt>
<pdfrwt beam="1">  1        1 0.16069170E-02 0.10804712E+03</pdfrwt>
<pdfrwt beam="2">  1       -1 0.42987898E-01 0.10804712E+03</pdfrwt>
<totfact> 0.39846291E+04</totfact>
</mgrwt>
</event>
<event>
 5   1  0.1357339E+00  0.9368587E+02  0.7818608E-02  0.1294164E+00
         -1   -1    0    0    0  501 -0.00000000000E+00  0.00000000000E+00  0.30772055942E+03  0.30772055946E+03  0.46700000000E-02 0.  1.
          1   -1    0    0  501    0  0.00000000000E+00 -0.00000000000E+00 -0.71306917909E+01  0.71306933202E+01  0.46700000000E-02 0. -1.
         23    2    1    2    0    0  0.00000000000E+00  0.00000000000E+00  0.30058986763E+03  0.31485125278E+03  0.93685873285E+02 0.  0.
        -11    1    3    3    0    0 -0.25647556713E+02  0.37420796908E+02  0.18950848394E+03  0.19486297414E+03  0.51100000000E-03 0.  1.
         11    1    3    3    0    0  0.25647556713E+02 -0.37420796908E+02  0.11108138369E+03  0.11998827864E+03  0.51100000000E-03 0. -1.
<mgrwt>
<rscale>  0 0.93685873E+02</rscale>
<asrwt>0</asrwt>
<pdfrwt beam="2">  1        1 0.10970298E-02 0.93685873E+02</pdfrwt>
<pdfrwt beam="1">  1       -1 0.47341619E-01 0.93685873E+02</pdfrwt>
<totfact> 0.55859676E+04</totfact>
</mgrwt>
</event>
<event>
 5   1  0.1357339E+00  0.7790156E+02  0.7818608E-02  0.1335114E+00
          1   -1    0    0  501    0  0.00000000000E+00  0.00000000000E+00  0.83504234199E+02  0.83504234329E+02  0.46700000000E-02 0. -1.
         -1   -1    0    0    0  501 -0.00000000000E+00 -0.00000000000E+00 -0.18168699225E+02  0.18168699825E+02  0.46700000000E-02 0.  1.
         23    2    1    2    0    0  0.00000000000E+00  0.00000000000E+00  0.65335534974E+02  0.10167293415E+03  0.77901562304E+02 0.  0.
        -11    1    3    3    0    0  0.26294316301E+02  0.25407187419E+02  0.50190157568E+02  0.62096442404E+02  0.51100000000E-03 0. -1.
         11    1    3    3    0    0 -0.26294316301E+02 -0.25407187419E+02  0.15145377406E+02  0.39576491751E+02  0.51100000000E-03 0.  1.
<mgrwt>
<rscale>  0 0.77901562E+02</rscale>
<asrwt>0</asrwt>
<pdfrwt beam="1">  1        1 0.12846806E-01 0.77901562E+02</pdfrwt>
<pdfrwt beam="2">  1       -1 0.27951845E-02 0.77901562E+02</pdfrwt>
<totfact> 0.15539379E+05</totfact>
</mgrwt>
</event>
<event>
 5   1  0.1357339E+00  0.9039719E+02  0.7818608E-02  0.1301893E+00
         -1   -1    0    0    0  501 -0.00000000000E+00  0.00000000000E+00  0.43199240971E+02  0.43199241224E+02  0.46700000000E-02 0.  1.
          1   -1    0    0  501    0  0.00000000000E+00 -0.00000000000E+00 -0.47290478721E+02  0.47290478951E+02  0.46700000000E-02 0. -1.
         23    2    1    2    0    0  0.00000000000E+00  0.00000000000E+00 -0.40912377495E+01  0.90489720175E+02  0.90397185968E+02 0.  0.
        -11    1    3    3    0    0 -0.46374582553E+01 -0.34463321586E+02 -0.30948800655E+02  0.46551636019E+02  0.51100000000E-03 0. -1.
         11    1    3    3    0    0  0.46374582553E+01  0.34463321586E+02  0.26857562906E+02  0.43938084156E+02  0.51100000000E-03 0.  1.
<mgrwt>
<rscale>  0 0.90397186E+02</rscale>
<asrwt>0</asrwt>
<pdfrwt beam="2">  1        1 0.72754583E-02 0.90397186E+02</pdfrwt>
<pdfrwt beam="1">  1       -1 0.66460371E-02 0.90397186E+02</pdfrwt>
<totfact> 0.95244668E+04</totfact>
</mgrwt>
</event>
<event>
 5   1  0.1357339E+00  0.9220743E+02  0.7818608E-02  0.1297592E+00
         -1   -1    0    0    0  501 -0.00000000000E+00  0.00000000000E+00  0.55234445371E+02  0.55234445569E+02  0.46700000000E-02 0.  1.
          1   -1    0    0  501    0  0.00000000000E+00 -0.00000000000E+00 -0.38482370611E+02  0.38482370894E+02  0.46700000000E-02 0. -1.
         23    2    1    2    0    0  0.00000000000E+00  0.00000000000E+00  0.16752074761E+02  0.93716816463E+02  0.92207427462E+02 0.  0.
        -11    1    3    3    0    0  0.25422160380E+02 -0.24429349322E+02  0.38568765268E+02  0.52255420784E+02  0.51100000000E-03 0.  1.
         11    1    3    3    0    0 -0.25422160380E+02  0.24429349322E+02 -0.21816690508E+02  0.41461395679E+02  0.51100000000E-03 0. -1.
<mgrwt>
<rscale>  0 0.92207427E+02</rscale>
<asrwt>0</asrwt>
<pdfrwt beam="2">  1        1 0.59203648E-02 0.92207427E+02</pdfrwt>
<pdfrwt beam="1">  1       -1 0.84976069E-02 0.92207427E+02</pdfrwt>
<totfact> 0.87303288E+04</totfact>
</mgrwt>
</event>
<event>
 5   1  0.1357339E+00  0.8942149E+02  0.7818608E-02  0.1304259E+00
          1   -1    0    0  501    0  0.00000000000E+00  0.00000000000E+00  0.53296471512E+02  0.53296471717E+02  0.46700000000E-02 0. -1.
         -1   -1    0    0    0  501 -0.00000000000E+00 -0.00000000000E+00 -0.37508121114E+02  0.37508121405E+02  0.46700000000E-02 0.  1.
         23    2    1    2    0    0  0.00000000000E+00  0.00000000000E+00  0.15788350398E+02  0.90804593121E+02  0.89421485805E+02 0.  0.
        -11    1    3    3    0    0 -0.22078233262E+02 -0.35620502397E+02  0.23716639983E+02  0.48153375659E+02  0.51100000000E-03 0. -1.
         11    1    3    3    0    0  0.22078233262E+02  0.35620502397E+02 -0.79282895843E+01  0.42651217462E+02  0.51100000000E-03 0.  1.
<mgrwt>
<rscale>  0 0.89421486E+02</rscale>
<asrwt>0</asrwt>
<pdfrwt beam="1">  1        1 0.81994571E-02 0.89421486E+02</pdfrwt>
<pdfrwt beam="2">  1       -1 0.57704803E-02 0.89421486E+02</pdfrwt>
<totfact> 0.99924843E+04</totfact>
</mgrwt>
</event>
<event>
 5   1  0.1357339E+00  0.9640290E+02  0.7818608E-02  0.1288047E+00
         -1   -1    0    0    0  501 -0.00000000000E+00  0.00000000000E+00  0.18683765470E+02  0.18683766053E+02  0.46700000000E-02 0.  1.
          1   -1    0    0  501    0  0.00000000000E+00 -0.00000000000E+00 -0.12435286191E+03  0.12435286200E+03  0.46700000000E-02 0. -1.
         23    2    1    2    0    0  0.00000000000E+00  0.00000000000E+00 -0.10566909644E+03  0.14303662805E+03  0.96402899446E+02 0.  0.
        -11    1    3    3    0    0  0.20575730256E+02  0.25283560426E+02 -0.15118516720E+00  0.32598189529E+02  0.51100000000E-03 0.  1.
         11    1    3    3    0    0 -0.20575730256E+02 -0.25283560426E+02 -0.10551791127E+03  0.11043843852E+03  0.51100000000E-03 0. -1.
<mgrwt>
<rscale>  0 0.96402899E+02</rscale>
<asrwt>0</asrwt>
<pdfrwt beam="2">  1        1 0.19131209E-01 0.96402899E+02</pdfrwt>
<pdfrwt beam="1">  1       -1 0.28744256E-02 0.96402899E+02</pdfrwt>
<totfact> 0.93156665E+04</totfact>
</mgrwt>
</event>
<event>
 5   1  0.1357339E+00  0.8894569E+02  0.7818608E-02  0.1305425E+00
          1   -1    0    0  501    0  0.00000000000E+00  0.00000000000E+00  0.73145691721E+02  0.73145691871E+02  0.46700000000E-02 0. -1.
         -1   -1    0    0    0  501 -0.00000000000E+00 -0.00000000000E+00 -0.27039650254E+02  0.27039650657E+02  0.46700000000E-02 0.  1.
         23    2    1    2    0    0  0.00000000000E+00  0.00000000000E+00  0.46106041468E+02  0.10018534253E+03  0.88945690157E+02 0.  0.
        -11    1    3    3    0    0 -0.12985860482E+02  0.11092820704E+02  0.69304696485E+02  0.71378037230E+02  0.51100000000E-03 0. -1.
         11    1    3    3    0    0  0.12985860482E+02 -0.11092820704E+02 -0.23198655018E+02  0.28807305297E+02  0.51100000000E-03 0.  1.
<mgrwt>
<rscale>  0 0.88945690E+02</rscale>
<asrwt>0</asrwt>
<pdfrwt beam="1">  1        1 0.11253183E-01 0.88945690E+02</pdfrwt>
<pdfrwt beam="2">  1       -1 0.41599462E-02 0.88945690E+02</pdfrwt>
<totfact> 0.10633551E+05</totfact>
</mgrwt>
</event>
<event>
 5   1  0.1357339E+00  0.9230354E+02  0.7818608E-02  0.1297367E+00
         -1   -1    0    0    0  501 -0.00000000000E+00  0.00000000000E+00  0.36995003826E+02  0.36995004121E+02  0.46700000000E-02 0.  1.
          1   -1    0    0  501    0  0.00000000000E+00 -0.00000000000E+00 -0.57574963193E+02  0.57574963382E+02  0.46700000000E-02 0. -1.
         23    2    1    2    0    0  0.00000000000E+00  0.00000000000E+00 -0.20579959367E+02  0.94569967504E+02  0.92303542869E+02 0.  0.
        -11    1    3    3    0    0  0.14419349852E+02  0.41036450473E+02 -0.26098622342E+02  0.50725200896E+02  0.51100000000E-03 0. -1.
         11    1    3    3    0    0 -0.14419349852E+02 -0.41036450473E+02  0.55186629754E+01  0.43844766607E+02  0.51100000000E-03 0.  1.
<mgrwt>
<rscale>  0 0.92303543E+02</rscale>
<asrwt>0</asrwt>
<pdfrwt beam="2">  1        1 0.88576867E-02 0.92303543E+02</pdfrwt>
<pdfrwt beam="1">  1       -1 0.56915390E-02 0.92303543E+02</pdfrwt>
<totfact> 0.92553631E+04</totfact>
</mgrwt>
</event>
<event>
 5   1  0.1357339E+00  0.9120242E+02  0.7818608E-02  0.1299966E+00
          1   -1    0    0  501    0  0.00000000000E+00  0.00000000000E+00  0.37632168478E+02  0.37632168768E+02  0.46700000000E-02 0. -1.
         -1   -1    0    0    0  501 -0.00000000000E+00 -0.00000000000E+00 -0.55257785475E+02  0.55257785672E+02  0.46700000000E-02 0.  1.
         23    2    1    2    0    0  0.00000000000E+00  0.00000000000E+00 -0.17625616997E+02  0.92889954440E+02  0.91202419164E+02 0.  0.
        -11    1    3    3    0    0  0.20595690840E+02  0.15058446879E+02  0.29682448912E+02  0.39140606501E+02  0.51100000000E-03 0. -1.
         11    1    3    3    0    0 -0.20595690840E+02 -0.15058446879E+02 -0.47308065908E+02  0.53749347939E+02  0.51100000000E-03 0.  1.
<mgrwt>
<rscale>  0 0.91202419E+02</rscale>
<asrwt>0</asrwt>
<pdfrwt beam="1">  1        1 0.57895644E-02 0.91202419E+02</pdfrwt>
<pdfrwt beam="2">  1       -1 0.85011978E-02 0.91202419E+02</pdfrwt>
<totfact> 0.89751842E+04</totfact>
</mgrwt>
</event>
<event>
 5   1  0.1357339E+00  0.6411900E+02  0.7818608E-02  0.1381316E+00
          1   -1    0    0  501    0  0.00000000000E+00  0.00000000000E+00  0.23660714735E+02  0.23660715196E+02  0.46700000000E-02 0. -1.
         -1   -1    0    0    0  501 -0.00000000000E+00 -0.00000000000E+00 -0.43439582255E+02  0.43439582506E+02  0.46700000000E-02 0.  1.
         23    2    1    2    0    0  0.00000000000E+00  0.00000000000E+00 -0.19778867520E+02  0.67100297703E+02  0.64119001485E+02 0.  0.
        -11    1    3    3    0    0  0.17751498006E+02  0.69286192740E+01  0.17090899830E+02  0.25597271413E+02  0.51100000000E-03 0. -1.
         11    1    3    3    0    0 -0.17751498006E+02 -0.69286192740E+01 -0.36869767350E+02  0.41503026290E+02  0.51100000000E-03 0.  1.
<mgrwt>
<rscale>  0 0.64119001E+02</rscale>
<asrwt>0</asrwt>
<pdfrwt beam="1">  1        1 0.36401100E-02 0.64119001E+02</pdfrwt>
<pdfrwt beam="2">  1       -1 0.66830127E-02 0.64119001E+02</pdfrwt>
<totfact> 0.22440298E+05</totfact>
</mgrwt>
</event>
<event>
 5   1  0.1357339E+00  0.9209283E+02  0.7818608E-02  0.1297861E+00
         -1   -1    0    0    0  501 -0.00000000000E+00  0.00000000000E+00  0.59501429509E+02  0.59501429692E+02  0.46700000000E-02 0.  1.
          1   -1    0    0  501    0  0.00000000000E+00 -0.00000000000E+00 -0.35633970780E+02  0.35633971086E+02  0.46700000000E-02 0. -1.
         23    2    1    2    0    0  0.00000000000E+00  0.00000000000E+00  0.23867458729E+02  0.95135400778E+02  0.92092827598E+02 0.  0.
        -11    1    3    3    0    0  0.27953479729E+02  0.19262021280E+01  0.49680847842E+02  0.57037653582E+02  0.51100000000E-03 0.  1.
         11    1    3    3    0    0 -0.27953479729E+02 -0.19262021280E+01 -0.25813389114E+02  0.38097747196E+02  0.51100000000E-03 0. -1.
<mgrwt>
<rscale>  0 0.92092828E+02</rscale>
<asrwt>0</asrwt>
<pdfrwt beam="2">  1        1 0.54821494E-02 0.92092828E+02</pdfrwt>
<pdfrwt beam="1">  1       -1 0.91540660E-02 0.92092828E+02</pdfrwt>
<totfact> 0.86571922E+04</totfact>
</mgrwt>
</event>
<event>
 5   1  0.1357339E+00  0.9270809E+02  0.7818608E-02  0.1296423E+00
          1   -1    0    0  501    0  0.00000000000E+00  0.00000000000E+00  0.78644894719E+02  0.78644894857E+02  0.46700000000E-02 0. -1.
         -1   -1    0    0    0  501 -0.00000000000E+00 -0.00000000000E+00 -0.27321511076E+02  0.27321511475E+02  0.46700000000E-02 0.  1.
         23    2    1    2    0    0  0.00000000000E+00  0.00000000000E+00  0.51323383643E+02  0.10596640633E+03  0.92708087901E+02 0.  0.
        -11    1    3    3    0    0  0.45674921659E+02 -0.61604717514E+01  0.31324792742E+02  0.55726048859E+02  0.51100000000E-03 0. -1.
         11    1    3    3    0    0 -0.45674921659E+02  0.61604717514E+01  0.19998590901E+02  0.50240357473E+02  0.51100000000E-03 0.  1.
<mgrwt>
<rscale>  0 0.92708088E+02</rscale>
<asrwt>0</asrwt>
<pdfrwt beam="1">  1        1 0.12099215E-01 0.92708088E+02</pdfrwt>
<pdfrwt beam="2">  1       -1 0.42033094E-02 0.92708088E+02</pdfrwt>
<totfact> 0.95972033E+04</totfact>
</mgrwt>
</event>
<event>
 5   1  0.1357339E+00  0.9794977E+02  0.7818608E-02  0.1284667E+00
          1   -1    0    0  501    0  0.00000000000E+00  0.00000000000E+00  0.90692400471E+02  0.90692400591E+02  0.46700000000E-02 0. -1.
         -1   -1    0    0    0  501 -0.00000000000E+00 -0.00000000000E+00 -0.26446973897E+02  0.26446974310E+02  0.46700000000E-02 0.  1.
         23    2    1    2    0    0  0.00000000000E+00  0.00000000000E+00  0.64245426573E+02  0.11713937490E+03  0.97949774459E+02 0.  0.
        -11    1    3    3    0    0  0.43103942713E+02  0.11896946342E+02  0.56012617509E+02  0.71672174030E+02  0.51100000000E-03 0. -1.
         11    1    3    3    0    0 -0.43103942713E+02 -0.11896946342E+02  0.82328090642E+01  0.45467200871E+02  0.51100000000E-03 0.  1.
<mgrwt>
<rscale>  0 0.97949774E+02</rscale>
<asrwt>0</asrwt>
<pdfrwt beam="1">  1        1 0.13952677E-01 0.97949774E+02</pdfrwt>
<pdfrwt beam="2">  1       -1 0.40687653E-02 0.97949774E+02</pdfrwt>
<totfact> 0.84409977E+04</totfact>
</mgrwt>
</event>
<event>
 5   1  0.1357339E+00  0.9128611E+02  0.7818608E-02  0.1299767E+00
         -1   -1    0    0    0  501 -0.00000000000E+00  0.00000000000E+00  0.20293771333E+03  0.20293771339E+03  0.46700000000E-02 0.  1.
          1   -1    0    0  501    0  0.00000000000E+00 -0.00000000000E+00 -0.10265653113E+02  0.10265654175E+02  0.46700000000E-02 0. -1.
         23    2    1    2    0    0  0.00000000000E+00  0.00000000000E+00  0.19267206022E+03  0.21320336756E+03  0.91286106008E+02 0.  0.
        -11    1    3    3    0    0 -0.50674188617E+01  0.44577043731E+02  0.11594586112E+03  0.12432310434E+03  0.51100000000E-03 0.  1.
         11    1    3    3    0    0  0.50674188617E+01 -0.44577043731E+02  0.76726199103E+02  0.88880263224E+02  0.51100000000E-03 0. -1.
<mgrwt>
<rscale>  0 0.91286106E+02</rscale>
<asrwt>0</asrwt>
<pdfrwt beam="2">  1        1 0.15793313E-02 0.91286106E+02</pdfrwt>
<pdfrwt beam="1">  1       -1 0.31221186E-01 0.91286106E+02</pdfrwt>
<totfact> 0.68918430E+04</totfact>
</mgrwt>
</event>
<event>
 5   1  0.1357339E+00  0.8232159E+02  0.7818608E-02  0.1322589E+00
          1   -1    0    0  501    0  0.00000000000E+00  0.00000000000E+00  0.33965135589E+02  0.33965135910E+02  0.46700000000E-02 0.  1.
         -1   -1    0    0    0  501 -0.00000000000E+00 -0.00000000000E+00 -0.49880889380E+02  0.49880889599E+02  0.46700000000E-02 0. -1.
         23    2    1    2    0    0  0.00000000000E+00  0.00000000000E+00 -0.15915753791E+02  0.83846025509E+02  0.82321593612E+02 0.  0.
        -11    1    3    3    0    0 -0.21030649154E+02  0.23732315228E+02  0.18771191204E+02  0.36849268777E+02  0.51100000000E-03 0.  1.
         11    1    3    3    0    0  0.21030649154E+02 -0.23732315228E+02 -0.34686944996E+02  0.46996756732E+02  0.51100000000E-03 0. -1.
<mgrwt>
<rscale>  0 0.82321594E+02</rscale>
<asrwt>0</asrwt>
<pdfrwt beam="1">  1        1 0.52254055E-02 0.82321594E+02</pdfrwt>
<pdfrwt beam="2">  1       -1 0.76739830E-02 0.82321594E+02</pdfrwt>
<totfact> 0.11795082E+05</totfact>
</mgrwt>
</event>
<event>
 5   1  0.1357339E+00  0.8711439E+02  0.7818608E-02  0.1309994E+00
          1   -1    0    0  501    0  0.00000000000E+00  0.00000000000E+00  0.32323921870E+03  0.32323921874E+03  0.46700000000E-02 0. -1.
         -1   -1    0    0    0  501 -0.00000000000E+00 -0.00000000000E+00 -0.58694265392E+01  0.58694283970E+01  0.46700000000E-02 0.  1.
         23    2    1    2    0    0  0.00000000000E+00  0.00000000000E+00  0.31736979216E+03  0.32910864713E+03  0.87114388249E+02 0.  0.
        -11    1    3    3    0    0 -0.20845104205E+02 -0.35873401287E+02  0.20877720257E+03  0.21285990605E+03  0.51100000000E-03 0. -1.
         11    1    3    3    0    0  0.20845104205E+02  0.35873401287E+02  0.10859258959E+03  0.11624874108E+03  0.51100000000E-03 0.  1.
<mgrwt>
<rscale>  0 0.87114388E+02</rscale>
<asrwt>0</asrwt>
<pdfrwt beam="1">  1        1 0.49729111E-01 0.87114388E+02</pdfrwt>
<pdfrwt beam="2">  1       -1 0.90298883E-03 0.87114388E+02</pdfrwt>
<totfact> 0.14664474E+05</totfact>
</mgrwt>
</event>
<event>
 5   1  0.1357339E+00  0.9283087E+02  0.7818608E-02  0.1296138E+00
         -1   -1    0    0    0  501 -0.00000000000E+00  0.00000000000E+00  0.29976076542E+02  0.29976076906E+02  0.46700000000E-02 0.  1.
          1   -1    0    0  501    0  0.00000000000E+00 -0.00000000000E+00 -0.71870395005E+02  0.71870395157E+02  0.46700000000E-02 0. -1.
         23    2    1    2    0    0  0.00000000000E+00  0.00000000000E+00 -0.41894318463E+02  0.10184647206E+03  0.92830867453E+02 0.  0.
        -11    1    3    3    0    0 -0.36008250965E+02  0.20473347727E+02  0.20306112510E+01  0.41471381542E+02  0.51100000000E-03 0.  1.
         11    1    3    3    0    0  0.36008250965E+02 -0.20473347727E+02 -0.43924929714E+02  0.60375090521E+02  0.51100000000E-03 0. -1.
<mgrwt>
<rscale>  0 0.92830867E+02</rscale>
<asrwt>0</asrwt>
<pdfrwt beam="2">  1        1 0.11056984E-01 0.92830867E+02</pdfrwt>
<pdfrwt beam="1">  1       -1 0.46117042E-02 0.92830867E+02</pdfrwt>
<totfact> 0.94271863E+04</totfact>
</mgrwt>
</event>
<event>
 5   1  0.1357339E+00  0.9089907E+02  0.7818608E-02  0.1300689E+00
          1   -1    0    0  501    0  0.00000000000E+00  0.00000000000E+00  0.18677378544E+03  0.18677378550E+03  0.46700000000E-02 0. -1.
         -1   -1    0    0    0  501 -0.00000000000E+00 -0.00000000000E+00 -0.11059690538E+02  0.11059691524E+02  0.46700000000E-02 0.  1.
         23    2    1    2    0    0  0.00000000000E+00  0.00000000000E+00  0.17571409490E+03  0.19783347702E+03  0.90899073061E+02 0.  0.
        -11    1    3    3    0    0 -0.19094004044E+02 -0.36943831102E+02  0.47949014810E+02  0.63470746557E+02  0.51100000000E-03 0.  1.
         11    1    3    3    0    0  0.19094004044E+02  0.36943831102E+02  0.12776508009E+03  0.13436273047E+03  0.51100000000E-03 0. -1.
<mgrwt>
<rscale>  0 0.90899073E+02</rscale>
<asrwt>0</asrwt>
<pdfrwt beam="1">  1        1 0.28734429E-01 0.90899073E+02</pdfrwt>
<pdfrwt beam="2">  1       -1 0.17014909E-02 0.90899073E+02</pdfrwt>
<totfact> 0.11781243E+05</totfact>
</mgrwt>
</event>
<event>
 5   1  0.1357339E+00  0.9185177E+02  0.7818608E-02  0.1298428E+00
         -1   -1    0    0    0  501 -0.00000000000E+00  0.00000000000E+00  0.42705892324E+01  0.42705917857E+01  0.46700000000E-02 0.  1.
          1   -1    0    0  501    0  0.00000000000E+00 -0.00000000000E+00 -0.49388643834E+03  0.49388643837E+03  0.46700000000E-02 0. -1.
         23    2    1    2    0    0  0.00000000000E+00  0.00000000000E+00 -0.48961584911E+03  0.49815703015E+03  0.91851766387E+02 0.  0.
        -11    1    3    3    0    0  0.20885867061E+01 -0.45817011946E+02 -0.25767196536E+03  0.26172199470E+03  0.51100000000E-03 0.  1.
         11    1    3    3    0    0 -0.20885867061E+01  0.45817011946E+02 -0.23194388375E+03  0.23643503545E+03  0.51100000000E-03 0. -1.
<mgrwt>
<rscale>  0 0.91851766E+02</rscale>
<asrwt>0</asrwt>
<pdfrwt beam="2">  1        1 0.75982484E-01 0.91851766E+02</pdfrwt>
<pdfrwt beam="1">  1       -1 0.65701432E-03 0.91851766E+02</pdfrwt>
<totfact> 0.13636671E+05</totfact>
</mgrwt>
</event>
<event>
 5   1  0.1357339E+00  0.9416645E+02  0.7818608E-02  0.1293065E+00
         -1   -1    0    0    0  501 -0.00000000000E+00  0.00000000000E+00  0.19624125329E+03  0.19624125335E+03  0.46700000000E-02 0.  1.
          1   -1    0    0  501    0  0.00000000000E+00 -0.00000000000E+00 -0.11296453225E+02  0.11296454190E+02  0.46700000000E-02 0. -1.
         23    2    1    2    0    0  0.00000000000E+00  0.00000000000E+00  0.18494480007E+03  0.20753770754E+03  0.94166453571E+02 0.  0.
        -11    1    3    3    0    0 -0.68846877424E+00 -0.47077177885E+02  0.93153762911E+02  0.10437604233E+03  0.51100000000E-03 0. -1.
         11    1    3    3    0    0  0.68846877424E+00  0.47077177885E+02  0.91791037159E+02  0.10316166521E+03  0.51100000000E-03 0.  1.
<mgrwt>
<rscale>  0 0.94166454E+02</rscale>
<asrwt>0</asrwt>
<pdfrwt beam="2">  1        1 0.17379160E-02 0.94166454E+02</pdfrwt>
<pdfrwt beam="1">  1       -1 0.30190961E-01 0.94166454E+02</pdfrwt>
<totfact> 0.64164415E+04</totfact>
</mgrwt>
</event>
<event>
 5   1  0.1357339E+00  0.9088695E+02  0.7818608E-02  0.1300718E+00
         -1   -1    0    0    0  501 -0.00000000000E+00  0.00000000000E+00  0.28898281878E+03  0.28898281882E+03  0.46700000000E-02 0.  1.
          1   -1    0    0  501    0  0.00000000000E+00 -0.00000000000E+00 -0.71461320648E+01  0.71461335907E+01  0.46700000000E-02 0. -1.
         23    2    1    2    0    0  0.00000000000E+00  0.00000000000E+00  0.28183668671E+03  0.29612895241E+03  0.90886954377E+02 0.  0.
        -11    1    3    3    0    0  0.39749480157E+02  0.12181830708E+01  0.69266977150E+02  0.79871266839E+02  0.51100000000E-03 0. -1.
         11    1    3    3    0    0 -0.39749480157E+02 -0.12181830708E+01  0.21256970956E+03  0.21625768557E+03  0.51100000000E-03 0.  1.
<mgrwt>
<rscale>  0 0.90886954E+02</rscale>
<asrwt>0</asrwt>
<pdfrwt beam="2">  1        1 0.10994051E-02 0.90886954E+02</pdfrwt>
<pdfrwt beam="1">  1       -1 0.44458894E-01 0.90886954E+02</pdfrwt>
<totfact> 0.61985551E+04</totfact>
</mgrwt>
</event>
<event>
 5   1  0.1357339E+00  0.9204986E+02  0.7818608E-02  0.1297962E+00
          1   -1    0    0  501    0  0.00000000000E+00  0.00000000000E+00  0.69965404063E+02  0.69965404219E+02  0.46700000000E-02 0. -1.
         -1   -1    0    0    0  501 -0.00000000000E+00 -0.00000000000E+00 -0.30276310111E+02  0.30276310471E+02  0.46700000000E-02 0.  1.
         23    2    1    2    0    0  0.00000000000E+00  0.00000000000E+00  0.39689093952E+02  0.10024171469E+03  0.92049862495E+02 0.  0.
        -11    1    3    3    0    0 -0.33515453922E+02 -0.23392963432E+02 -0.31993897197E+01  0.40996981408E+02  0.51100000000E-03 0.  1.
         11    1    3    3    0    0  0.33515453922E+02  0.23392963432E+02  0.42888483672E+02  0.59244733282E+02  0.51100000000E-03 0. -1.
<mgrwt>
<rscale>  0 0.92049862E+02</rscale>
<asrwt>0</asrwt>
<pdfrwt beam="1">  1        1 0.10763908E-01 0.92049862E+02</pdfrwt>
<pdfrwt beam="2">  1       -1 0.46578940E-02 0.92049862E+02</pdfrwt>
<totfact> 0.96096085E+04</totfact>
</mgrwt>
</event>
<event>
 5   1  0.1357339E+00  0.9017904E+02  0.7818608E-02  0.1302419E+00
         -1   -1    0    0    0  501 -0.00000000000E+00  0.00000000000E+00  0.10193274647E+03  0.10193274658E+03  0.46700000000E-02 0.  1.
          1   -1    0    0  501    0  0.00000000000E+00 -0.00000000000E+00 -0.19945159729E+02  0.19945160276E+02  0.46700000000E-02 0. -1.
         23    2    1    2    0    0  0.00000000000E+00  0.00000000000E+00  0.81987586742E+02  0.12187790685E+03  0.90179043016E+02 0.  0.
        -11    1    3    3    0    0  0.19115025884E+02  0.40503714754E+02  0.48033310503E+02  0.65674455016E+02  0.51100000000E-03 0.  1.
         11    1    3    3    0    0 -0.19115025884E+02 -0.40503714754E+02  0.33954276239E+02  0.56203451839E+02  0.51100000000E-03 0. -1.
<mgrwt>
<rscale>  0 0.90179043E+02</rscale>
<asrwt>0</asrwt>
<pdfrwt beam="2">  1        1 0.30684861E-02 0.90179043E+02</pdfrwt>
<pdfrwt beam="1">  1       -1 0.15681961E-01 0.90179043E+02</pdfrwt>
<totfact> 0.83409375E+04</totfact>
</mgrwt>
</event>
<event>
 4   1  0.1357339E+00  0.1389048E+03  0.7818608E-02  0.1214810E+00
         -1   -1    0    0    0  501 -0.00000000000E+00  0.00000000000E+00  0.10256703296E+02  0.10256704359E+02  0.46700000000E-02 0.  1.
          1   -1    0    0  501    0  0.00000000000E+00 -0.00000000000E+00 -0.47029116363E+03  0.47029116366E+03  0.46700000000E-02 0. -1.
        -11    1    1    2    0    0 -0.38248392459E+02 -0.50209660485E+02 -0.12976865091E+03  0.14430472026E+03  0.51100000000E-03 0.  1.
         11    1    1    2    0    0  0.38248392459E+02  0.50209660485E+02 -0.33026580943E+03  0.33624314775E+03  0.51100000000E-03 0. -1.
<mgrwt>
<rscale>  0 0.13890482E+03</rscale>
<asrwt>0</asrwt>
<pdfrwt beam="2">  1        1 0.72352470E-01 0.13890482E+03</pdfrwt>
<pdfrwt beam="1">  1       -1 0.15779548E-02 0.13890482E+03</pdfrwt>
<totfact> 0.44201343E+04</totfact>
</mgrwt>
</event>
<event>
 5   1  0.1357339E+00  0.8980588E+02  0.7818608E-02  0.1303322E+00
         -1   -1    0    0    0  501 -0.00000000000E+00  0.00000000000E+00  0.32552321430E+03  0.32552321434E+03  0.46700000000E-02 0.  1.
          1   -1    0    0  501    0  0.00000000000E+00 -0.00000000000E+00 -0.61939470112E+01  0.61939487717E+01  0.46700000000E-02 0. -1.
         23    2    1    2    0    0  0.00000000000E+00  0.00000000000E+00  0.31932926729E+03  0.33171716311E+03  0.89805875929E+02 0.  0.
        -11    1    3    3    0    0  0.28899099160E+02 -0.31842480113E+02  0.11190671037E+03  0.11988416617E+03  0.51100000000E-03 0.  1.
         11    1    3    3    0    0 -0.28899099160E+02  0.31842480113E+02  0.20742255692E+03  0.21183299694E+03  0.51100000000E-03 0. -1.
<mgrwt>
<rscale>  0 0.89805876E+02</rscale>
<asrwt>0</asrwt>
<pdfrwt beam="2">  1        1 0.95291474E-03 0.89805876E+02</pdfrwt>
<pdfrwt beam="1">  1       -1 0.50080512E-01 0.89805876E+02</pdfrwt>
<totfact> 0.60972122E+04</totfact>
</mgrwt>
</event>
<event>
 5   1  0.1357339E+00  0.9115099E+02  0.7818608E-02  0.1300088E+00
         -1   -1    0    0    0  501 -0.00000000000E+00  0.00000000000E+00  0.65054887116E+02  0.65054887283E+02  0.46700000000E-02 0.  1.
          1   -1    0    0  501    0  0.00000000000E+00 -0.00000000000E+00 -0.31928822337E+02  0.31928822678E+02  0.46700000000E-02 0. -1.
         23    2    1    2    0    0  0.00000000000E+00  0.00000000000E+00  0.33126064779E+02  0.96983709961E+02  0.91150994674E+02 0.  0.
        -11    1    3    3    0    0 -0.13761597283E+02  0.35825582411E+02  0.42717966593E+02  0.57425417587E+02  0.51100000000E-03 0.  1.
         11    1    3    3    0    0  0.13761597283E+02 -0.35825582411E+02 -0.95919018144E+01  0.39558292374E+02  0.51100000000E-03 0. -1.
<mgrwt>
<rscale>  0 0.91150995E+02</rscale>
<asrwt>0</asrwt>
<pdfrwt beam="2">  1        1 0.49121266E-02 0.91150995E+02</pdfrwt>
<pdfrwt beam="1">  1       -1 0.10008444E-01 0.91150995E+02</pdfrwt>
<totfact> 0.87623797E+04</totfact>
</mgrwt>
</event>
<event>
 5   1  0.1357339E+00  0.9127738E+02  0.7818608E-02  0.1299787E+00
          1   -1    0    0  501    0  0.00000000000E+00  0.00000000000E+00  0.79444979727E+02  0.79444979865E+02  0.46700000000E-02 0. -1.
         -1   -1    0    0    0  501 -0.00000000000E+00 -0.00000000000E+00 -0.26218021144E+02  0.26218021560E+02  0.46700000000E-02 0.  1.
         23    2    1    2    0    0  0.00000000000E+00  0.00000000000E+00  0.53226958583E+02  0.10566300142E+03  0.91277383563E+02 0.  0.
        -11    1    3    3    0    0  0.16709252765E+02  0.64484482118E+01  0.75206745646E+02  0.77310000668E+02  0.51100000000E-03 0. -1.
         11    1    3    3    0    0 -0.16709252765E+02 -0.64484482118E+01 -0.21979787064E+02  0.28353000757E+02  0.51100000000E-03 0.  1.
<mgrwt>
<rscale>  0 0.91277384E+02</rscale>
<asrwt>0</asrwt>
<pdfrwt beam="1">  1        1 0.12222305E-01 0.91277384E+02</pdfrwt>
<pdfrwt beam="2">  1       -1 0.40335418E-02 0.91277384E+02</pdfrwt>
<totfact> 0.10032924E+05</totfact>
</mgrwt>
</event>
<event>
 5   1  0.1357339E+00  0.9164175E+02  0.7818608E-02  0.1298924E+00
         -1   -1    0    0    0  501 -0.00000000000E+00  0.00000000000E+00  0.52161509875E+01  0.52161530780E+01  0.46700000000E-02 0.  1.
          1   -1    0    0  501    0  0.00000000000E+00 -0.00000000000E+00 -0.40250985714E+03  0.40250985716E+03  0.46700000000E-02 0. -1.
         23    2    1    2    0    0  0.00000000000E+00  0.00000000000E+00 -0.39729370615E+03  0.40772601024E+03  0.91641750758E+02 0.  0.
        -11    1    3    3    0    0 -0.78529177095E+01 -0.44959472698E+02 -0.18055791708E+03  0.18623690269E+03  0.51100000000E-03 0.  1.
         11    1    3    3    0    0  0.78529177095E+01  0.44959472698E+02 -0.21673578907E+03  0.22148910755E+03  0.51100000000E-03 0. -1.
<mgrwt>
<rscale>  0 0.91641751E+02</rscale>
<asrwt>0</asrwt>
<pdfrwt beam="2">  1        1 0.61924569E-01 0.91641751E+02</pdfrwt>
<pdfrwt beam="1">  1       -1 0.80248525E-03 0.91641751E+02</pdfrwt>
<totfact> 0.13321679E+05</totfact>
</mgrwt>
</event>
<event>
 5   1  0.1357339E+00  0.9015466E+02  0.7818608E-02  0.1302478E+00
         -1   -1    0    0    0  501 -0.00000000000E+00  0.00000000000E+00  0.18628520477E+02  0.18628521062E+02  0.46700000000E-02 0.  1.
          1   -1    0    0  501    0  0.00000000000E+00 -0.00000000000E+00 -0.10907820896E+03  0.10907820906E+03  0.46700000000E-02 0. -1.
         23    2    1    2    0    0  0.00000000000E+00  0.00000000000E+00 -0.90449688486E+02  0.12770673013E+03  0.90154660291E+02 0.  0.
        -11    1    3    3    0    0 -0.35903566813E+02  0.12349792331E+02 -0.10806320740E+02  0.39476069317E+02  0.51100000000E-03 0.  1.
         11    1    3    3    0    0  0.35903566813E+02 -0.12349792331E+02 -0.79643367747E+02  0.88230660809E+02  0.51100000000E-03 0. -1.
<mgrwt>
<rscale>  0 0.90154660E+02</rscale>
<asrwt>0</asrwt>
<pdfrwt beam="2">  1        1 0.16781263E-01 0.90154660E+02</pdfrwt>
<pdfrwt beam="1">  1       -1 0.28659263E-02 0.90154660E+02</pdfrwt>
<totfact> 0.10928287E+05</totfact>
</mgrwt>
</event>
<event>
 5   1  0.1357339E+00  0.9448854E+02  0.7818608E-02  0.1292332E+00
          1   -1    0    0  501    0  0.00000000000E+00  0.00000000000E+00  0.10486466951E+02  0.10486467991E+02  0.46700000000E-02 0. -1.
         -1   -1    0    0    0  501 -0.00000000000E+00 -0.00000000000E+00 -0.21284774933E+03  0.21284774938E+03  0.46700000000E-02 0.  1.
         23    2    1    2    0    0  0.00000000000E+00  0.00000000000E+00 -0.20236128238E+03  0.22333421737E+03  0.94488539215E+02 0.  0.
        -11    1    3    3    0    0 -0.40434557601E+02  0.24010177491E+02 -0.11190293298E+03  0.12138248836E+03  0.51100000000E-03 0. -1.
         11    1    3    3    0    0  0.40434557601E+02 -0.24010177491E+02 -0.90458349398E+02  0.10195172901E+03  0.51100000000E-03 0.  1.
<mgrwt>
<rscale>  0 0.94488539E+02</rscale>
<asrwt>0</asrwt>
<pdfrwt beam="1">  1        1 0.16133029E-02 0.94488539E+02</pdfrwt>
<pdfrwt beam="2">  1       -1 0.32745804E-01 0.94488539E+02</pdfrwt>
<totfact> 0.62105215E+04</totfact>
</mgrwt>
</event>
<event>
 5   1  0.1357339E+00  0.9076104E+02  0.7818608E-02  0.1301019E+00
         -1   -1    0    0    0  501 -0.00000000000E+00  0.00000000000E+00  0.38485792503E+02  0.38485792787E+02  0.46700000000E-02 0.  1.
          1   -1    0    0  501    0  0.00000000000E+00 -0.00000000000E+00 -0.53510439776E+02  0.53510439980E+02  0.46700000000E-02 0. -1.
         23    2    1    2    0    0  0.00000000000E+00  0.00000000000E+00 -0.15024647273E+02  0.91996232767E+02  0.90761042400E+02 0.  0.
        -11    1    3    3    0    0  0.19631808013E+02  0.38547968951E+02  0.63869874044E+01  0.43728107716E+02  0.51100000000E-03 0.  1.
         11    1    3    3    0    0 -0.19631808013E+02 -0.38547968951E+02 -0.21411634677E+02  0.48268125050E+02  0.51100000000E-03 0. -1.
<mgrwt>
<rscale>  0 0.90761042E+02</rscale>
<asrwt>0</asrwt>
<pdfrwt beam="2">  1        1 0.82323754E-02 0.90761042E+02</pdfrwt>
<pdfrwt beam="1">  1       -1 0.59208912E-02 0.90761042E+02</pdfrwt>
<totfact> 0.95937125E+04</totfact>
</mgrwt>
</event>
<event>
 5   1  0.1357339E+00  0.9279497E+02  0.7818608E-02  0.1296221E+00
         -1   -1    0    0    0  501 -0.00000000000E+00  0.00000000000E+00  0.10900131684E+02  0.10900132685E+02  0.46700000000E-02 0.  1.
          1   -1    0    0  501    0  0.00000000000E+00 -0.00000000000E+00 -0.19749547942E+03  0.19749547948E+03  0.46700000000E-02 0. -1.
         23    2    1    2    0    0  0.00000000000E+00  0.00000000000E+00 -0.18659534774E+03  0.20839561216E+03  0.92794974924E+02 0.  0.
        -11    1    3    3    0    0  0.43481861814E+02  0.14979903823E+02 -0.79516472785E+02  0.91858256405E+02  0.51100000000E-03 0.  1.
         11    1    3    3    0    0 -0.43481861814E+02 -0.14979903823E+02 -0.10707887495E+03  0.11653735576E+03  0.51100000000E-03 0. -1.
<mgrwt>
<rscale>  0 0.92794975E+02</rscale>
<asrwt>0</asrwt>
<pdfrwt beam="2">  1        1 0.30383917E-01 0.92794975E+02</pdfrwt>
<pdfrwt beam="1">  1       -1 0.16769436E-02 0.92794975E+02</pdfrwt>
<totfact> 0.11266363E+05</totfact>
</mgrwt>
</event>
<event>
 5   1  0.1357339E+00  0.9179408E+02  0.7818608E-02  0.1298564E+00
         -1   -1    0    0    0  501 -0.00000000000E+00  0.00000000000E+00  0.15768677641E+03  0.15768677648E+03  0.46700000000E-02 0.  1.
          1   -1    0    0  501    0  0.00000000000E+00 -0.00000000000E+00 -0.13359002890E+02  0.13359003706E+02  0.46700000000E-02 0. -1.
         23    2    1    2    0    0  0.00000000000E+00  0.00000000000E+00  0.14432777352E+03  0.17104578018E+03  0.91794077748E+02 0.  0.
        -11    1    3    3    0    0  0.87014845770E+01 -0.22438449569E+02 -0.65856996193E+00  0.24075580316E+02  0.51100000000E-03 0. -1.
         11    1    3    3    0    0 -0.87014845770E+01  0.22438449569E+02  0.14498634348E+03  0.14697019987E+03  0.51100000000E-03 0.  1.
<mgrwt>
<rscale>  0 0.91794078E+02</rscale>
<asrwt>0</asrwt>
<pdfrwt beam="2">  1        1 0.20552313E-02 0.91794078E+02</pdfrwt>
<pdfrwt beam="1">  1       -1 0.24259504E-01 0.91794078E+02</pdfrwt>
<totfact> 0.72619104E+04</totfact>
</mgrwt>
</event>
<event>
 5   1  0.1357339E+00  0.8995198E+02  0.7818608E-02  0.1302968E+00
          1   -1    0    0  501    0  0.00000000000E+00  0.00000000000E+00  0.89091944712E+02  0.89091944834E+02  0.46700000000E-02 0. -1.
         -1   -1    0    0    0  501 -0.00000000000E+00 -0.00000000000E+00 -0.22705080395E+02  0.22705080875E+02  0.46700000000E-02 0.  1.
         23    2    1    2    0    0  0.00000000000E+00  0.00000000000E+00  0.66386864317E+02  0.11179702571E+03  0.89951982766E+02 0.  0.
        -11    1    3    3    0    0  0.14031813012E+02  0.42469993895E+02  0.27331220291E+02  0.52417437563E+02  0.51100000000E-03 0.  1.
         11    1    3    3    0    0 -0.14031813012E+02 -0.42469993895E+02  0.39055644026E+02  0.59379588146E+02  0.51100000000E-03 0. -1.
<mgrwt>
<rscale>  0 0.89951983E+02</rscale>
<asrwt>0</asrwt>
<pdfrwt beam="1">  1        1 0.13706453E-01 0.89951983E+02</pdfrwt>
<pdfrwt beam="2">  1       -1 0.34930894E-02 0.89951983E+02</pdfrwt>
<totfact> 0.10634826E+05</totfact>
</mgrwt>
</event>
<event>
 5   1  0.1357339E+00  0.9141282E+02  0.7818608E-02  0.1299466E+00
          1   -1    0    0  501    0  0.00000000000E+00  0.00000000000E+00  0.17179376025E+03  0.17179376031E+03  0.46700000000E-02 0. -1.
         -1   -1    0    0    0  501 -0.00000000000E+00 -0.00000000000E+00 -0.12160370038E+02  0.12160370935E+02  0.46700000000E-02 0.  1.
         23    2    1    2    0    0  0.00000000000E+00  0.00000000000E+00  0.15963339021E+03  0.18395413124E+03  0.91412817114E+02 0.  0.
        -11    1    3    3    0    0  0.38065494069E+01 -0.45355583382E+02  0.71408795548E+02  0.84680782024E+02  0.51100000000E-03 0.  1.
         11    1    3    3    0    0 -0.38065494069E+01  0.45355583382E+02  0.88224594660E+02  0.99273349221E+02  0.51100000000E-03 0. -1.
<mgrwt>
<rscale>  0 0.91412817E+02</rscale>
<asrwt>0</asrwt>
<pdfrwt beam="1">  1        1 0.26429810E-01 0.91412817E+02</pdfrwt>
<pdfrwt beam="2">  1       -1 0.18708262E-02 0.91412817E+02</pdfrwt>
<totfact> 0.11420526E+05</totfact>
</mgrwt>
</event>
<event>
 5   1  0.1357339E+00  0.8904671E+02  0.7818608E-02  0.1305177E+00
         -1   -1    0    0    0  501 -0.00000000000E+00  0.00000000000E+00  0.40204478207E+02  0.40204478478E+02  0.46700000000E-02 0.  1.
          1   -1    0    0  501    0  0.00000000000E+00 -0.00000000000E+00 -0.49306178876E+02  0.49306179097E+02  0.46700000000E-02 0. -1.
         23    2    1    2    0    0  0.00000000000E+00  0.00000000000E+00 -0.91017006696E+01  0.89510657575E+02  0.89046711700E+02 0.  0.
        -11    1    3    3    0    0 -0.20914870782E+02 -0.37288330001E+02 -0.17044518240E+02  0.46025720813E+02  0.51100000000E-03 0. -1.
         11    1    3    3    0    0  0.20914870782E+02  0.37288330001E+02  0.79428175702E+01  0.43484936763E+02  0.51100000000E-03 0.  1.
<mgrwt>
<rscale>  0 0.89046712E+02</rscale>
<asrwt>0</asrwt>
<pdfrwt beam="2">  1        1 0.75855661E-02 0.89046712E+02</pdfrwt>
<pdfrwt beam="1">  1       -1 0.61853043E-02 0.89046712E+02</pdfrwt>
<totfact> 0.99945153E+04</totfact>
</mgrwt>
</event>
<event>
 5   1  0.1357339E+00  0.8592266E+02  0.7818608E-02  0.1313037E+00
          1   -1    0    0  501    0  0.00000000000E+00  0.00000000000E+00  0.10080160743E+02  0.10080161825E+02  0.46700000000E-02 0. -1.
         -1   -1    0    0    0  501 -0.00000000000E+00 -0.00000000000E+00 -0.18309982463E+03  0.18309982469E+03  0.46700000000E-02 0.  1.
         23    2    1    2    0    0  0.00000000000E+00  0.00000000000E+00 -0.17301966389E+03  0.19317998652E+03  0.85922657655E+02 0.  0.
        -11    1    3    3    0    0  0.23030635203E+02 -0.32306558976E+02 -0.49460462274E+02  0.63407107168E+02  0.51100000000E-03 0. -1.
         11    1    3    3    0    0 -0.23030635203E+02  0.32306558976E+02 -0.12355920162E+03  0.12977287935E+03  0.51100000000E-03 0.  1.
<mgrwt>
<rscale>  0 0.85922658E+02</rscale>
<asrwt>0</asrwt>
<pdfrwt beam="1">  1        1 0.15507942E-02 0.85922658E+02</pdfrwt>
<pdfrwt beam="2">  1       -1 0.28169201E-01 0.85922658E+02</pdfrwt>
<totfact> 0.82998094E+04</totfact>
</mgrwt>
</event>
<event>
 5   1  0.1357339E+00  0.9010470E+02  0.7818608E-02  0.1302598E+00
         -1   -1    0    0    0  501 -0.00000000000E+00  0.00000000000E+00  0.15995383120E+03  0.15995383127E+03  0.46700000000E-02 0.  1.
          1   -1    0    0  501    0  0.00000000000E+00 -0.00000000000E+00 -0.12689374387E+02  0.12689375246E+02  0.46700000000E-02 0. -1.
         23    2    1    2    0    0  0.00000000000E+00  0.00000000000E+00  0.14726445681E+03  0.17264320652E+03  0.90104697520E+02 0.  0.
        -11    1    3    3    0    0 -0.20176043156E+02 -0.40276995173E+02  0.72412768349E+02  0.85281405229E+02  0.51100000000E-03 0. -1.
         11    1    3    3    0    0  0.20176043156E+02  0.40276995173E+02  0.74851688465E+02  0.87361801287E+02  0.51100000000E-03 0.  1.
<mgrwt>
<rscale>  0 0.90104698E+02</rscale>
<asrwt>0</asrwt>
<pdfrwt beam="2">  1        1 0.19522116E-02 0.90104698E+02</pdfrwt>
<pdfrwt beam="1">  1       -1 0.24608281E-01 0.90104698E+02</pdfrwt>
<totfact> 0.75944316E+04</totfact>
</mgrwt>
</event>
<event>
 5   1  0.1357339E+00  0.9163806E+02  0.7818608E-02  0.1298933E+00
         -1   -1    0    0    0  501 -0.00000000000E+00  0.00000000000E+00  0.25810718302E+02  0.25810718724E+02  0.46700000000E-02 0.  1.
          1   -1    0    0  501    0  0.00000000000E+00 -0.00000000000E+00 -0.81337654113E+02  0.81337654247E+02  0.46700000000E-02 0. -1.
         23    2    1    2    0    0  0.00000000000E+00  0.00000000000E+00 -0.55526935812E+02  0.10714837297E+03  0.91638055576E+02 0.  0.
        -11    1    3    3    0    0 -0.11817223601E+02 -0.39095061819E+02 -0.34802730026E+01  0.40990034554E+02  0.51100000000E-03 0.  1.
         11    1    3    3    0    0  0.11817223601E+02  0.39095061819E+02 -0.52046662809E+02  0.66158338417E+02  0.51100000000E-03 0. -1.
<mgrwt>
<rscale>  0 0.91638056E+02</rscale>
<asrwt>0</asrwt>
<pdfrwt beam="2">  1        1 0.12513485E-01 0.91638056E+02</pdfrwt>
<pdfrwt beam="1">  1       -1 0.39708798E-02 0.91638056E+02</pdfrwt>
<totfact> 0.99618298E+04</totfact>
</mgrwt>
</event>
<event>
 5   1  0.1357339E+00  0.8970347E+02  0.7818608E-02  0.1303571E+00
          1   -1    0    0  501    0  0.00000000000E+00  0.00000000000E+00  0.64129022453E+02  0.64129022623E+02  0.46700000000E-02 0. -1.
         -1   -1    0    0    0  501 -0.00000000000E+00 -0.00000000000E+00 -0.31369229940E+02  0.31369230287E+02  0.46700000000E-02 0.  1.
         23    2    1    2    0    0  0.00000000000E+00  0.00000000000E+00  0.32759792513E+02  0.95498252911E+02  0.89703468737E+02 0.  0.
        -11    1    3    3    0    0  0.12991966466E+02  0.11655472940E+02  0.60365204064E+02  0.62837879532E+02  0.51100000000E-03 0. -1.
         11    1    3    3    0    0 -0.12991966466E+02 -0.11655472940E+02 -0.27605411550E+02  0.32660373379E+02  0.51100000000E-03 0.  1.
<mgrwt>
<rscale>  0 0.89703469E+02</rscale>
<asrwt>0</asrwt>
<pdfrwt beam="1">  1        1 0.98660035E-02 0.89703469E+02</pdfrwt>
<pdfrwt beam="2">  1       -1 0.48260354E-02 0.89703469E+02</pdfrwt>
<totfact> 0.10182954E+05</totfact>
</mgrwt>
</event>
<event>
 5   1  0.1357339E+00  0.8791495E+02  0.7818608E-02  0.1307981E+00
          1   -1    0    0  501    0  0.00000000000E+00  0.00000000000E+00  0.17264128016E+02  0.17264128647E+02  0.46700000000E-02 0. -1.
         -1   -1    0    0    0  501 -0.00000000000E+00 -0.00000000000E+00 -0.11192337439E+03  0.11192337449E+03  0.46700000000E-02 0.  1.
         23    2    1    2    0    0  0.00000000000E+00  0.00000000000E+00 -0.94659246373E+02  0.12918750313E+03  0.87914947772E+02 0.  0.
        -11    1    3    3    0    0 -0.37411953612E+02 -0.11093423631E+02 -0.17591977983E+02  0.42804158799E+02  0.51100000000E-03 0. -1.
         11    1    3    3    0    0  0.37411953612E+02  0.11093423631E+02 -0.77067268390E+02  0.86383344334E+02  0.51100000000E-03 0.  1.
<mgrwt>
<rscale>  0 0.87914948E+02</rscale>
<asrwt>0</asrwt>
<pdfrwt beam="1">  1        1 0.26560198E-02 0.87914948E+02</pdfrwt>
<pdfrwt beam="2">  1       -1 0.17218980E-01 0.87914948E+02</pdfrwt>
<totfact> 0.87476358E+04</totfact>
</mgrwt>
</event>
<event>
 5   1  0.1357339E+00  0.9188251E+02  0.7818608E-02  0.1298356E+00
          1   -1    0    0  501    0  0.00000000000E+00  0.00000000000E+00  0.89814232956E+02  0.89814233078E+02  0.46700000000E-02 0. -1.
         -1   -1    0    0    0  501 -0.00000000000E+00 -0.00000000000E+00 -0.23499604046E+02  0.23499604510E+02  0.46700000000E-02 0.  1.
         23    2    1    2    0    0  0.00000000000E+00  0.00000000000E+00  0.66314628910E+02  0.11331383759E+03  0.91882510748E+02 0.  0.
        -11    1    3    3    0    0  0.23399106935E+02 -0.39278038519E+02  0.27598607361E+02  0.53403798028E+02  0.51100000000E-03 0. -1.
         11    1    3    3    0    0 -0.23399106935E+02  0.39278038519E+02  0.38716021549E+02  0.59910039560E+02  0.51100000000E-03 0.  1.
<mgrwt>
<rscale>  0 0.91882511E+02</rscale>
<asrwt>0</asrwt>
<pdfrwt beam="1">  1        1 0.13817575E-01 0.91882511E+02</pdfrwt>
<pdfrwt beam="2">  1       -1 0.36153237E-02 0.91882511E+02</pdfrwt>
<totfact> 0.10048174E+05</totfact>
</mgrwt>
</event>
<event>
 5   1  0.1357339E+00  0.9195448E+02  0.7818608E-02  0.1298186E+00
         -1   -1    0    0    0  501 -0.00000000000E+00  0.00000000000E+00  0.17800583042E+03  0.17800583048E+03  0.46700000000E-02 0.  1.
          1   -1    0    0  501    0  0.00000000000E+00 -0.00000000000E+00 -0.11875489949E+02  0.11875490867E+02  0.46700000000E-02 0. -1.
         23    2    1    2    0    0  0.00000000000E+00  0.00000000000E+00  0.16613034047E+03  0.18988132135E+03  0.91954478803E+02 0.  0.
        -11    1    3    3    0    0 -0.31642029492E+02  0.33063699085E+02  0.73951205423E+02  0.86966700589E+02  0.51100000000E-03 0.  1.
         11    1    3    3    0    0  0.31642029492E+02 -0.33063699085E+02  0.92179135051E+02  0.10291462076E+03  0.51100000000E-03 0. -1.
<mgrwt>
<rscale>  0 0.91954479E+02</rscale>
<asrwt>0</asrwt>
<pdfrwt beam="2">  1        1 0.18269986E-02 0.91954479E+02</pdfrwt>
<pdfrwt beam="1">  1       -1 0.27385512E-01 0.91954479E+02</pdfrwt>
<totfact> 0.70111958E+04</totfact>
</mgrwt>
</event>
<event>
 5   1  0.1357339E+00  0.9096888E+02  0.7818608E-02  0.1300522E+00
         -1   -1    0    0    0  501 -0.00000000000E+00  0.00000000000E+00  0.15955511585E+02  0.15955512268E+02  0.46700000000E-02 0. -1.
          1   -1    0    0  501    0  0.00000000000E+00 -0.00000000000E+00 -0.12966266323E+03  0.12966266331E+03  0.46700000000E-02 0.  1.
         23    2    1    2    0    0  0.00000000000E+00  0.00000000000E+00 -0.11370715164E+03  0.14561817558E+03  0.90968877780E+02 0.  0.
        -11    1    3    3    0    0 -0.84370701574E+01  0.28142079267E+02 -0.11243601336E+03  0.11621109189E+03  0.51100000000E-03 0.  1.
         11    1    3    3    0    0  0.84370701574E+01 -0.28142079267E+02 -0.12711382848E+01  0.29407083689E+02  0.51100000000E-03 0. -1.
<mgrwt>
<rscale>  0 0.90968878E+02</rscale>
<asrwt>0</asrwt>
<pdfrwt beam="2">  1        1 0.19948101E-01 0.90968878E+02</pdfrwt>
<pdfrwt beam="1">  1       -1 0.24546942E-02 0.90968878E+02</pdfrwt>
<totfact> 0.10989402E+05</totfact>
</mgrwt>
</event>
<event>
 5   1  0.1357339E+00  0.8923624E+02  0.7818608E-02  0.1304712E+00
          1   -1    0    0  501    0  0.00000000000E+00  0.00000000000E+00  0.15559968083E+03  0.15559968090E+03  0.46700000000E-02 0. -1.
         -1   -1    0    0    0  501 -0.00000000000E+00 -0.00000000000E+00 -0.12794219747E+02  0.12794220600E+02  0.46700000000E-02 0.  1.
         23    2    1    2    0    0  0.00000000000E+00  0.00000000000E+00  0.14280546108E+03  0.16839390150E+03  0.89236238979E+02 0.  0.
        -11    1    3    3    0    0  0.24951241489E+02 -0.35909730177E+02  0.54661711695E+02  0.69999827849E+02  0.51100000000E-03 0.  1.
         11    1    3    3    0    0 -0.24951241489E+02  0.35909730177E+02  0.88143749385E+02  0.98394073648E+02  0.51100000000E-03 0. -1.
<mgrwt>
<rscale>  0 0.89236239E+02</rscale>
<asrwt>0</asrwt>
<pdfrwt beam="1">  1        1 0.23938414E-01 0.89236239E+02</pdfrwt>
<pdfrwt beam="2">  1       -1 0.19683415E-02 0.89236239E+02</pdfrwt>
<totfact> 0.11962030E+05</totfact>
</mgrwt>
</event>
<event>
 5   1  0.1357339E+00  0.8913536E+02  0.7818608E-02  0.1304959E+00
          1   -1    0    0  501    0  0.00000000000E+00  0.00000000000E+00  0.94802617635E+02  0.94802617750E+02  0.46700000000E-02 0. -1.
         -1   -1    0    0    0  501 -0.00000000000E+00 -0.00000000000E+00 -0.20951721603E+02  0.20951722123E+02  0.46700000000E-02 0.  1.
         23    2    1    2    0    0  0.00000000000E+00  0.00000000000E+00  0.73850896032E+02  0.11575433987E+03  0.89135359733E+02 0.  0.
        -11    1    3    3    0    0 -0.13629366873E+02  0.15192619239E+02  0.88376703078E+02  0.90702904958E+02  0.51100000000E-03 0. -1.
         11    1    3    3    0    0  0.13629366873E+02 -0.15192619239E+02 -0.14525807046E+02  0.25051434915E+02  0.51100000000E-03 0.  1.
<mgrwt>
<rscale>  0 0.89135360E+02</rscale>
<asrwt>0</asrwt>
<pdfrwt beam="1">  1        1 0.14585018E-01 0.89135360E+02</pdfrwt>
<pdfrwt beam="2">  1       -1 0.32233418E-02 0.89135360E+02</pdfrwt>
<totfact> 0.11012258E+05</totfact>
</mgrwt>
</event>
<event>
 5   1  0.1357339E+00  0.9215183E+02  0.7818608E-02  0.1297723E+00
         -1   -1    0    0    0  501 -0.00000000000E+00  0.00000000000E+00  0.10988674760E+03  0.10988674770E+03  0.46700000000E-02 0.  1.
          1   -1    0    0  501    0  0.00000000000E+00 -0.00000000000E+00 -0.19319798760E+02  0.19319799325E+02  0.46700000000E-02 0. -1.
         23    2    1    2    0    0  0.00000000000E+00  0.00000000000E+00  0.90566948841E+02  0.12920654703E+03  0.92151828913E+02 0.  0.
        -11    1    3    3    0    0 -0.13288241670E+02  0.41932983091E+02  0.64510085608E+02  0.78080110035E+02  0.51100000000E-03 0.  1.
         11    1    3    3    0    0  0.13288241670E+02 -0.41932983091E+02  0.26056863233E+02  0.51126436991E+02  0.51100000000E-03 0. -1.
<mgrwt>
<rscale>  0 0.92151829E+02</rscale>
<asrwt>0</asrwt>
<pdfrwt beam="2">  1        1 0.29722768E-02 0.92151829E+02</pdfrwt>
<pdfrwt beam="1">  1       -1 0.16905653E-01 0.92151829E+02</pdfrwt>
<totfact> 0.77756859E+04</totfact>
</mgrwt>
</event>
<event>
 5   1  0.1357339E+00  0.9063957E+02  0.7818608E-02  0.1301310E+00
          1   -1    0    0  501    0  0.00000000000E+00  0.00000000000E+00  0.67945793145E+02  0.67945793305E+02  0.46700000000E-02 0. -1.
         -1   -1    0    0    0  501 -0.00000000000E+00 -0.00000000000E+00 -0.30228253998E+02  0.30228254359E+02  0.46700000000E-02 0.  1.
         23    2    1    2    0    0  0.00000000000E+00  0.00000000000E+00  0.37717539147E+02  0.98174047664E+02  0.90639565729E+02 0.  0.
        -11    1    3    3    0    0  0.13174053970E+02  0.28276153947E+02 -0.16749327404E+02  0.35406730275E+02  0.51100000000E-03 0.  1.
         11    1    3    3    0    0 -0.13174053970E+02 -0.28276153947E+02  0.54466866551E+02  0.62767317389E+02  0.51100000000E-03 0. -1.
<mgrwt>
<rscale>  0 0.90639566E+02</rscale>
<asrwt>0</asrwt>
<pdfrwt beam="1">  1        1 0.10453199E-01 0.90639566E+02</pdfrwt>
<pdfrwt beam="2">  1       -1 0.46505007E-02 0.90639566E+02</pdfrwt>
<totfact> 0.99829687E+04</totfact>
</mgrwt>
</event>
<event>
 5   1  0.1357339E+00  0.9227528E+02  0.7818608E-02  0.1297433E+00
          1   -1    0    0  501    0  0.00000000000E+00  0.00000000000E+00  0.50088045925E+02  0.50088046142E+02  0.46700000000E-02 0.  1.
         -1   -1    0    0    0  501 -0.00000000000E+00 -0.00000000000E+00 -0.42498803097E+02  0.42498803353E+02  0.46700000000E-02 0. -1.
         23    2    1    2    0    0  0.00000000000E+00  0.00000000000E+00  0.75892428281E+01  0.92586849496E+02  0.92275284301E+02 0.  0.
        -11    1    3    3    0    0 -0.16485320149E+01  0.14700098747E+02  0.47644256558E+02  0.49887731400E+02  0.51100000000E-03 0.  1.
         11    1    3    3    0    0  0.16485320149E+01 -0.14700098747E+02 -0.40055013730E+02  0.42699118096E+02  0.51100000000E-03 0. -1.
<mgrwt>
<rscale>  0 0.92275284E+02</rscale>
<asrwt>0</asrwt>
<pdfrwt beam="1">  1        1 0.77058532E-02 0.92275284E+02</pdfrwt>
<pdfrwt beam="2">  1       -1 0.65382775E-02 0.92275284E+02</pdfrwt>
<totfact> 0.90695504E+04</totfact>
</mgrwt>
</event>
<event>
 5   1  0.1357339E+00  0.8835305E+02  0.7818608E-02  0.1306890E+00
         -1   -1    0    0    0  501 -0.00000000000E+00  0.00000000000E+00  0.68887251463E+02  0.68887251622E+02  0.46700000000E-02 0.  1.
          1   -1    0    0  501    0  0.00000000000E+00 -0.00000000000E+00 -0.28329845601E+02  0.28329845986E+02  0.46700000000E-02 0. -1.
         23    2    1    2    0    0  0.00000000000E+00  0.00000000000E+00  0.40557405863E+02  0.97217097607E+02  0.88353046902E+02 0.  0.
        -11    1    3    3    0    0  0.30971836219E+02 -0.10320901467E+02  0.53026825208E+02  0.62270537477E+02  0.51100000000E-03 0.  1.
         11    1    3    3    0    0 -0.30971836219E+02  0.10320901467E+02 -0.12469419345E+02  0.34946560130E+02  0.51100000000E-03 0. -1.
<mgrwt>
<rscale>  0 0.88353047E+02</rscale>
<asrwt>0</asrwt>
<pdfrwt beam="2">  1        1 0.43584379E-02 0.88353047E+02</pdfrwt>
<pdfrwt beam="1">  1       -1 0.10598039E-01 0.88353047E+02</pdfrwt>
<totfact> 0.93996047E+04</totfact>
</mgrwt>
</event>
<event>
 5   1  0.1357339E+00  0.1148264E+03  0.7818608E-02  0.1251884E+00
         -1   -1    0    0    0  501 -0.00000000000E+00  0.00000000000E+00  0.13845103670E+03  0.13845103678E+03  0.46700000000E-02 0.  1.
          1   -1    0    0  501    0  0.00000000000E+00 -0.00000000000E+00 -0.23808257015E+02  0.23808257473E+02  0.46700000000E-02 0. -1.
         23    2    1    2    0    0  0.00000000000E+00  0.00000000000E+00  0.11464277969E+03  0.16225929425E+03  0.11482644137E+03 0.  0.
        -11    1    3    3    0    0 -0.20035132464E+02  0.41604014230E+02  0.10553170234E+03  0.11519219042E+03  0.51100000000E-03 0.  1.
         11    1    3    3    0    0  0.20035132464E+02 -0.41604014230E+02  0.91110773420E+01  0.47067103836E+02  0.51100000000E-03 0. -1.
<mgrwt>
<rscale>  0 0.11482644E+03</rscale>
<asrwt>0</asrwt>
<pdfrwt beam="2">  1        1 0.36628088E-02 0.11482644E+03</pdfrwt>
<pdfrwt beam="1">  1       -1 0.21300159E-01 0.11482644E+03</pdfrwt>
<totfact> 0.41771869E+04</totfact>
</mgrwt>
</event>
<event>
 5   1  0.1357339E+00  0.8972834E+02  0.7818608E-02  0.1303511E+00
          1   -1    0    0  501    0  0.00000000000E+00  0.00000000000E+00  0.39264838703E+02  0.39264838981E+02  0.46700000000E-02 0. -1.
         -1   -1    0    0    0  501 -0.00000000000E+00 -0.00000000000E+00 -0.51261992664E+02  0.51261992877E+02  0.46700000000E-02 0.  1.
         23    2    1    2    0    0  0.00000000000E+00  0.00000000000E+00 -0.11997153961E+02  0.90526831858E+02  0.89728343254E+02 0.  0.
        -11    1    3    3    0    0  0.18114467993E+01 -0.11123510190E+02  0.37813434656E+02  0.39457187674E+02  0.51100000000E-03 0. -1.
         11    1    3    3    0    0 -0.18114467993E+01  0.11123510190E+02 -0.49810588616E+02  0.51069644184E+02  0.51100000000E-03 0.  1.
<mgrwt>
<rscale>  0 0.89728343E+02</rscale>
<asrwt>0</asrwt>
<pdfrwt beam="1">  1        1 0.60407444E-02 0.89728343E+02</pdfrwt>
<pdfrwt beam="2">  1       -1 0.78864605E-02 0.89728343E+02</pdfrwt>
<totfact> 0.94586497E+04</totfact>
</mgrwt>
</event>
<event>
 5   1  0.1357339E+00  0.9200847E+02  0.7818608E-02  0.1298060E+00
         -1   -1    0    0    0  501 -0.00000000000E+00  0.00000000000E+00  0.22369864973E+03  0.22369864978E+03  0.46700000000E-02 0.  1.
          1   -1    0    0  501    0  0.00000000000E+00 -0.00000000000E+00 -0.94608944227E+01  0.94608955753E+01  0.46700000000E-02 0. -1.
         23    2    1    2    0    0  0.00000000000E+00  0.00000000000E+00  0.21423775531E+03  0.23315954535E+03  0.92008465863E+02 0.  0.
        -11    1    3    3    0    0 -0.44435444323E+02 -0.95154532210E+01  0.12527571353E+03  0.13326311179E+03  0.51100000000E-03 0.  1.
         11    1    3    3    0    0  0.44435444323E+02  0.95154532210E+01  0.88962041775E+02  0.99896433566E+02  0.51100000000E-03 0. -1.
<mgrwt>
<rscale>  0 0.92008466E+02</rscale>
<asrwt>0</asrwt>
<pdfrwt beam="2">  1        1 0.14555223E-02 0.92008466E+02</pdfrwt>
<pdfrwt beam="1">  1       -1 0.34415176E-01 0.92008466E+02</pdfrwt>
<totfact> 0.65571152E+04</totfact>
</mgrwt>
</event>
<event>
 5   1  0.1357339E+00  0.8723418E+02  0.7818608E-02  0.1309691E+00
          1   -1    0    0  501    0  0.00000000000E+00  0.00000000000E+00  0.30414583488E+03  0.30414583492E+03  0.46700000000E-02 0. -1.
         -1   -1    0    0    0  501 -0.00000000000E+00 -0.00000000000E+00 -0.62550599217E+01  0.62550616650E+01  0.46700000000E-02 0.  1.
         23    2    1    2    0    0  0.00000000000E+00  0.00000000000E+00  0.29789077496E+03  0.31040089658E+03  0.87234183627E+02 0.  0.
        -11    1    3    3    0    0  0.99479009693E+01  0.42178266540E+02  0.16655199332E+03  0.17209745315E+03  0.51100000000E-03 0.  1.
         11    1    3    3    0    0 -0.99479009693E+01 -0.42178266540E+02  0.13133878164E+03  0.13830344343E+03  0.51100000000E-03 0. -1.
<mgrwt>
<rscale>  0 0.87234184E+02</rscale>
<asrwt>0</asrwt>
<pdfrwt beam="1">  1        1 0.46791660E-01 0.87234184E+02</pdfrwt>
<pdfrwt beam="2">  1       -1 0.96231719E-03 0.87234184E+02</pdfrwt>
<totfact> 0.14446370E+05</totfact>
</mgrwt>
</event>
<event>
 5   1  0.1357339E+00  0.8999247E+02  0.7818608E-02  0.1302870E+00
          1   -1    0    0  501    0  0.00000000000E+00  0.00000000000E+00  0.17407634870E+03  0.17407634876E+03  0.46700000000E-02 0. -1.
         -1   -1    0    0    0  501 -0.00000000000E+00 -0.00000000000E+00 -0.11630879067E+02  0.11630880004E+02  0.46700000000E-02 0.  1.
         23    2    1    2    0    0  0.00000000000E+00  0.00000000000E+00  0.16244546963E+03  0.18570722877E+03  0.89992467530E+02 0.  0.
        -11    1    3    3    0    0  0.91594512571E+01 -0.25719432662E+02  0.74144990668E+01  0.28290626724E+02  0.51100000000E-03 0.  1.
         11    1    3    3    0    0 -0.91594512571E+01  0.25719432662E+02  0.15503097057E+03  0.15741660204E+03  0.51100000000E-03 0. -1.
<mgrwt>
<rscale>  0 0.89992468E+02</rscale>
<asrwt>0</asrwt>
<pdfrwt beam="1">  1        1 0.26780974E-01 0.89992468E+02</pdfrwt>
<pdfrwt beam="2">  1       -1 0.17893663E-02 0.89992468E+02</pdfrwt>
<totfact> 0.11940955E+05</totfact>
</mgrwt>
</event>
<event>
 5   1  0.1357339E+00  0.9091540E+02  0.7818608E-02  0.1300650E+00
         -1   -1    0    0    0  501 -0.00000000000E+00  0.00000000000E+00  0.51562060578E+02  0.51562060789E+02  0.46700000000E-02 0.  1.
          1   -1    0    0  501    0  0.00000000000E+00 -0.00000000000E+00 -0.40076027540E+02  0.40076027812E+02  0.46700000000E-02 0. -1.
         23    2    1    2    0    0  0.00000000000E+00  0.00000000000E+00  0.11486033038E+02  0.91638088601E+02  0.90915402037E+02 0.  0.
        -11    1    3    3    0    0  0.14239879245E+02  0.42154007513E+02  0.15126587087E+02  0.46995192813E+02  0.51100000000E-03 0.  1.
         11    1    3    3    0    0 -0.14239879245E+02 -0.42154007513E+02 -0.36405540491E+01  0.44642895789E+02  0.51100000000E-03 0. -1.
<mgrwt>
<rscale>  0 0.90915402E+02</rscale>
<asrwt>0</asrwt>
<pdfrwt beam="2">  1        1 0.61655428E-02 0.90915402E+02</pdfrwt>
<pdfrwt beam="1">  1       -1 0.79326247E-02 0.90915402E+02</pdfrwt>
<totfact> 0.91428331E+04</totfact>
</mgrwt>
</event>
<event>
 5   1  0.1357339E+00  0.9242513E+02  0.7818608E-02  0.1297083E+00
          1   -1    0    0  501    0  0.00000000000E+00  0.00000000000E+00  0.14636512311E+03  0.14636512319E+03  0.46700000000E-02 0. -1.
         -1   -1    0    0    0  501 -0.00000000000E+00 -0.00000000000E+00 -0.14590916137E+02  0.14590916884E+02  0.46700000000E-02 0.  1.
         23    2    1    2    0    0  0.00000000000E+00  0.00000000000E+00  0.13177420698E+03  0.16095604007E+03  0.92425133007E+02 0.  0.
        -11    1    3    3    0    0 -0.23028002185E+02 -0.13343308813E+02  0.95565445068E-01  0.26614693456E+02  0.51100000000E-03 0.  1.
         11    1    3    3    0    0  0.23028002185E+02  0.13343308813E+02  0.13167864153E+03  0.13434134662E+03  0.51100000000E-03 0. -1.
<mgrwt>
<rscale>  0 0.92425133E+02</rscale>
<asrwt>0</asrwt>
<pdfrwt beam="1">  1        1 0.22517711E-01 0.92425133E+02</pdfrwt>
<pdfrwt beam="2">  1       -1 0.22447564E-02 0.92425133E+02</pdfrwt>
<totfact> 0.10759991E+05</totfact>
</mgrwt>
</event>
<event>
 5   1  0.1357339E+00  0.9279609E+02  0.7818608E-02  0.1296218E+00
          1   -1    0    0  501    0  0.00000000000E+00  0.00000000000E+00  0.33916845694E+03  0.33916845698E+03  0.46700000000E-02 0. -1.
         -1   -1    0    0    0  501 -0.00000000000E+00 -0.00000000000E+00 -0.63472240206E+01  0.63472257386E+01  0.46700000000E-02 0.  1.
         23    2    1    2    0    0  0.00000000000E+00  0.00000000000E+00  0.33282123292E+03  0.34551568272E+03  0.92796087834E+02 0.  0.
        -11    1    3    3    0    0 -0.43186336278E+01 -0.43522700903E+02  0.10873989515E+03  0.11720597633E+03  0.51100000000E-03 0.  1.
         11    1    3    3    0    0  0.43186336278E+01  0.43522700903E+02  0.22408133778E+03  0.22830970639E+03  0.51100000000E-03 0. -1.
<mgrwt>
<rscale>  0 0.92796088E+02</rscale>
<asrwt>0</asrwt>
<pdfrwt beam="1">  1        1 0.52179773E-01 0.92796088E+02</pdfrwt>
<pdfrwt beam="2">  1       -1 0.97649595E-03 0.92796088E+02</pdfrwt>
<totfact> 0.12508226E+05</totfact>
</mgrwt>
</event>
<event>
 5   1  0.1357339E+00  0.9341340E+02  0.7818608E-02  0.1294790E+00
          1   -1    0    0  501    0  0.00000000000E+00  0.00000000000E+00  0.62013095736E+02  0.62013095912E+02  0.46700000000E-02 0. -1.
         -1   -1    0    0    0  501 -0.00000000000E+00 -0.00000000000E+00 -0.35178304896E+02  0.35178305206E+02  0.46700000000E-02 0.  1.
         23    2    1    2    0    0  0.00000000000E+00  0.00000000000E+00  0.26834790841E+02  0.97191401118E+02  0.93413395462E+02 0.  0.
        -11    1    3    3    0    0 -0.23559756231E+02  0.19733882342E+02 -0.23176474661E+02  0.38492040787E+02  0.51100000000E-03 0.  1.
         11    1    3    3    0    0  0.23559756231E+02 -0.19733882342E+02  0.50011265502E+02  0.58699360331E+02  0.51100000000E-03 0. -1.
<mgrwt>
<rscale>  0 0.93413395E+02</rscale>
<asrwt>0</asrwt>
<pdfrwt beam="1">  1        1 0.95404763E-02 0.93413395E+02</pdfrwt>
<pdfrwt beam="2">  1       -1 0.54120469E-02 0.93413395E+02</pdfrwt>
<totfact> 0.90549191E+04</totfact>
</mgrwt>
</event>
<event>
 5   1  0.1357339E+00  0.8952178E+02  0.7818608E-02  0.1304014E+00
          1   -1    0    0  501    0  0.00000000000E+00  0.00000000000E+00  0.76611408466E+02  0.76611408608E+02  0.46700000000E-02 0. -1.
         -1   -1    0    0    0  501 -0.00000000000E+00 -0.00000000000E+00 -0.26151944265E+02  0.26151944682E+02  0.46700000000E-02 0.  1.
         23    2    1    2    0    0  0.00000000000E+00  0.00000000000E+00  0.50459464201E+02  0.10276335329E+03  0.89521780881E+02 0.  0.
        -11    1    3    3    0    0  0.56749098640E+01 -0.28083866143E+02 -0.14246332249E+02  0.31997908093E+02  0.51100000000E-03 0.  1.
         11    1    3    3    0    0 -0.56749098640E+01  0.28083866143E+02  0.64705796450E+02  0.70765445197E+02  0.51100000000E-03 0. -1.
<mgrwt>
<rscale>  0 0.89521781E+02</rscale>
<asrwt>0</asrwt>
<pdfrwt beam="1">  1        1 0.11786370E-01 0.89521781E+02</pdfrwt>
<pdfrwt beam="2">  1       -1 0.40233761E-02 0.89521781E+02</pdfrwt>
<totfact> 0.10521769E+05</totfact>
</mgrwt>
</event>
<event>
 5   1  0.1357339E+00  0.9845669E+02  0.7818608E-02  0.1283575E+00
         -1   -1    0    0    0  501 -0.00000000000E+00  0.00000000000E+00  0.68287157055E+01  0.68287173024E+01  0.46700000000E-02 0.  1.
          1   -1    0    0  501    0  0.00000000000E+00 -0.00000000000E+00 -0.35488808695E+03  0.35488808698E+03  0.46700000000E-02 0. -1.
         23    2    1    2    0    0  0.00000000000E+00  0.00000000000E+00 -0.34805937124E+03  0.36171680428E+03  0.98456693981E+02 0.  0.
        -11    1    3    3    0    0 -0.39272388069E+02  0.29569783557E+02 -0.16449348241E+03  0.17168225977E+03  0.51100000000E-03 0.  1.
         11    1    3    3    0    0  0.39272388069E+02 -0.29569783557E+02 -0.18356588883E+03  0.19003454451E+03  0.51100000000E-03 0. -1.
<mgrwt>
<rscale>  0 0.98456694E+02</rscale>
<asrwt>0</asrwt>
<pdfrwt beam="2">  1        1 0.54598153E-01 0.98456694E+02</pdfrwt>
<pdfrwt beam="1">  1       -1 0.10505720E-02 0.98456694E+02</pdfrwt>
<totfact> 0.10764888E+05</totfact>
</mgrwt>
</event>
<event>
 5   1  0.1357339E+00  0.1013384E+03  0.7818608E-02  0.1277506E+00
         -1   -1    0    0    0  501 -0.00000000000E+00  0.00000000000E+00  0.60122055094E+01  0.60122073232E+01  0.46700000000E-02 0.  1.
          1   -1    0    0  501    0  0.00000000000E+00 -0.00000000000E+00 -0.42702564257E+03  0.42702564260E+03  0.46700000000E-02 0. -1.
         23    2    1    2    0    0  0.00000000000E+00  0.00000000000E+00 -0.42101343707E+03  0.43303784992E+03  0.10133837021E+03 0.  0.
        -11    1    3    3    0    0  0.32685889145E+02 -0.38492847897E+02 -0.22828011205E+03  0.23379879437E+03  0.51100000000E-03 0.  1.
         11    1    3    3    0    0 -0.32685889145E+02  0.38492847897E+02 -0.19273332501E+03  0.19923905556E+03  0.51100000000E-03 0. -1.
<mgrwt>
<rscale>  0 0.10133837E+03</rscale>
<asrwt>0</asrwt>
<pdfrwt beam="2">  1        1 0.65696229E-01 0.10133837E+03</pdfrwt>
<pdfrwt beam="1">  1       -1 0.92495517E-03 0.10133837E+03</pdfrwt>
<totfact> 0.10281040E+05</totfact>
</mgrwt>
</event>
<event>
 5   1  0.1357339E+00  0.9958841E+02  0.7818608E-02  0.1281164E+00
          1   -1    0    0  501    0  0.00000000000E+00  0.00000000000E+00  0.21972144729E+02  0.21972145226E+02  0.46700000000E-02 0. -1.
         -1   -1    0    0    0  501 -0.00000000000E+00 -0.00000000000E+00 -0.11284572870E+03  0.11284572879E+03  0.46700000000E-02 0.  1.
         23    2    1    2    0    0  0.00000000000E+00  0.00000000000E+00 -0.90873583968E+02  0.13481787402E+03  0.99588407417E+02 0.  0.
        -11    1    3    3    0    0 -0.42290544686E+02  0.50723125899E+01 -0.10520410104E+02  0.43873654439E+02  0.51100000000E-03 0. -1.
         11    1    3    3    0    0  0.42290544686E+02 -0.50723125899E+01 -0.80353173863E+02  0.90944219580E+02  0.51100000000E-03 0.  1.
<mgrwt>
<rscale>  0 0.99588407E+02</rscale>
<asrwt>0</asrwt>
<pdfrwt beam="1">  1        1 0.33803301E-02 0.99588407E+02</pdfrwt>
<pdfrwt beam="2">  1       -1 0.17360881E-01 0.99588407E+02</pdfrwt>
<totfact> 0.63274772E+04</totfact>
</mgrwt>
</event>
<event>
 5   1  0.1357339E+00  0.9268404E+02  0.7818608E-02  0.1296479E+00
          1   -1    0    0  501    0  0.00000000000E+00  0.00000000000E+00  0.16550975462E+02  0.16550976121E+02  0.46700000000E-02 0. -1.
         -1   -1    0    0    0  501 -0.00000000000E+00 -0.00000000000E+00 -0.12975567215E+03  0.12975567224E+03  0.46700000000E-02 0.  1.
         23    2    1    2    0    0  0.00000000000E+00  0.00000000000E+00 -0.11320469669E+03  0.14630664836E+03  0.92684043938E+02 0.  0.
        -11    1    3    3    0    0 -0.42911557481E+02 -0.15649067581E+02 -0.68960300867E+02  0.82715283820E+02  0.51100000000E-03 0.  1.
         11    1    3    3    0    0  0.42911557481E+02  0.15649067581E+02 -0.44244395823E+02  0.63591364536E+02  0.51100000000E-03 0. -1.
<mgrwt>
<rscale>  0 0.92684044E+02</rscale>
<asrwt>0</asrwt>
<pdfrwt beam="1">  1        1 0.25463041E-02 0.92684044E+02</pdfrwt>
<pdfrwt beam="2">  1       -1 0.19962410E-01 0.92684044E+02</pdfrwt>
<totfact> 0.74041095E+04</totfact>
</mgrwt>
</event>
<event>
 5   1  0.1357339E+00  0.7799434E+02  0.7818608E-02  0.1334842E+00
          1   -1    0    0  501    0  0.00000000000E+00  0.00000000000E+00  0.52002902776E+02  0.52002902985E+02  0.46700000000E-02 0. -1.
         -1   -1    0    0    0  501 -0.00000000000E+00 -0.00000000000E+00 -0.29244121317E+02  0.29244121690E+02  0.46700000000E-02 0.  1.
         23    2    1    2    0    0  0.00000000000E+00  0.00000000000E+00  0.22758781459E+02  0.81247024675E+02  0.77994338801E+02 0.  0.
        -11    1    3    3    0    0  0.68645189797E+01  0.12535471331E+02 -0.26417671253E+02  0.30035862182E+02  0.51100000000E-03 0.  1.
         11    1    3    3    0    0 -0.68645189797E+01 -0.12535471331E+02  0.49176452712E+02  0.51211162493E+02  0.51100000000E-03 0. -1.
<mgrwt>
<rscale>  0 0.77994339E+02</rscale>
<asrwt>0</asrwt>
<pdfrwt beam="1">  1        1 0.80004466E-02 0.77994339E+02</pdfrwt>
<pdfrwt beam="2">  1       -1 0.44990957E-02 0.77994339E+02</pdfrwt>
<totfact> 0.14503691E+05</totfact>
</mgrwt>
</event>
<event>
 5   1  0.1357339E+00  0.8917090E+02  0.7818608E-02  0.1304872E+00
          1   -1    0    0  501    0  0.00000000000E+00  0.00000000000E+00  0.10483020023E+03  0.10483020034E+03  0.46700000000E-02 0. -1.
         -1   -1    0    0    0  501 -0.00000000000E+00 -0.00000000000E+00 -0.18962688279E+02  0.18962688854E+02  0.46700000000E-02 0.  1.
         23    2    1    2    0    0  0.00000000000E+00  0.00000000000E+00  0.85867511954E+02  0.12379288919E+03  0.89170902233E+02 0.  0.
        -11    1    3    3    0    0  0.54290216669E+01 -0.32946481164E+02  0.19172037504E+01  0.33445785502E+02  0.51100000000E-03 0.  1.
         11    1    3    3    0    0 -0.54290216669E+01  0.32946481164E+02  0.83950308203E+02  0.90347103689E+02  0.51100000000E-03 0. -1.
<mgrwt>
<rscale>  0 0.89170902E+02</rscale>
<asrwt>0</asrwt>
<pdfrwt beam="1">  1        1 0.16127723E-01 0.89170902E+02</pdfrwt>
<pdfrwt beam="2">  1       -1 0.29173367E-02 0.89170902E+02</pdfrwt>
<totfact> 0.11183701E+05</totfact>
</mgrwt>
</event>
<event>
 5   1  0.1357339E+00  0.9136479E+02  0.7818608E-02  0.1299580E+00
          1   -1    0    0  501    0  0.00000000000E+00  0.00000000000E+00  0.91482682266E+01  0.91482694185E+01  0.46700000000E-02 0.  1.
         -1   -1    0    0    0  501 -0.00000000000E+00 -0.00000000000E+00 -0.22811758675E+03  0.22811758679E+03  0.46700000000E-02 0. -1.
         23    2    1    2    0    0  0.00000000000E+00  0.00000000000E+00 -0.21896931852E+03  0.23726585621E+03  0.91364785729E+02 0.  0.
        -11    1    3    3    0    0  0.23166117949E+02  0.34286743189E+02 -0.59220502712E+02  0.72244845636E+02  0.51100000000E-03 0.  1.
         11    1    3    3    0    0 -0.23166117949E+02 -0.34286743189E+02 -0.15974881581E+03  0.16502101058E+03  0.51100000000E-03 0. -1.
<mgrwt>
<rscale>  0 0.91364786E+02</rscale>
<asrwt>0</asrwt>
<pdfrwt beam="1">  1        1 0.14074261E-02 0.91364786E+02</pdfrwt>
<pdfrwt beam="2">  1       -1 0.35095009E-01 0.91364786E+02</pdfrwt>
<totfact> 0.66376534E+04</totfact>
</mgrwt>
</event>
<event>
 5   1  0.1357339E+00  0.9017800E+02  0.7818608E-02  0.1302421E+00
         -1   -1    0    0    0  501 -0.00000000000E+00  0.00000000000E+00  0.95983784991E+02  0.95983785105E+02  0.46700000000E-02 0.  1.
          1   -1    0    0  501    0  0.00000000000E+00 -0.00000000000E+00 -0.21180847668E+02  0.21180848183E+02  0.46700000000E-02 0. -1.
         23    2    1    2    0    0  0.00000000000E+00  0.00000000000E+00  0.74802937323E+02  0.11716463329E+03  0.90178000983E+02 0.  0.
        -11    1    3    3    0    0  0.37914160524E+02 -0.48015382237E+01  0.68488263847E+02  0.78429462720E+02  0.51100000000E-03 0.  1.
         11    1    3    3    0    0 -0.37914160524E+02  0.48015382237E+01  0.63146734760E+01  0.38735170568E+02  0.51100000000E-03 0. -1.
<mgrwt>
<rscale>  0 0.90178001E+02</rscale>
<asrwt>0</asrwt>
<pdfrwt beam="2">  1        1 0.32585920E-02 0.90178001E+02</pdfrwt>
<pdfrwt beam="1">  1       -1 0.14766736E-01 0.90178001E+02</pdfrwt>
<totfact> 0.84341685E+04</totfact>
</mgrwt>
</event>
<event>
 5   1  0.1357339E+00  0.1154557E+03  0.7818608E-02  0.1250788E+00
          1   -1    0    0  501    0  0.00000000000E+00  0.00000000000E+00  0.31462925339E+02  0.31462925685E+02  0.46700000000E-02 0. -1.
         -1   -1    0    0    0  501 -0.00000000000E+00 -0.00000000000E+00 -0.10591851907E+03  0.10591851917E+03  0.46700000000E-02 0.  1.
         23    2    1    2    0    0  0.00000000000E+00  0.00000000000E+00 -0.74455593732E+02  0.13738144486E+03  0.11545573158E+03 0.  0.
        -11    1    3    3    0    0 -0.23898106516E+01 -0.50656153500E+02 -0.70047405131E+02  0.86477719952E+02  0.51100000000E-03 0.  1.
         11    1    3    3    0    0  0.23898106516E+01  0.50656153500E+02 -0.44081886010E+01  0.50903724906E+02  0.51100000000E-03 0. -1.
<mgrwt>
<rscale>  0 0.11545573E+03</rscale>
<asrwt>0</asrwt>
<pdfrwt beam="1">  1        1 0.48404501E-02 0.11545573E+03</pdfrwt>
<pdfrwt beam="2">  1       -1 0.16295157E-01 0.11545573E+03</pdfrwt>
<totfact> 0.43694907E+04</totfact>
</mgrwt>
</event>
<event>
 5   1  0.1357339E+00  0.9253020E+02  0.7818608E-02  0.1296838E+00
         -1   -1    0    0    0  501 -0.00000000000E+00  0.00000000000E+00  0.23056247361E+02  0.23056247834E+02  0.46700000000E-02 0.  1.
          1   -1    0    0  501    0  0.00000000000E+00 -0.00000000000E+00 -0.92836411965E+02  0.92836412082E+02  0.46700000000E-02 0. -1.
         23    2    1    2    0    0  0.00000000000E+00  0.00000000000E+00 -0.69780164604E+02  0.11589265992E+03  0.92530196424E+02 0.  0.
        -11    1    3    3    0    0  0.29121683668E+02 -0.34568576176E+01  0.99278227480E+01  0.30961007559E+02  0.51100000000E-03 0.  1.
         11    1    3    3    0    0 -0.29121683668E+02  0.34568576176E+01 -0.79707987352E+02  0.84931652357E+02  0.51100000000E-03 0. -1.
<mgrwt>
<rscale>  0 0.92530196E+02</rscale>
<asrwt>0</asrwt>
<pdfrwt beam="2">  1        1 0.14282525E-01 0.92530196E+02</pdfrwt>
<pdfrwt beam="1">  1       -1 0.35471151E-02 0.92530196E+02</pdfrwt>
<totfact> 0.99101634E+04</totfact>
</mgrwt>
</event>
<event>
 5   1  0.1357339E+00  0.9030266E+02  0.7818608E-02  0.1302120E+00
         -1   -1    0    0    0  501 -0.00000000000E+00  0.00000000000E+00  0.39187517136E+02  0.39187517414E+02  0.46700000000E-02 0.  1.
          1   -1    0    0  501    0  0.00000000000E+00 -0.00000000000E+00 -0.52022754227E+02  0.52022754437E+02  0.46700000000E-02 0. -1.
         23    2    1    2    0    0  0.00000000000E+00  0.00000000000E+00 -0.12835237091E+02  0.91210271851E+02  0.90302659872E+02 0.  0.
        -11    1    3    3    0    0  0.87370992108E+01 -0.19413881266E+02  0.33799743459E+02  0.39945692466E+02  0.51100000000E-03 0.  1.
         11    1    3    3    0    0 -0.87370992108E+01  0.19413881266E+02 -0.46634980550E+02  0.51264579386E+02  0.51100000000E-03 0. -1.
<mgrwt>
<rscale>  0 0.90302660E+02</rscale>
<asrwt>0</asrwt>
<pdfrwt beam="2">  1        1 0.80035007E-02 0.90302660E+02</pdfrwt>
<pdfrwt beam="1">  1       -1 0.60288488E-02 0.90302660E+02</pdfrwt>
<totfact> 0.96889778E+04</totfact>
</mgrwt>
</event>
<event>
 5   1  0.1357339E+00  0.9847973E+02  0.7818608E-02  0.1283526E+00
          1   -1    0    0  501    0  0.00000000000E+00  0.00000000000E+00  0.36206378918E+02  0.36206379219E+02  0.46700000000E-02 0. -1.
         -1   -1    0    0    0  501 -0.00000000000E+00 -0.00000000000E+00 -0.66965110324E+02  0.66965110487E+02  0.46700000000E-02 0.  1.
         23    2    1    2    0    0  0.00000000000E+00  0.00000000000E+00 -0.30758731406E+02  0.10317148971E+03  0.98479727509E+02 0.  0.
        -11    1    3    3    0    0 -0.17822662483E+02 -0.21173141594E+02 -0.58045731477E+02  0.64305957468E+02  0.51100000000E-03 0.  1.
         11    1    3    3    0    0  0.17822662483E+02  0.21173141594E+02  0.27287000071E+02  0.38865532237E+02  0.51100000000E-03 0. -1.
<mgrwt>
<rscale>  0 0.98479728E+02</rscale>
<asrwt>0</asrwt>
<pdfrwt beam="1">  1        1 0.55702122E-02 0.98479728E+02</pdfrwt>
<pdfrwt beam="2">  1       -1 0.10302325E-01 0.98479728E+02</pdfrwt>
<totfact> 0.71620810E+04</totfact>
</mgrwt>
</event>
<event>
 5   1  0.1357339E+00  0.1003112E+03  0.7818608E-02  0.1279643E+00
          1   -1    0    0  501    0  0.00000000000E+00  0.00000000000E+00  0.73356564528E+02  0.73356564676E+02  0.46700000000E-02 0. -1.
         -1   -1    0    0    0  501 -0.00000000000E+00 -0.00000000000E+00 -0.34292524875E+02  0.34292525193E+02  0.46700000000E-02 0.  1.
         23    2    1    2    0    0  0.00000000000E+00  0.00000000000E+00  0.39064039653E+02  0.10764908987E+03  0.10031115270E+03 0.  0.
        -11    1    3    3    0    0  0.10382411302E+00 -0.20328275725E+02  0.68737312482E+02  0.71680315994E+02  0.51100000000E-03 0. -1.
         11    1    3    3    0    0 -0.10382411302E+00  0.20328275725E+02 -0.29673272830E+02  0.35968773875E+02  0.51100000000E-03 0.  1.
<mgrwt>
<rscale>  0 0.10031115E+03</rscale>
<asrwt>0</asrwt>
<pdfrwt beam="1">  1        1 0.11285625E-01 0.10031115E+03</pdfrwt>
<pdfrwt beam="2">  1       -1 0.52757731E-02 0.10031115E+03</pdfrwt>
<totfact> 0.76260089E+04</totfact>
</mgrwt>
</event>
<event>
 5   1  0.1357339E+00  0.9034641E+02  0.7818608E-02  0.1302015E+00
         -1   -1    0    0    0  501 -0.00000000000E+00  0.00000000000E+00  0.33774037223E+02  0.33774037546E+02  0.46700000000E-02 0.  1.
          1   -1    0    0  501    0  0.00000000000E+00 -0.00000000000E+00 -0.60419731779E+02  0.60419731960E+02  0.46700000000E-02 0. -1.
         23    2    1    2    0    0  0.00000000000E+00  0.00000000000E+00 -0.26645694556E+02  0.94193769506E+02  0.90346406544E+02 0.  0.
        -11    1    3    3    0    0  0.26268506190E+02  0.56652300563E+01  0.24534445724E+02  0.36387748986E+02  0.51100000000E-03 0.  1.
         11    1    3    3    0    0 -0.26268506190E+02 -0.56652300563E+01 -0.51180140280E+02  0.57806020520E+02  0.51100000000E-03 0. -1.
<mgrwt>
<rscale>  0 0.90346407E+02</rscale>
<asrwt>0</asrwt>
<pdfrwt beam="2">  1        1 0.92953434E-02 0.90346407E+02</pdfrwt>
<pdfrwt beam="1">  1       -1 0.51960058E-02 0.90346407E+02</pdfrwt>
<totfact> 0.98948712E+04</totfact>
</mgrwt>
</event>
<event>
 5   1  0.1357339E+00  0.8833465E+02  0.7818608E-02  0.1306935E+00
         -1   -1    0    0    0  501 -0.00000000000E+00  0.00000000000E+00  0.66542269417E+02  0.66542269580E+02  0.46700000000E-02 0.  1.
          1   -1    0    0  501    0  0.00000000000E+00 -0.00000000000E+00 -0.29315987802E+02  0.29315988174E+02  0.46700000000E-02 0. -1.
         23    2    1    2    0    0  0.00000000000E+00  0.00000000000E+00  0.37226281614E+02  0.95858257755E+02  0.88334645168E+02 0.  0.
        -11    1    3    3    0    0 -0.36734082462E+02  0.57596718117E+01 -0.72537143549E+01  0.37883809285E+02  0.51100000000E-03 0.  1.
         11    1    3    3    0    0  0.36734082462E+02 -0.57596718117E+01  0.44479995969E+02  0.57974448470E+02  0.51100000000E-03 0. -1.
<mgrwt>
<rscale>  0 0.88334645E+02</rscale>
<asrwt>0</asrwt>
<pdfrwt beam="2">  1        1 0.45101521E-02 0.88334645E+02</pdfrwt>
<pdfrwt beam="1">  1       -1 0.10237272E-01 0.88334645E+02</pdfrwt>
<totfact> 0.94560499E+04</totfact>
</mgrwt>
</event>
<event>
 5   1  0.1357339E+00  0.9000205E+02  0.7818608E-02  0.1302847E+00
          1   -1    0    0  501    0  0.00000000000E+00  0.00000000000E+00  0.28241979248E+03  0.28241979252E+03  0.46700000000E-02 0. -1.
         -1   -1    0    0    0  501 -0.00000000000E+00 -0.00000000000E+00 -0.71705037249E+01  0.71705052457E+01  0.46700000000E-02 0.  1.
         23    2    1    2    0    0  0.00000000000E+00  0.00000000000E+00  0.27524928875E+03  0.28959029776E+03  0.90002053304E+02 0.  0.
        -11    1    3    3    0    0 -0.38368164965E+02 -0.29730936533E+01  0.62568589840E+02  0.73455999098E+02  0.51100000000E-03 0.  1.
         11    1    3    3    0    0  0.38368164965E+02  0.29730936533E+01  0.21268069892E+03  0.21613429867E+03  0.51100000000E-03 0. -1.
<mgrwt>
<rscale>  0 0.90002053E+02</rscale>
<asrwt>0</asrwt>
<pdfrwt beam="1">  1        1 0.43449204E-01 0.90002053E+02</pdfrwt>
<pdfrwt beam="2">  1       -1 0.11031544E-02 0.90002053E+02</pdfrwt>
<totfact> 0.13109500E+05</totfact>
</mgrwt>
</event>
<event>
 5   1  0.1357339E+00  0.8840628E+02  0.7818608E-02  0.1306758E+00
          1   -1    0    0  501    0  0.00000000000E+00  0.00000000000E+00  0.23741118330E+02  0.23741118789E+02  0.46700000000E-02 0. -1.
         -1   -1    0    0    0  501 -0.00000000000E+00 -0.00000000000E+00 -0.82300993086E+02  0.82300993218E+02  0.46700000000E-02 0.  1.
         23    2    1    2    0    0  0.00000000000E+00  0.00000000000E+00 -0.58559874756E+02  0.10604211201E+03  0.88406281381E+02 0.  0.
        -11    1    3    3    0    0  0.20987557842E+02  0.29569288366E+02 -0.59603394946E+02  0.69766647389E+02  0.51100000000E-03 0.  1.
         11    1    3    3    0    0 -0.20987557842E+02 -0.29569288366E+02  0.10435201897E+01  0.36275464618E+02  0.51100000000E-03 0. -1.
<mgrwt>
<rscale>  0 0.88406281E+02</rscale>
<asrwt>0</asrwt>
<pdfrwt beam="1">  1        1 0.36524798E-02 0.88406281E+02</pdfrwt>
<pdfrwt beam="2">  1       -1 0.12661691E-01 0.88406281E+02</pdfrwt>
<totfact> 0.91164783E+04</totfact>
</mgrwt>
</event>
<event>
 5   1  0.1357339E+00  0.8828826E+02  0.7818608E-02  0.1307051E+00
         -1   -1    0    0    0  501 -0.00000000000E+00  0.00000000000E+00  0.16434813664E+02  0.16434814328E+02  0.46700000000E-02 0.  1.
          1   -1    0    0  501    0  0.00000000000E+00 -0.00000000000E+00 -0.11857171165E+03  0.11857171175E+03  0.46700000000E-02 0. -1.
         23    2    1    2    0    0  0.00000000000E+00  0.00000000000E+00 -0.10213689799E+03  0.13500652607E+03  0.88288256022E+02 0.  0.
        -11    1    3    3    0    0  0.22006133127E+02 -0.36642476887E+02 -0.67942118842E+02  0.80268751832E+02  0.51100000000E-03 0.  1.
         11    1    3    3    0    0 -0.22006133127E+02  0.36642476887E+02 -0.34194779147E+02  0.54737774241E+02  0.51100000000E-03 0. -1.
<mgrwt>
<rscale>  0 0.88288256E+02</rscale>
<asrwt>0</asrwt>
<pdfrwt beam="2">  1        1 0.18241801E-01 0.88288256E+02</pdfrwt>
<pdfrwt beam="1">  1       -1 0.25284330E-02 0.88288256E+02</pdfrwt>
<totfact> 0.11729960E+05</totfact>
</mgrwt>
</event>
<event>
 5   1  0.1357339E+00  0.9317670E+02  0.7818608E-02  0.1295336E+00
         -1   -1    0    0    0  501 -0.00000000000E+00  0.00000000000E+00  0.20647466013E+03  0.20647466018E+03  0.46700000000E-02 0.  1.
          1   -1    0    0  501    0  0.00000000000E+00 -0.00000000000E+00 -0.10512062151E+02  0.10512063189E+02  0.46700000000E-02 0. -1.
         23    2    1    2    0    0  0.00000000000E+00  0.00000000000E+00  0.19596259798E+03  0.21698672337E+03  0.93176704775E+02 0.  0.
        -11    1    3    3    0    0 -0.17678058193E+02 -0.38887718251E+02  0.54682145876E+02  0.69389519743E+02  0.51100000000E-03 0. -1.
         11    1    3    3    0    0  0.17678058193E+02  0.38887718251E+02  0.14128045210E+03  0.14759720363E+03  0.51100000000E-03 0.  1.
<mgrwt>
<rscale>  0 0.93176705E+02</rscale>
<asrwt>0</asrwt>
<pdfrwt beam="2">  1        1 0.16172404E-02 0.93176705E+02</pdfrwt>
<pdfrwt beam="1">  1       -1 0.31765333E-01 0.93176705E+02</pdfrwt>
<totfact> 0.65000095E+04</totfact>
</mgrwt>
</event>
<event>
 5   1  0.1357339E+00  0.9298821E+02  0.7818608E-02  0.1295773E+00
          1   -1    0    0  501    0  0.00000000000E+00  0.00000000000E+00  0.13634476101E+03  0.13634476109E+03  0.46700000000E-02 0. -1.
         -1   -1    0    0    0  501 -0.00000000000E+00 -0.00000000000E+00 -0.15854673158E+02  0.15854673846E+02  0.46700000000E-02 0.  1.
         23    2    1    2    0    0  0.00000000000E+00  0.00000000000E+00  0.12049008785E+03  0.15219943494E+03  0.92988207448E+02 0.  0.
        -11    1    3    3    0    0 -0.43978002331E+02  0.12874581691E+02  0.47369433743E+02  0.65906621792E+02  0.51100000000E-03 0.  1.
         11    1    3    3    0    0  0.43978002331E+02 -0.12874581691E+02  0.73120654111E+02  0.86292813145E+02  0.51100000000E-03 0. -1.
<mgrwt>
<rscale>  0 0.92988207E+02</rscale>
<asrwt>0</asrwt>
<pdfrwt beam="1">  1        1 0.20976117E-01 0.92988207E+02</pdfrwt>
<pdfrwt beam="2">  1       -1 0.24391806E-02 0.92988207E+02</pdfrwt>
<totfact> 0.10448324E+05</totfact>
</mgrwt>
</event>
<event>
 5   1  0.1357339E+00  0.8761010E+02  0.7818608E-02  0.1308745E+00
         -1   -1    0    0    0  501 -0.00000000000E+00  0.00000000000E+00  0.37998391943E+02  0.37998392230E+02  0.46700000000E-02 0.  1.
          1   -1    0    0  501    0  0.00000000000E+00 -0.00000000000E+00 -0.50499036796E+02  0.50499037012E+02  0.46700000000E-02 0. -1.
         23    2    1    2    0    0  0.00000000000E+00  0.00000000000E+00 -0.12500644852E+02  0.88497429242E+02  0.87610095655E+02 0.  0.
        -11    1    3    3    0    0 -0.19183775924E+02  0.24565306734E+02  0.24841461031E+02  0.39856865658E+02  0.51100000000E-03 0.  1.
         11    1    3    3    0    0  0.19183775924E+02 -0.24565306734E+02 -0.37342105884E+02  0.48640563584E+02  0.51100000000E-03 0. -1.
<mgrwt>
<rscale>  0 0.87610096E+02</rscale>
<asrwt>0</asrwt>
<pdfrwt beam="2">  1        1 0.77690826E-02 0.87610096E+02</pdfrwt>
<pdfrwt beam="1">  1       -1 0.58459065E-02 0.87610096E+02</pdfrwt>
<totfact> 0.10493175E+05</totfact>
</mgrwt>
</event>
<event>
 5   1  0.1357339E+00  0.8932967E+02  0.7818608E-02  0.1304483E+00
         -1   -1    0    0    0  501 -0.00000000000E+00  0.00000000000E+00  0.11160058193E+03  0.11160058203E+03  0.46700000000E-02 0.  1.
          1   -1    0    0  501    0  0.00000000000E+00 -0.00000000000E+00 -0.17875781509E+02  0.17875782119E+02  0.46700000000E-02 0. -1.
         23    2    1    2    0    0  0.00000000000E+00  0.00000000000E+00  0.93724800420E+02  0.12947636414E+03  0.89329674008E+02 0.  0.
        -11    1    3    3    0    0 -0.13452942506E+02  0.42411541577E+02  0.41206471002E+02  0.60643992066E+02  0.51100000000E-03 0. -1.
         11    1    3    3    0    0  0.13452942506E+02 -0.42411541577E+02  0.52518329418E+02  0.68832372079E+02  0.51100000000E-03 0.  1.
<mgrwt>
<rscale>  0 0.89329674E+02</rscale>
<asrwt>0</asrwt>
<pdfrwt beam="2">  1        1 0.27501203E-02 0.89329674E+02</pdfrwt>
<pdfrwt beam="1">  1       -1 0.17169320E-01 0.89329674E+02</pdfrwt>
<totfact> 0.83999017E+04</totfact>
</mgrwt>
</event>
<event>
 5   1  0.1357339E+00  0.9330674E+02  0.7818608E-02  0.1295036E+00
          1   -1    0    0  501    0  0.00000000000E+00  0.00000000000E+00  0.36905097342E+02  0.36905097637E+02  0.46700000000E-02 0. -1.
         -1   -1    0    0    0  501 -0.00000000000E+00 -0.00000000000E+00 -0.58976587680E+02  0.58976587865E+02  0.46700000000E-02 0.  1.
         23    2    1    2    0    0  0.00000000000E+00  0.00000000000E+00 -0.22071490338E+02  0.95881685502E+02  0.93306735711E+02 0.  0.
        -11    1    3    3    0    0  0.33558281794E+02 -0.10571738987E+02 -0.42518071988E+02  0.55187918859E+02  0.51100000000E-03 0.  1.
         11    1    3    3    0    0 -0.33558281794E+02  0.10571738987E+02  0.20446581649E+02  0.40693766643E+02  0.51100000000E-03 0. -1.
<mgrwt>
<rscale>  0 0.93306736E+02</rscale>
<asrwt>0</asrwt>
<pdfrwt beam="1">  1        1 0.56777073E-02 0.93306736E+02</pdfrwt>
<pdfrwt beam="2">  1       -1 0.90733212E-02 0.93306736E+02</pdfrwt>
<totfact> 0.83859920E+04</totfact>
</mgrwt>
</event>
<event>
 5   1  0.1357339E+00  0.9088344E+02  0.7818608E-02  0.1300726E+00
          1   -1    0    0  501    0  0.00000000000E+00  0.00000000000E+00  0.98614531588E+01  0.98614542646E+01  0.46700000000E-02 0. -1.
         -1   -1    0    0    0  501 -0.00000000000E+00 -0.00000000000E+00 -0.20939608982E+03  0.20939608987E+03  0.46700000000E-02 0.  1.
         23    2    1    2    0    0  0.00000000000E+00  0.00000000000E+00 -0.19953463666E+03  0.21925754414E+03  0.90883438718E+02 0.  0.
        -11    1    3    3    0    0  0.36306198560E+02  0.21002252050E+02 -0.57585206400E+02  0.71241074118E+02  0.51100000000E-03 0.  1.
         11    1    3    3    0    0 -0.36306198560E+02 -0.21002252050E+02 -0.14194943026E+03  0.14801647002E+03  0.51100000000E-03 0. -1.
<mgrwt>
<rscale>  0 0.90883439E+02</rscale>
<asrwt>0</asrwt>
<pdfrwt beam="1">  1        1 0.15171469E-02 0.90883439E+02</pdfrwt>
<pdfrwt beam="2">  1       -1 0.32214780E-01 0.90883439E+02</pdfrwt>
<totfact> 0.69081430E+04</totfact>
</mgrwt>
</event>
<event>
 5   1  0.1357339E+00  0.9037855E+02  0.7818608E-02  0.1301938E+00
         -1   -1    0    0    0  501 -0.00000000000E+00  0.00000000000E+00  0.28172370352E+02  0.28172370739E+02  0.46700000000E-02 0.  1.
          1   -1    0    0  501    0  0.00000000000E+00 -0.00000000000E+00 -0.72484874932E+02  0.72484875083E+02  0.46700000000E-02 0. -1.
         23    2    1    2    0    0  0.00000000000E+00  0.00000000000E+00 -0.44312504580E+02  0.10065724582E+03  0.90378554283E+02 0.  0.
        -11    1    3    3    0    0  0.21466698410E+02  0.32597409481E+02 -0.47520457012E+02  0.61494748397E+02  0.51100000000E-03 0. -1.
         11    1    3    3    0    0 -0.21466698410E+02 -0.32597409481E+02  0.32079524320E+01  0.39162497425E+02  0.51100000000E-03 0.  1.
<mgrwt>
<rscale>  0 0.90378554E+02</rscale>
<asrwt>0</asrwt>
<pdfrwt beam="2">  1        1 0.11151519E-01 0.90378554E+02</pdfrwt>
<pdfrwt beam="1">  1       -1 0.43342109E-02 0.90378554E+02</pdfrwt>
<totfact> 0.10163024E+05</totfact>
</mgrwt>
</event>
<event>
 5   1  0.1357339E+00  0.9144731E+02  0.7818608E-02  0.1299384E+00
          1   -1    0    0  501    0  0.00000000000E+00  0.00000000000E+00  0.26495709085E+02  0.26495709497E+02  0.46700000000E-02 0. -1.
         -1   -1    0    0    0  501 -0.00000000000E+00 -0.00000000000E+00 -0.78905321299E+02  0.78905321438E+02  0.46700000000E-02 0.  1.
         23    2    1    2    0    0  0.00000000000E+00  0.00000000000E+00 -0.52409612214E+02  0.10540103093E+03  0.91447306519E+02 0.  0.
        -11    1    3    3    0    0 -0.20197997156E+02 -0.27188376600E+02 -0.61607928650E+02  0.70304365327E+02  0.51100000000E-03 0.  1.
         11    1    3    3    0    0  0.20197997156E+02  0.27188376600E+02  0.91983164362E+01  0.35096665607E+02  0.51100000000E-03 0. -1.
<mgrwt>
<rscale>  0 0.91447307E+02</rscale>
<asrwt>0</asrwt>
<pdfrwt beam="1">  1        1 0.40762630E-02 0.91447307E+02</pdfrwt>
<pdfrwt beam="2">  1       -1 0.12139280E-01 0.91447307E+02</pdfrwt>
<totfact> 0.84206220E+04</totfact>
</mgrwt>
</event>
<event>
 5   1  0.1357339E+00  0.9403493E+02  0.7818608E-02  0.1293365E+00
         -1   -1    0    0    0  501 -0.00000000000E+00  0.00000000000E+00  0.64925267950E+01  0.64925284745E+01  0.46700000000E-02 0.  1.
          1   -1    0    0  501    0  0.00000000000E+00 -0.00000000000E+00 -0.34049021130E+03  0.34049021133E+03  0.46700000000E-02 0. -1.
         23    2    1    2    0    0  0.00000000000E+00  0.00000000000E+00 -0.33399768450E+03  0.34698273980E+03  0.94034932173E+02 0.  0.
        -11    1    3    3    0    0  0.42913897838E+02 -0.16742211190E+02 -0.20175830991E+03  0.20695004199E+03  0.51100000000E-03 0.  1.
         11    1    3    3    0    0 -0.42913897838E+02  0.16742211190E+02 -0.13223937460E+03  0.14003269782E+03  0.51100000000E-03 0. -1.
<mgrwt>
<rscale>  0 0.94034932E+02</rscale>
<asrwt>0</asrwt>
<pdfrwt beam="2">  1        1 0.52383096E-01 0.94034932E+02</pdfrwt>
<pdfrwt beam="1">  1       -1 0.99885067E-03 0.94034932E+02</pdfrwt>
<totfact> 0.12081923E+05</totfact>
</mgrwt>
</event>
<event>
 5   1  0.1357339E+00  0.9093836E+02  0.7818608E-02  0.1300595E+00
          1   -1    0    0  501    0  0.00000000000E+00  0.00000000000E+00  0.33527507018E+02  0.33527507343E+02  0.46700000000E-02 0. -1.
         -1   -1    0    0    0  501 -0.00000000000E+00 -0.00000000000E+00 -0.61664188974E+02  0.61664189151E+02  0.46700000000E-02 0.  1.
         23    2    1    2    0    0  0.00000000000E+00  0.00000000000E+00 -0.28136681956E+02  0.95191696494E+02  0.90938364896E+02 0.  0.
        -11    1    3    3    0    0 -0.23158797903E+02 -0.20854049096E+02 -0.48726207906E+02  0.57839991538E+02  0.51100000000E-03 0.  1.
         11    1    3    3    0    0  0.23158797903E+02  0.20854049096E+02  0.20589525950E+02  0.37351704956E+02  0.51100000000E-03 0. -1.
<mgrwt>
<rscale>  0 0.90938365E+02</rscale>
<asrwt>0</asrwt>
<pdfrwt beam="1">  1        1 0.51580780E-02 0.90938365E+02</pdfrwt>
<pdfrwt beam="2">  1       -1 0.94867984E-02 0.90938365E+02</pdfrwt>
<totfact> 0.88891428E+04</totfact>
</mgrwt>
</event>
<event>
 5   1  0.1357339E+00  0.9983664E+02  0.7818608E-02  0.1280640E+00
          1   -1    0    0  501    0  0.00000000000E+00  0.00000000000E+00  0.47897820989E+02  0.47897821217E+02  0.46700000000E-02 0. -1.
         -1   -1    0    0    0  501 -0.00000000000E+00 -0.00000000000E+00 -0.52024045373E+02  0.52024045582E+02  0.46700000000E-02 0.  1.
         23    2    1    2    0    0  0.00000000000E+00  0.00000000000E+00 -0.41262243839E+01  0.99921866799E+02  0.99836635245E+02 0.  0.
        -11    1    3    3    0    0 -0.20420981662E+02  0.45317305236E+02  0.25412269625E+01  0.49770799477E+02  0.51100000000E-03 0. -1.
         11    1    3    3    0    0  0.20420981662E+02 -0.45317305236E+02 -0.66674513464E+01  0.50151067322E+02  0.51100000000E-03 0.  1.
<mgrwt>
<rscale>  0 0.99836635E+02</rscale>
<asrwt>0</asrwt>
<pdfrwt beam="1">  1        1 0.73688956E-02 0.99836635E+02</pdfrwt>
<pdfrwt beam="2">  1       -1 0.80036993E-02 0.99836635E+02</pdfrwt>
<totfact> 0.72106721E+04</totfact>
</mgrwt>
</event>
<event>
 5   1  0.1357339E+00  0.9303695E+02  0.7818608E-02  0.1295660E+00
          1   -1    0    0  501    0  0.00000000000E+00  0.00000000000E+00  0.76350595223E+02  0.76350595366E+02  0.46700000000E-02 0. -1.
         -1   -1    0    0    0  501 -0.00000000000E+00 -0.00000000000E+00 -0.28342524954E+02  0.28342525339E+02  0.46700000000E-02 0.  1.
         23    2    1    2    0    0  0.00000000000E+00  0.00000000000E+00  0.48008070270E+02  0.10469312070E+03  0.93036953475E+02 0.  0.
        -11    1    3    3    0    0  0.39625833583E+02  0.14743695687E+01 -0.33658153664E+01  0.39795843579E+02  0.51100000000E-03 0.  1.
         11    1    3    3    0    0 -0.39625833583E+02 -0.14743695687E+01  0.51373885636E+02  0.64897277126E+02  0.51100000000E-03 0. -1.
<mgrwt>
<rscale>  0 0.93036953E+02</rscale>
<asrwt>0</asrwt>
<pdfrwt beam="1">  1        1 0.11746245E-01 0.93036953E+02</pdfrwt>
<pdfrwt beam="2">  1       -1 0.43603887E-02 0.93036953E+02</pdfrwt>
<totfact> 0.94593716E+04</totfact>
</mgrwt>
</event>
<event>
 5   1  0.1357339E+00  0.8585318E+02  0.7818608E-02  0.1313216E+00
          1   -1    0    0  501    0  0.00000000000E+00  0.00000000000E+00  0.34146344155E+02  0.34146344475E+02  0.46700000000E-02 0.  1.
         -1   -1    0    0    0  501 -0.00000000000E+00 -0.00000000000E+00 -0.53964551732E+02  0.53964551934E+02  0.46700000000E-02 0. -1.
         23    2    1    2    0    0  0.00000000000E+00  0.00000000000E+00 -0.19818207577E+02  0.88110896409E+02  0.85853181155E+02 0.  0.
        -11    1    3    3    0    0  0.27723916773E+02 -0.70159997235E+01  0.22946078534E+02  0.36665546958E+02  0.51100000000E-03 0.  1.
         11    1    3    3    0    0 -0.27723916773E+02  0.70159997235E+01 -0.42764286111E+02  0.51445349451E+02  0.51100000000E-03 0. -1.
<mgrwt>
<rscale>  0 0.85853181E+02</rscale>
<asrwt>0</asrwt>
<pdfrwt beam="1">  1        1 0.52532838E-02 0.85853181E+02</pdfrwt>
<pdfrwt beam="2">  1       -1 0.83022388E-02 0.85853181E+02</pdfrwt>
<totfact> 0.10491379E+05</totfact>
</mgrwt>
</event>
<event>
 5   1  0.1357339E+00  0.9207039E+02  0.7818608E-02  0.1297914E+00
          1   -1    0    0  501    0  0.00000000000E+00  0.00000000000E+00  0.26679948157E+03  0.26679948161E+03  0.46700000000E-02 0. -1.
         -1   -1    0    0    0  501 -0.00000000000E+00 -0.00000000000E+00 -0.79431905503E+01  0.79431919231E+01  0.46700000000E-02 0.  1.
         23    2    1    2    0    0  0.00000000000E+00  0.00000000000E+00  0.25885629102E+03  0.27474267353E+03  0.92070392961E+02 0.  0.
        -11    1    3    3    0    0  0.41216759013E+02  0.10910291349E+02  0.18123246294E+03  0.18618018504E+03  0.51100000000E-03 0.  1.
         11    1    3    3    0    0 -0.41216759013E+02 -0.10910291349E+02  0.77623828079E+02  0.88562488486E+02  0.51100000000E-03 0. -1.
<mgrwt>
<rscale>  0 0.92070393E+02</rscale>
<asrwt>0</asrwt>
<pdfrwt beam="1">  1        1 0.41046079E-01 0.92070393E+02</pdfrwt>
<pdfrwt beam="2">  1       -1 0.12220293E-02 0.92070393E+02</pdfrwt>
<totfact> 0.12202877E+05</totfact>
</mgrwt>
</event>
<event>
 5   1  0.1357339E+00  0.9102783E+02  0.7818608E-02  0.1300382E+00
          1   -1    0    0  501    0  0.00000000000E+00  0.00000000000E+00  0.30811872709E+02  0.30811873062E+02  0.46700000000E-02 0. -1.
         -1   -1    0    0    0  501 -0.00000000000E+00 -0.00000000000E+00 -0.67231107394E+02  0.67231107556E+02  0.46700000000E-02 0.  1.
         23    2    1    2    0    0  0.00000000000E+00  0.00000000000E+00 -0.36419234685E+02  0.98042980618E+02  0.91027827577E+02 0.  0.
        -11    1    3    3    0    0 -0.35813894090E+02 -0.26690932203E+02 -0.27628587544E+02  0.52520279147E+02  0.51100000000E-03 0. -1.
         11    1    3    3    0    0  0.35813894090E+02  0.26690932203E+02 -0.87906471413E+01  0.45522701471E+02  0.51100000000E-03 0.  1.
<mgrwt>
<rscale>  0 0.91027828E+02</rscale>
<asrwt>0</asrwt>
<pdfrwt beam="1">  1        1 0.47402882E-02 0.91027828E+02</pdfrwt>
<pdfrwt beam="2">  1       -1 0.10343247E-01 0.91027828E+02</pdfrwt>
<totfact> 0.87466745E+04</totfact>
</mgrwt>
</event>
<event>
 5   1  0.1357339E+00  0.9171484E+02  0.7818608E-02  0.1298751E+00
         -1   -1    0    0    0  501 -0.00000000000E+00  0.00000000000E+00  0.17447255366E+02  0.17447255991E+02  0.46700000000E-02 0.  1.
          1   -1    0    0  501    0  0.00000000000E+00 -0.00000000000E+00 -0.12052915944E+03  0.12052915953E+03  0.46700000000E-02 0. -1.
         23    2    1    2    0    0  0.00000000000E+00  0.00000000000E+00 -0.10308190407E+03  0.13797641552E+03  0.91714842270E+02 0.  0.
        -11    1    3    3    0    0 -0.25669681763E+02  0.27924923545E+02 -0.12770167752E+02  0.40022632366E+02  0.51100000000E-03 0.  1.
         11    1    3    3    0    0  0.25669681763E+02 -0.27924923545E+02 -0.90311736321E+02  0.97953783155E+02  0.51100000000E-03 0. -1.
<mgrwt>
<rscale>  0 0.91714842E+02</rscale>
<asrwt>0</asrwt>
<pdfrwt beam="2">  1        1 0.18542947E-01 0.91714842E+02</pdfrwt>
<pdfrwt beam="1">  1       -1 0.26841933E-02 0.91714842E+02</pdfrwt>
<totfact> 0.10611246E+05</totfact>
</mgrwt>
</event>
<event>
 5   1  0.1357339E+00  0.9180657E+02  0.7818608E-02  0.1298535E+00
         -1   -1    0    0    0  501 -0.00000000000E+00  0.00000000000E+00  0.90619182301E+01  0.90619194334E+01  0.46700000000E-02 0.  1.
          1   -1    0    0  501    0  0.00000000000E+00 -0.00000000000E+00 -0.23252376860E+03  0.23252376865E+03  0.46700000000E-02 0. -1.
         23    2    1    2    0    0  0.00000000000E+00  0.00000000000E+00 -0.22346185037E+03  0.24158568808E+03  0.91806569016E+02 0.  0.
        -11    1    3    3    0    0  0.36348824598E+02  0.27997958848E+02 -0.11544192314E+03  0.12422544171E+03  0.51100000000E-03 0. -1.
         11    1    3    3    0    0 -0.36348824598E+02 -0.27997958848E+02 -0.10801992723E+03  0.11736024637E+03  0.51100000000E-03 0.  1.
<mgrwt>
<rscale>  0 0.91806569E+02</rscale>
<asrwt>0</asrwt>
<pdfrwt beam="2">  1        1 0.35772883E-01 0.91806569E+02</pdfrwt>
<pdfrwt beam="1">  1       -1 0.13941415E-02 0.91806569E+02</pdfrwt>
<totfact> 0.11970777E+05</totfact>
</mgrwt>
</event>
<event>
 5   1  0.1357339E+00  0.9189382E+02  0.7818608E-02  0.1298329E+00
         -1   -1    0    0    0  501 -0.00000000000E+00  0.00000000000E+00  0.69757827901E+01  0.69757843533E+01  0.46700000000E-02 0.  1.
          1   -1    0    0  501    0  0.00000000000E+00 -0.00000000000E+00 -0.30263534408E+03  0.30263534412E+03  0.46700000000E-02 0. -1.
         23    2    1    2    0    0  0.00000000000E+00  0.00000000000E+00 -0.29565956129E+03  0.30961112847E+03  0.91893822915E+02 0.  0.
        -11    1    3    3    0    0 -0.41641704329E+02  0.91511588639E+01 -0.90124119427E+02  0.99700211388E+02  0.51100000000E-03 0.  1.
         11    1    3    3    0    0  0.41641704329E+02 -0.91511588639E+01 -0.20553544186E+03  0.20991091708E+03  0.51100000000E-03 0. -1.
<mgrwt>
<rscale>  0 0.91893823E+02</rscale>
<asrwt>0</asrwt>
<pdfrwt beam="2">  1        1 0.46559274E-01 0.91893823E+02</pdfrwt>
<pdfrwt beam="1">  1       -1 0.10731977E-02 0.91893823E+02</pdfrwt>
<totfact> 0.12568227E+05</totfact>
</mgrwt>
</event>
<event>
 5   1  0.1357339E+00  0.9322494E+02  0.7818608E-02  0.1295225E+00
         -1   -1    0    0    0  501 -0.00000000000E+00  0.00000000000E+00  0.16016012889E+02  0.16016013570E+02  0.46700000000E-02 0.  1.
          1   -1    0    0  501    0  0.00000000000E+00 -0.00000000000E+00 -0.13565936430E+03  0.13565936438E+03  0.46700000000E-02 0. -1.
         23    2    1    2    0    0  0.00000000000E+00  0.00000000000E+00 -0.11964335141E+03  0.15167537795E+03  0.93224936254E+02 0.  0.
        -11    1    3    3    0    0  0.39881910815E+01 -0.22867394074E+02 -0.12558678834E+03  0.12771399605E+03  0.51100000000E-03 0. -1.
         11    1    3    3    0    0 -0.39881910815E+01  0.22867394074E+02  0.59434369323E+01  0.23961381902E+02  0.51100000000E-03 0.  1.
<mgrwt>
<rscale>  0 0.93224936E+02</rscale>
<asrwt>0</asrwt>
<pdfrwt beam="2">  1        1 0.20870671E-01 0.93224936E+02</pdfrwt>
<pdfrwt beam="1">  1       -1 0.24640021E-02 0.93224936E+02</pdfrwt>
<totfact> 0.10367038E+05</totfact>
</mgrwt>
</event>
<event>
 5   1  0.1357339E+00  0.9125599E+02  0.7818608E-02  0.1299838E+00
         -1   -1    0    0    0  501 -0.00000000000E+00  0.00000000000E+00  0.16362845357E+03  0.16362845364E+03  0.46700000000E-02 0.  1.
          1   -1    0    0  501    0  0.00000000000E+00 -0.00000000000E+00 -0.12723421365E+02  0.12723422222E+02  0.46700000000E-02 0. -1.
         23    2    1    2    0    0  0.00000000000E+00  0.00000000000E+00  0.15090503221E+03  0.17635187586E+03  0.91255988155E+02 0.  0.
        -11    1    3    3    0    0 -0.44176955095E+02 -0.89140670492E+01  0.61672055867E+02  0.76383940904E+02  0.51100000000E-03 0.  1.
         11    1    3    3    0    0  0.44176955095E+02  0.89140670492E+01  0.89232976339E+02  0.99967934956E+02  0.51100000000E-03 0. -1.
<mgrwt>
<rscale>  0 0.91255988E+02</rscale>
<asrwt>0</asrwt>
<pdfrwt beam="2">  1        1 0.19574494E-02 0.91255988E+02</pdfrwt>
<pdfrwt beam="1">  1       -1 0.25173610E-01 0.91255988E+02</pdfrwt>
<totfact> 0.73072734E+04</totfact>
</mgrwt>
</event>
<event>
 5   1  0.1357339E+00  0.9021388E+02  0.7818608E-02  0.1302335E+00
          1   -1    0    0  501    0  0.00000000000E+00  0.00000000000E+00  0.26088703187E+03  0.26088703191E+03  0.46700000000E-02 0. -1.
         -1   -1    0    0    0  501 -0.00000000000E+00 -0.00000000000E+00 -0.77989148651E+01  0.77989162633E+01  0.46700000000E-02 0.  1.
         23    2    1    2    0    0  0.00000000000E+00  0.00000000000E+00  0.25308811700E+03  0.26868594817E+03  0.90213877965E+02 0.  0.
        -11    1    3    3    0    0 -0.24076152079E+02 -0.27996349667E+02  0.20370381761E+03  0.20702343346E+03  0.51100000000E-03 0. -1.
         11    1    3    3    0    0  0.24076152079E+02  0.27996349667E+02  0.49384299395E+02  0.61662514712E+02  0.51100000000E-03 0.  1.
<mgrwt>
<rscale>  0 0.90213878E+02</rscale>
<asrwt>0</asrwt>
<pdfrwt beam="1">  1        1 0.40136464E-01 0.90213878E+02</pdfrwt>
<pdfrwt beam="2">  1       -1 0.11998333E-02 0.90213878E+02</pdfrwt>
<totfact> 0.12828455E+05</totfact>
</mgrwt>
</event>
<event>
 5   1  0.1357339E+00  0.8927353E+02  0.7818608E-02  0.1304621E+00
          1   -1    0    0  501    0  0.00000000000E+00  0.00000000000E+00  0.36276890472E+02  0.36276890773E+02  0.46700000000E-02 0. -1.
         -1   -1    0    0    0  501 -0.00000000000E+00 -0.00000000000E+00 -0.54923136171E+02  0.54923136370E+02  0.46700000000E-02 0.  1.
         23    2    1    2    0    0  0.00000000000E+00  0.00000000000E+00 -0.18646245699E+02  0.91200027143E+02  0.89273526155E+02 0.  0.
        -11    1    3    3    0    0  0.22183561555E+02 -0.35474465873E+02 -0.25211643660E+02  0.48848491364E+02  0.51100000000E-03 0.  1.
         11    1    3    3    0    0 -0.22183561555E+02  0.35474465873E+02  0.65653979610E+01  0.42351535779E+02  0.51100000000E-03 0. -1.
<mgrwt>
<rscale>  0 0.89273526E+02</rscale>
<asrwt>0</asrwt>
<pdfrwt beam="1">  1        1 0.55810601E-02 0.89273526E+02</pdfrwt>
<pdfrwt beam="2">  1       -1 0.84497133E-02 0.89273526E+02</pdfrwt>
<totfact> 0.94816148E+04</totfact>
</mgrwt>
</event>
<event>
 5   1  0.1357339E+00  0.1049564E+03  0.7818608E-02  0.1270206E+00
          1   -1    0    0  501    0  0.00000000000E+00  0.00000000000E+00  0.89256101168E+02  0.89256101291E+02  0.46700000000E-02 0. -1.
         -1   -1    0    0    0  501 -0.00000000000E+00 -0.00000000000E+00 -0.30854594123E+02  0.30854594476E+02  0.46700000000E-02 0.  1.
         23    2    1    2    0    0  0.00000000000E+00  0.00000000000E+00  0.58401507046E+02  0.12011069577E+03  0.10495638719E+03 0.  0.
        -11    1    3    3    0    0 -0.37811235239E+02 -0.25911510275E+02  0.58441232280E+02  0.74272966183E+02  0.51100000000E-03 0.  1.
         11    1    3    3    0    0  0.37811235239E+02  0.25911510275E+02 -0.39725234057E-01  0.45837729583E+02  0.51100000000E-03 0. -1.
<mgrwt>
<rscale>  0 0.10495639E+03</rscale>
<asrwt>0</asrwt>
<pdfrwt beam="1">  1        1 0.13731708E-01 0.10495639E+03</pdfrwt>
<pdfrwt beam="2">  1       -1 0.47468607E-02 0.10495639E+03</pdfrwt>
<totfact> 0.69490066E+04</totfact>
</mgrwt>
</event>
<event>
 5   1  0.1357339E+00  0.9075789E+02  0.7818608E-02  0.1301027E+00
         -1   -1    0    0    0  501 -0.00000000000E+00  0.00000000000E+00  0.21991339760E+03  0.21991339765E+03  0.46700000000E-02 0.  1.
          1   -1    0    0  501    0  0.00000000000E+00 -0.00000000000E+00 -0.93639074415E+01  0.93639086060E+01  0.46700000000E-02 0. -1.
         23    2    1    2    0    0  0.00000000000E+00  0.00000000000E+00  0.21054949016E+03  0.22927730626E+03  0.90757894191E+02 0.  0.
        -11    1    3    3    0    0 -0.41689863475E+02  0.17773251749E+02  0.99450298816E+02  0.10928995896E+03  0.51100000000E-03 0.  1.
         11    1    3    3    0    0  0.41689863475E+02 -0.17773251749E+02  0.11109919135E+03  0.11998734730E+03  0.51100000000E-03 0. -1.
<mgrwt>
<rscale>  0 0.90757894E+02</rscale>
<asrwt>0</asrwt>
<pdfrwt beam="2">  1        1 0.14406011E-02 0.90757894E+02</pdfrwt>
<pdfrwt beam="1">  1       -1 0.33832833E-01 0.90757894E+02</pdfrwt>
<totfact> 0.68314724E+04</totfact>
</mgrwt>
</event>
<event>
 5   1  0.1357339E+00  0.9353300E+02  0.7818608E-02  0.1294515E+00
         -1   -1    0    0    0  501 -0.00000000000E+00  0.00000000000E+00  0.17691900483E+02  0.17691901099E+02  0.46700000000E-02 0.  1.
          1   -1    0    0  501    0  0.00000000000E+00 -0.00000000000E+00 -0.12362185454E+03  0.12362185463E+03  0.46700000000E-02 0. -1.
         23    2    1    2    0    0  0.00000000000E+00  0.00000000000E+00 -0.10592995406E+03  0.14131375573E+03  0.93533001616E+02 0.  0.
        -11    1    3    3    0    0 -0.18519064029E+02  0.42925008396E+02 -0.51057768311E+02  0.69227218516E+02  0.51100000000E-03 0.  1.
         11    1    3    3    0    0  0.18519064029E+02 -0.42925008396E+02 -0.54872185749E+02  0.72086537213E+02  0.51100000000E-03 0. -1.
<mgrwt>
<rscale>  0 0.93533002E+02</rscale>
<asrwt>0</asrwt>
<pdfrwt beam="2">  1        1 0.19018746E-01 0.93533002E+02</pdfrwt>
<pdfrwt beam="1">  1       -1 0.27218310E-02 0.93533002E+02</pdfrwt>
<totfact> 0.10104777E+05</totfact>
</mgrwt>
</event>
<event>
 5   1  0.1357339E+00  0.8915651E+02  0.7818608E-02  0.1304907E+00
         -1   -1    0    0    0  501 -0.00000000000E+00  0.00000000000E+00  0.83909032693E+02  0.83909032823E+02  0.46700000000E-02 0.  1.
          1   -1    0    0  501    0  0.00000000000E+00 -0.00000000000E+00 -0.23683039528E+02  0.23683039989E+02  0.46700000000E-02 0. -1.
         23    2    1    2    0    0  0.00000000000E+00  0.00000000000E+00  0.60225993164E+02  0.10759207281E+03  0.89156513387E+02 0.  0.
        -11    1    3    3    0    0 -0.17263687120E+01  0.44540946255E+02  0.30821537735E+02  0.54192651077E+02  0.51100000000E-03 0. -1.
         11    1    3    3    0    0  0.17263687120E+01 -0.44540946255E+02  0.29404455429E+02  0.53399421734E+02  0.51100000000E-03 0.  1.
<mgrwt>
<rscale>  0 0.89156513E+02</rscale>
<asrwt>0</asrwt>
<pdfrwt beam="2">  1        1 0.36435446E-02 0.89156513E+02</pdfrwt>
<pdfrwt beam="1">  1       -1 0.12909082E-01 0.89156513E+02</pdfrwt>
<totfact> 0.88922558E+04</totfact>
</mgrwt>
</event>
<event>
 5   1  0.1357339E+00  0.9049712E+02  0.7818608E-02  0.1301652E+00
         -1   -1    0    0    0  501 -0.00000000000E+00  0.00000000000E+00  0.64304534640E+02  0.64304534809E+02  0.46700000000E-02 0.  1.
          1   -1    0    0  501    0  0.00000000000E+00 -0.00000000000E+00 -0.31839620534E+02  0.31839620877E+02  0.46700000000E-02 0. -1.
         23    2    1    2    0    0  0.00000000000E+00  0.00000000000E+00  0.32464914106E+02  0.96144155686E+02  0.90497116113E+02 0.  0.
        -11    1    3    3    0    0  0.39521479548E+02 -0.11859233625E+02  0.35961181521E+02  0.54733859214E+02  0.51100000000E-03 0.  1.
         11    1    3    3    0    0 -0.39521479548E+02  0.11859233625E+02 -0.34962674156E+01  0.41410296472E+02  0.51100000000E-03 0. -1.
<mgrwt>
<rscale>  0 0.90497116E+02</rscale>
<asrwt>0</asrwt>
<pdfrwt beam="2">  1        1 0.48984032E-02 0.90497116E+02</pdfrwt>
<pdfrwt beam="1">  1       -1 0.98930054E-02 0.90497116E+02</pdfrwt>
<totfact> 0.89404941E+04</totfact>
</mgrwt>
</event>
<event>
 5   1  0.1357339E+00  0.9167361E+02  0.7818608E-02  0.1298849E+00
          1   -1    0    0  501    0  0.00000000000E+00  0.00000000000E+00  0.37850074598E+02  0.37850074886E+02  0.46700000000E-02 0. -1.
         -1   -1    0    0    0  501 -0.00000000000E+00 -0.00000000000E+00 -0.55508806906E+02  0.55508807102E+02  0.46700000000E-02 0.  1.
         23    2    1    2    0    0  0.00000000000E+00  0.00000000000E+00 -0.17658732308E+02  0.93358881988E+02  0.91673605904E+02 0.  0.
        -11    1    3    3    0    0  0.26207103869E+02 -0.36474765376E+02  0.49269256529E+00  0.44916183595E+02  0.51100000000E-03 0. -1.
         11    1    3    3    0    0 -0.26207103869E+02  0.36474765376E+02 -0.18151424873E+02  0.48442698394E+02  0.51100000000E-03 0.  1.
<mgrwt>
<rscale>  0 0.91673606E+02</rscale>
<asrwt>0</asrwt>
<pdfrwt beam="1">  1        1 0.58230884E-02 0.91673606E+02</pdfrwt>
<pdfrwt beam="2">  1       -1 0.85398165E-02 0.91673606E+02</pdfrwt>
<totfact> 0.88527553E+04</totfact>
</mgrwt>
</event>
<event>
 5   1  0.1357339E+00  0.9254940E+02  0.7818608E-02  0.1296793E+00
          1   -1    0    0  501    0  0.00000000000E+00  0.00000000000E+00  0.14031772471E+02  0.14031773248E+02  0.46700000000E-02 0. -1.
         -1   -1    0    0    0  501 -0.00000000000E+00 -0.00000000000E+00 -0.15260707926E+03  0.15260707934E+03  0.46700000000E-02 0.  1.
         23    2    1    2    0    0  0.00000000000E+00  0.00000000000E+00 -0.13857530679E+03  0.16663885258E+03  0.92549400524E+02 0.  0.
        -11    1    3    3    0    0  0.36698976821E+02 -0.54059277841E+01 -0.19477136706E+02  0.41897467817E+02  0.51100000000E-03 0. -1.
         11    1    3    3    0    0 -0.36698976821E+02  0.54059277841E+01 -0.11909817009E+03  0.12474138477E+03  0.51100000000E-03 0.  1.
<mgrwt>
<rscale>  0 0.92549401E+02</rscale>
<asrwt>0</asrwt>
<pdfrwt beam="1">  1        1 0.21587344E-02 0.92549401E+02</pdfrwt>
<pdfrwt beam="2">  1       -1 0.23478011E-01 0.92549401E+02</pdfrwt>
<totfact> 0.71648066E+04</totfact>
</mgrwt>
</event>
<event>
 5   1  0.1357339E+00  0.9148960E+02  0.7818608E-02  0.1299284E+00
          1   -1    0    0  501    0  0.00000000000E+00  0.00000000000E+00  0.20626664295E+03  0.20626664300E+03  0.46700000000E-02 0. -1.
         -1   -1    0    0    0  501 -0.00000000000E+00 -0.00000000000E+00 -0.10145056314E+02  0.10145057389E+02  0.46700000000E-02 0.  1.
         23    2    1    2    0    0  0.00000000000E+00  0.00000000000E+00  0.19612158663E+03  0.21641170039E+03  0.91489602260E+02 0.  0.
        -11    1    3    3    0    0  0.33721559325E+02 -0.30712540736E+02  0.89804444124E+02  0.10072359161E+03  0.51100000000E-03 0. -1.
         11    1    3    3    0    0 -0.33721559325E+02  0.30712540736E+02  0.10631714251E+03  0.11568810878E+03  0.51100000000E-03 0.  1.
<mgrwt>
<rscale>  0 0.91489602E+02</rscale>
<asrwt>0</asrwt>
<pdfrwt beam="1">  1        1 0.31733332E-01 0.91489602E+02</pdfrwt>
<pdfrwt beam="2">  1       -1 0.15607779E-02 0.91489602E+02</pdfrwt>
<totfact> 0.11802824E+05</totfact>
</mgrwt>
</event>
<event>
 5   1  0.1357339E+00  0.9228972E+02  0.7818608E-02  0.1297400E+00
         -1   -1    0    0    0  501 -0.00000000000E+00  0.00000000000E+00  0.46295489054E+02  0.46295489289E+02  0.46700000000E-02 0.  1.
          1   -1    0    0  501    0  0.00000000000E+00 -0.00000000000E+00 -0.45994721130E+02  0.45994721367E+02  0.46700000000E-02 0. -1.
         23    2    1    2    0    0  0.00000000000E+00  0.00000000000E+00  0.30076792413E+00  0.92290210656E+02  0.92289720563E+02 0.  0.
        -11    1    3    3    0    0 -0.29650791817E+02 -0.19413519702E+02  0.29702087849E+02  0.46241412451E+02  0.51100000000E-03 0.  1.
         11    1    3    3    0    0  0.29650791817E+02  0.19413519702E+02 -0.29401319925E+02  0.46048798206E+02  0.51100000000E-03 0. -1.
<mgrwt>
<rscale>  0 0.92289721E+02</rscale>
<asrwt>0</asrwt>
<pdfrwt beam="2">  1        1 0.70761110E-02 0.92289721E+02</pdfrwt>
<pdfrwt beam="1">  1       -1 0.71223830E-02 0.92289721E+02</pdfrwt>
<totfact> 0.89490867E+04</totfact>
</mgrwt>
</event>
<event>
 5   1  0.1357339E+00  0.9049438E+02  0.7818608E-02  0.1301659E+00
          1   -1    0    0  501    0  0.00000000000E+00  0.00000000000E+00  0.18452103218E+02  0.18452103809E+02  0.46700000000E-02 0. -1.
         -1   -1    0    0    0  501 -0.00000000000E+00 -0.00000000000E+00 -0.11095255929E+03  0.11095255939E+03  0.46700000000E-02 0.  1.
         23    2    1    2    0    0  0.00000000000E+00  0.00000000000E+00 -0.92500456074E+02  0.12940466320E+03  0.90494378188E+02 0.  0.
        -11    1    3    3    0    0  0.11576947885E+02  0.26344506644E+02 -0.96181726099E+02  0.10039413921E+03  0.51100000000E-03 0.  1.
         11    1    3    3    0    0 -0.11576947885E+02 -0.26344506644E+02  0.36812700252E+01  0.29010523985E+02  0.51100000000E-03 0. -1.
<mgrwt>
<rscale>  0 0.90494378E+02</rscale>
<asrwt>0</asrwt>
<pdfrwt beam="1">  1        1 0.28387852E-02 0.90494378E+02</pdfrwt>
<pdfrwt beam="2">  1       -1 0.17069624E-01 0.90494378E+02</pdfrwt>
<totfact> 0.81333549E+04</totfact>
</mgrwt>
</event>
<event>
 5   1  0.1357339E+00  0.8803387E+02  0.7818608E-02  0.1307684E+00
         -1   -1    0    0    0  501 -0.00000000000E+00  0.00000000000E+00  0.24533060637E+03  0.24533060642E+03  0.46700000000E-02 0.  1.
          1   -1    0    0  501    0  0.00000000000E+00 -0.00000000000E+00 -0.78974667389E+01  0.78974681197E+01  0.46700000000E-02 0. -1.
         23    2    1    2    0    0  0.00000000000E+00  0.00000000000E+00  0.23743313964E+03  0.25322807454E+03  0.88033868127E+02 0.  0.
        -11    1    3    3    0    0  0.28533459770E+02  0.33460558617E+02  0.11316624021E+03  0.12140990583E+03  0.51100000000E-03 0.  1.
         11    1    3    3    0    0 -0.28533459770E+02 -0.33460558617E+02  0.12426689942E+03  0.13181816871E+03  0.51100000000E-03 0. -1.
<mgrwt>
<rscale>  0 0.88033868E+02</rscale>
<asrwt>0</asrwt>
<pdfrwt beam="2">  1        1 0.12149951E-02 0.88033868E+02</pdfrwt>
<pdfrwt beam="1">  1       -1 0.37743166E-01 0.88033868E+02</pdfrwt>
<totfact> 0.71416414E+04</totfact>
</mgrwt>
</event>
<event>
 5   1  0.1357339E+00  0.8257920E+02  0.7818608E-02  0.1321887E+00
          1   -1    0    0  501    0  0.00000000000E+00  0.00000000000E+00  0.32348429129E+02  0.32348429466E+02  0.46700000000E-02 0. -1.
         -1   -1    0    0    0  501 -0.00000000000E+00 -0.00000000000E+00 -0.52702129242E+02  0.52702129449E+02  0.46700000000E-02 0.  1.
         23    2    1    2    0    0  0.00000000000E+00  0.00000000000E+00 -0.20353700113E+02  0.85050558915E+02  0.82579201156E+02 0.  0.
        -11    1    3    3    0    0 -0.36442499247E+02  0.17462602174E+02 -0.14477763023E+01  0.40436299071E+02  0.51100000000E-03 0. -1.
         11    1    3    3    0    0  0.36442499247E+02 -0.17462602174E+02 -0.18905923811E+02  0.44614259845E+02  0.51100000000E-03 0.  1.
<mgrwt>
<rscale>  0 0.82579201E+02</rscale>
<asrwt>0</asrwt>
<pdfrwt beam="1">  1        1 0.49766814E-02 0.82579201E+02</pdfrwt>
<pdfrwt beam="2">  1       -1 0.81080199E-02 0.82579201E+02</pdfrwt>
<totfact> 0.11611769E+05</totfact>
</mgrwt>
</event>
<event>
 5   1  0.1357339E+00  0.9224547E+02  0.7818608E-02  0.1297503E+00
          1   -1    0    0  501    0  0.00000000000E+00  0.00000000000E+00  0.11784277761E+02  0.11784278686E+02  0.46700000000E-02 0. -1.
         -1   -1    0    0    0  501 -0.00000000000E+00 -0.00000000000E+00 -0.18052074255E+03  0.18052074261E+03  0.46700000000E-02 0.  1.
         23    2    1    2    0    0  0.00000000000E+00  0.00000000000E+00 -0.16873646479E+03  0.19230502130E+03  0.92245469626E+02 0.  0.
        -11    1    3    3    0    0 -0.14902209363E+02 -0.41917743538E+02 -0.10974126430E+03  0.11841586953E+03  0.51100000000E-03 0.  1.
         11    1    3    3    0    0  0.14902209363E+02  0.41917743538E+02 -0.58995200495E+02  0.73889151768E+02  0.51100000000E-03 0. -1.
<mgrwt>
<rscale>  0 0.92245470E+02</rscale>
<asrwt>0</asrwt>
<pdfrwt beam="1">  1        1 0.18129660E-02 0.92245470E+02</pdfrwt>
<pdfrwt beam="2">  1       -1 0.27772420E-01 0.92245470E+02</pdfrwt>
<totfact> 0.69279198E+04</totfact>
</mgrwt>
</event>
<event>
 5   1  0.1357339E+00  0.7982750E+02  0.7818608E-02  0.1329542E+00
         -1   -1    0    0    0  501 -0.00000000000E+00  0.00000000000E+00  0.11371459026E+02  0.11371459985E+02  0.46700000000E-02 0.  1.
          1   -1    0    0  501    0  0.00000000000E+00 -0.00000000000E+00 -0.14009700028E+03  0.14009700035E+03  0.46700000000E-02 0. -1.
         23    2    1    2    0    0  0.00000000000E+00  0.00000000000E+00 -0.12872554125E+03  0.15146846034E+03  0.79827498442E+02 0.  0.
        -11    1    3    3    0    0  0.19955519248E+02 -0.18032370406E+02 -0.12032035800E+03  0.12328981174E+03  0.51100000000E-03 0. -1.
         11    1    3    3    0    0 -0.19955519248E+02  0.18032370406E+02 -0.84051832530E+01  0.28178648596E+02  0.51100000000E-03 0.  1.
<mgrwt>
<rscale>  0 0.79827498E+02</rscale>
<asrwt>0</asrwt>
<pdfrwt beam="2">  1        1 0.21553384E-01 0.79827498E+02</pdfrwt>
<pdfrwt beam="1">  1       -1 0.17494554E-02 0.79827498E+02</pdfrwt>
<totfact> 0.15812643E+05</totfact>
</mgrwt>
</event>
<event>
 5   1  0.1357339E+00  0.9280131E+02  0.7818608E-02  0.1296206E+00
         -1   -1    0    0    0  501 -0.00000000000E+00  0.00000000000E+00  0.16275042162E+02  0.16275042832E+02  0.46700000000E-02 0.  1.
          1   -1    0    0  501    0  0.00000000000E+00 -0.00000000000E+00 -0.13228971987E+03  0.13228971995E+03  0.46700000000E-02 0. -1.
         23    2    1    2    0    0  0.00000000000E+00  0.00000000000E+00 -0.11601467771E+03  0.14856476278E+03  0.92801310859E+02 0.  0.
        -11    1    3    3    0    0  0.20759893963E+01  0.26378615340E+02  0.30132701264E+01  0.26631201181E+02  0.51100000000E-03 0.  1.
         11    1    3    3    0    0 -0.20759893963E+01 -0.26378615340E+02 -0.11902794783E+03  0.12193356160E+03  0.51100000000E-03 0. -1.
<mgrwt>
<rscale>  0 0.92801311E+02</rscale>
<asrwt>0</asrwt>
<pdfrwt beam="2">  1        1 0.20352264E-01 0.92801311E+02</pdfrwt>
<pdfrwt beam="1">  1       -1 0.25038528E-02 0.92801311E+02</pdfrwt>
<totfact> 0.10448414E+05</totfact>
</mgrwt>
</event>
<event>
 5   1  0.1357339E+00  0.9058246E+02  0.7818608E-02  0.1301447E+00
         -1   -1    0    0    0  501 -0.00000000000E+00  0.00000000000E+00  0.17617000004E+02  0.17617000623E+02  0.46700000000E-02 0.  1.
          1   -1    0    0  501    0  0.00000000000E+00 -0.00000000000E+00 -0.11643840225E+03  0.11643840235E+03  0.46700000000E-02 0. -1.
         23    2    1    2    0    0  0.00000000000E+00  0.00000000000E+00 -0.98821402251E+02  0.13405540297E+03  0.90582457037E+02 0.  0.
        -11    1    3    3    0    0 -0.38398148556E+02 -0.19309718045E+02 -0.70548923506E+02  0.82610130320E+02  0.51100000000E-03 0. -1.
         11    1    3    3    0    0  0.38398148556E+02  0.19309718045E+02 -0.28272478745E+02  0.51445272651E+02  0.51100000000E-03 0.  1.
<mgrwt>
<rscale>  0 0.90582457E+02</rscale>
<asrwt>0</asrwt>
<pdfrwt beam="2">  1        1 0.17913600E-01 0.90582457E+02</pdfrwt>
<pdfrwt beam="1">  1       -1 0.27103078E-02 0.90582457E+02</pdfrwt>
<totfact> 0.10909627E+05</totfact>
</mgrwt>
</event>
<event>
 5   1  0.1357339E+00  0.8969820E+02  0.7818608E-02  0.1303584E+00
         -1   -1    0    0    0  501 -0.00000000000E+00  0.00000000000E+00  0.30963848527E+03  0.30963848531E+03  0.46700000000E-02 0.  1.
          1   -1    0    0  501    0  0.00000000000E+00 -0.00000000000E+00 -0.64960969235E+01  0.64960986021E+01  0.46700000000E-02 0. -1.
         23    2    1    2    0    0  0.00000000000E+00  0.00000000000E+00  0.30314238835E+03  0.31613458391E+03  0.89698202490E+02 0.  0.
        -11    1    3    3    0    0  0.25569462847E+02 -0.35923753251E+02  0.18044748655E+03  0.18575685420E+03  0.51100000000E-03 0.  1.
         11    1    3    3    0    0 -0.25569462847E+02  0.35923753251E+02  0.12269490180E+03  0.13037772971E+03  0.51100000000E-03 0. -1.
<mgrwt>
<rscale>  0 0.89698202E+02</rscale>
<asrwt>0</asrwt>
<pdfrwt beam="2">  1        1 0.99939972E-03 0.89698202E+02</pdfrwt>
<pdfrwt beam="1">  1       -1 0.47636687E-01 0.89698202E+02</pdfrwt>
<totfact> 0.62438300E+04</totfact>
</mgrwt>
</event>
<event>
 5   1  0.1357339E+00  0.9322933E+02  0.7818608E-02  0.1295215E+00
         -1   -1    0    0    0  501 -0.00000000000E+00  0.00000000000E+00  0.13662306385E+03  0.13662306393E+03  0.46700000000E-02 0.  1.
          1   -1    0    0  501    0  0.00000000000E+00 -0.00000000000E+00 -0.15904541320E+02  0.15904542005E+02  0.46700000000E-02 0. -1.
         23    2    1    2    0    0  0.00000000000E+00  0.00000000000E+00  0.12071852253E+03  0.15252760594E+03  0.93229334925E+02 0.  0.
        -11    1    3    3    0    0  0.20890425574E+02 -0.24943700366E+02  0.57454337921E+01  0.33039492707E+02  0.51100000000E-03 0. -1.
         11    1    3    3    0    0 -0.20890425574E+02  0.24943700366E+02  0.11497308874E+03  0.11948811323E+03  0.51100000000E-03 0.  1.
<mgrwt>
<rscale>  0 0.93229335E+02</rscale>
<asrwt>0</asrwt>
<pdfrwt beam="2">  1        1 0.24468526E-02 0.93229335E+02</pdfrwt>
<pdfrwt beam="1">  1       -1 0.21018933E-01 0.93229335E+02</pdfrwt>
<totfact> 0.72105787E+04</totfact>
</mgrwt>
</event>
<event>
 5   1  0.1357339E+00  0.9395948E+02  0.7818608E-02  0.1293537E+00
         -1   -1    0    0    0  501 -0.00000000000E+00  0.00000000000E+00  0.10956515546E+02  0.10956516542E+02  0.46700000000E-02 0.  1.
          1   -1    0    0  501    0  0.00000000000E+00 -0.00000000000E+00 -0.20144139501E+03  0.20144139506E+03  0.46700000000E-02 0. -1.
         23    2    1    2    0    0  0.00000000000E+00  0.00000000000E+00 -0.19048487946E+03  0.21239791161E+03  0.93959478235E+02 0.  0.
        -11    1    3    3    0    0 -0.36921195541E+02 -0.40606030411E+01 -0.16026678508E+03  0.16451475794E+03  0.51100000000E-03 0. -1.
         11    1    3    3    0    0  0.36921195541E+02  0.40606030411E+01 -0.30218094381E+02  0.47883153671E+02  0.51100000000E-03 0.  1.
<mgrwt>
<rscale>  0 0.93959478E+02</rscale>
<asrwt>0</asrwt>
<pdfrwt beam="2">  1        1 0.30990981E-01 0.93959478E+02</pdfrwt>
<pdfrwt beam="1">  1       -1 0.16856180E-02 0.93959478E+02</pdfrwt>
<totfact> 0.10936686E+05</totfact>
</mgrwt>
</event>
<event>
 5   1  0.1357339E+00  0.8954277E+02  0.7818608E-02  0.1303963E+00
          1   -1    0    0  501    0  0.00000000000E+00  0.00000000000E+00  0.42972212726E+01  0.42972238102E+01  0.46700000000E-02 0. -1.
         -1   -1    0    0    0  501 -0.00000000000E+00 -0.00000000000E+00 -0.46645866413E+03  0.46645866415E+03  0.46700000000E-02 0.  1.
         23    2    1    2    0    0  0.00000000000E+00  0.00000000000E+00 -0.46216144286E+03  0.47075588796E+03  0.89542765137E+02 0.  0.
        -11    1    3    3    0    0  0.43246958591E+02 -0.94876143773E+01 -0.19614322319E+03  0.20107828887E+03  0.51100000000E-03 0.  1.
         11    1    3    3    0    0 -0.43246958591E+02  0.94876143773E+01 -0.26601821967E+03  0.26967759909E+03  0.51100000000E-03 0. -1.
<mgrwt>
<rscale>  0 0.89542765E+02</rscale>
<asrwt>0</asrwt>
<pdfrwt beam="1">  1        1 0.66111153E-03 0.89542765E+02</pdfrwt>
<pdfrwt beam="2">  1       -1 0.71762832E-01 0.89542765E+02</pdfrwt>
<totfact> 0.51415246E+04</totfact>
</mgrwt>
</event>
<event>
 5   1  0.1357339E+00  0.9145479E+02  0.7818608E-02  0.1299366E+00
         -1   -1    0    0    0  501 -0.00000000000E+00  0.00000000000E+00  0.10677054926E+03  0.10677054937E+03  0.46700000000E-02 0.  1.
          1   -1    0    0  501    0  0.00000000000E+00 -0.00000000000E+00 -0.19584000882E+02  0.19584001438E+02  0.46700000000E-02 0. -1.
         23    2    1    2    0    0  0.00000000000E+00  0.00000000000E+00  0.87186548381E+02  0.12635455080E+03  0.91454788230E+02 0.  0.
        -11    1    3    3    0    0  0.15849188503E+02  0.21226562187E+02 -0.79025068801E+01  0.27644408725E+02  0.51100000000E-03 0. -1.
         11    1    3    3    0    0 -0.15849188503E+02 -0.21226562187E+02  0.95089055261E+02  0.98710142079E+02  0.51100000000E-03 0.  1.
<mgrwt>
<rscale>  0 0.91454788E+02</rscale>
<asrwt>0</asrwt>
<pdfrwt beam="2">  1        1 0.30129233E-02 0.91454788E+02</pdfrwt>
<pdfrwt beam="1">  1       -1 0.16426238E-01 0.91454788E+02</pdfrwt>
<totfact> 0.79740379E+04</totfact>
</mgrwt>
</event>
<event>
 5   1  0.1357339E+00  0.9818781E+02  0.7818608E-02  0.1284154E+00
          1   -1    0    0  501    0  0.00000000000E+00  0.00000000000E+00  0.39395708075E+02  0.39395708352E+02  0.46700000000E-02 0. -1.
         -1   -1    0    0    0  501 -0.00000000000E+00 -0.00000000000E+00 -0.61179540668E+02  0.61179540846E+02  0.46700000000E-02 0.  1.
         23    2    1    2    0    0  0.00000000000E+00  0.00000000000E+00 -0.21783832593E+02  0.10057524920E+03  0.98187806722E+02 0.  0.
        -11    1    3    3    0    0 -0.20556913993E+02 -0.35331307193E+02 -0.38743556382E+02  0.56320077612E+02  0.51100000000E-03 0.  1.
         11    1    3    3    0    0  0.20556913993E+02  0.35331307193E+02  0.16959723789E+02  0.44255171586E+02  0.51100000000E-03 0. -1.
<mgrwt>
<rscale>  0 0.98187807E+02</rscale>
<asrwt>0</asrwt>
<pdfrwt beam="1">  1        1 0.60608782E-02 0.98187807E+02</pdfrwt>
<pdfrwt beam="2">  1       -1 0.94122370E-02 0.98187807E+02</pdfrwt>
<totfact> 0.73250035E+04</totfact>
</mgrwt>
</event>
<event>
 5   1  0.1357339E+00  0.9426700E+02  0.7818608E-02  0.1292836E+00
         -1   -1    0    0    0  501 -0.00000000000E+00  0.00000000000E+00  0.21720656874E+03  0.21720656879E+03  0.46700000000E-02 0.  1.
          1   -1    0    0  501    0  0.00000000000E+00 -0.00000000000E+00 -0.10227898443E+02  0.10227899509E+02  0.46700000000E-02 0. -1.
         23    2    1    2    0    0  0.00000000000E+00  0.00000000000E+00  0.20697867030E+03  0.22743446830E+03  0.94267000654E+02 0.  0.
        -11    1    3    3    0    0 -0.31772165684E+02  0.20093968208E+02  0.17208404386E+03  0.17614243164E+03  0.51100000000E-03 0.  1.
         11    1    3    3    0    0  0.31772165684E+02 -0.20093968208E+02  0.34894626435E+02  0.51292036662E+02  0.51100000000E-03 0. -1.
<mgrwt>
<rscale>  0 0.94267001E+02</rscale>
<asrwt>0</asrwt>
<pdfrwt beam="2">  1        1 0.15735230E-02 0.94267001E+02</pdfrwt>
<pdfrwt beam="1">  1       -1 0.33416394E-01 0.94267001E+02</pdfrwt>
<totfact> 0.62105229E+04</totfact>
</mgrwt>
</event>
<event>
 5   1  0.1357339E+00  0.8862023E+02  0.7818608E-02  0.1306228E+00
          1   -1    0    0  501    0  0.00000000000E+00  0.00000000000E+00  0.30798479046E+02  0.30798479400E+02  0.46700000000E-02 0. -1.
         -1   -1    0    0    0  501 -0.00000000000E+00 -0.00000000000E+00 -0.63749456943E+02  0.63749457114E+02  0.46700000000E-02 0.  1.
         23    2    1    2    0    0  0.00000000000E+00  0.00000000000E+00 -0.32950977897E+02  0.94547936515E+02  0.88620231070E+02 0.  0.
        -11    1    3    3    0    0  0.12186252376E+02  0.14830342063E+02  0.26132564946E+02  0.32424600901E+02  0.51100000000E-03 0. -1.
         11    1    3    3    0    0 -0.12186252376E+02 -0.14830342063E+02 -0.59083542843E+02  0.62123335614E+02  0.51100000000E-03 0.  1.
<mgrwt>
<rscale>  0 0.88620231E+02</rscale>
<asrwt>0</asrwt>
<pdfrwt beam="1">  1        1 0.47382276E-02 0.88620231E+02</pdfrwt>
<pdfrwt beam="2">  1       -1 0.98076087E-02 0.88620231E+02</pdfrwt>
<totfact> 0.94417966E+04</totfact>
</mgrwt>
</event>
<event>
 5   1  0.1357339E+00  0.8965613E+02  0.7818608E-02  0.1303687E+00
          1   -1    0    0  501    0  0.00000000000E+00  0.00000000000E+00  0.17733488202E+03  0.17733488208E+03  0.46700000000E-02 0. -1.
         -1   -1    0    0    0  501 -0.00000000000E+00 -0.00000000000E+00 -0.11331979368E+02  0.11331980330E+02  0.46700000000E-02 0.  1.
         23    2    1    2    0    0  0.00000000000E+00  0.00000000000E+00  0.16600290265E+03  0.18866686241E+03  0.89656127974E+02 0.  0.
        -11    1    3    3    0    0  0.33213716096E+02  0.29611836661E+02  0.94439362456E+02  0.10439734187E+03  0.51100000000E-03 0. -1.
         11    1    3    3    0    0 -0.33213716096E+02 -0.29611836661E+02  0.71563540198E+02  0.84269520547E+02  0.51100000000E-03 0.  1.
<mgrwt>
<rscale>  0 0.89656128E+02</rscale>
<asrwt>0</asrwt>
<pdfrwt beam="1">  1        1 0.27282287E-01 0.89656128E+02</pdfrwt>
<pdfrwt beam="2">  1       -1 0.17433817E-02 0.89656128E+02</pdfrwt>
<totfact> 0.12103781E+05</totfact>
</mgrwt>
</event>
<event>
 5   1  0.1357339E+00  0.9150427E+02  0.7818608E-02  0.1299249E+00
          1   -1    0    0  501    0  0.00000000000E+00  0.00000000000E+00  0.15083286921E+03  0.15083286928E+03  0.46700000000E-02 0. -1.
         -1   -1    0    0    0  501 -0.00000000000E+00 -0.00000000000E+00 -0.13877993749E+02  0.13877994535E+02  0.46700000000E-02 0.  1.
         23    2    1    2    0    0  0.00000000000E+00  0.00000000000E+00  0.13695487546E+03  0.16471086381E+03  0.91504266275E+02 0.  0.
        -11    1    3    3    0    0 -0.22803471278E+02 -0.22297434244E+02  0.94296065638E+01  0.33257951777E+02  0.51100000000E-03 0.  1.
         11    1    3    3    0    0  0.22803471278E+02  0.22297434244E+02  0.12752526889E+03  0.13145291204E+03  0.51100000000E-03 0. -1.
<mgrwt>
<rscale>  0 0.91504266E+02</rscale>
<asrwt>0</asrwt>
<pdfrwt beam="1">  1        1 0.23205057E-01 0.91504266E+02</pdfrwt>
<pdfrwt beam="2">  1       -1 0.21350761E-02 0.91504266E+02</pdfrwt>
<totfact> 0.11116567E+05</totfact>
</mgrwt>
</event>
<event>
 5   1  0.1357339E+00  0.9063614E+02  0.7818608E-02  0.1301318E+00
          1   -1    0    0  501    0  0.00000000000E+00  0.00000000000E+00  0.61132715495E+02  0.61132715674E+02  0.46700000000E-02 0. -1.
         -1   -1    0    0    0  501 -0.00000000000E+00 -0.00000000000E+00 -0.33594573413E+02  0.33594573738E+02  0.46700000000E-02 0.  1.
         23    2    1    2    0    0  0.00000000000E+00  0.00000000000E+00  0.27538142082E+02  0.94727289411E+02  0.90636141190E+02 0.  0.
        -11    1    3    3    0    0  0.23546129979E+02  0.48338337775E+01  0.53921169816E+02  0.59036249378E+02  0.51100000000E-03 0. -1.
         11    1    3    3    0    0 -0.23546129979E+02 -0.48338337775E+01 -0.26383027734E+02  0.35691040033E+02  0.51100000000E-03 0.  1.
<mgrwt>
<rscale>  0 0.90636141E+02</rscale>
<asrwt>0</asrwt>
<pdfrwt beam="1">  1        1 0.94050331E-02 0.90636141E+02</pdfrwt>
<pdfrwt beam="2">  1       -1 0.51683960E-02 0.90636141E+02</pdfrwt>
<totfact> 0.98249703E+04</totfact>
</mgrwt>
</event>
<event>
 5   1  0.1357339E+00  0.9053093E+02  0.7818608E-02  0.1301571E+00
          1   -1    0    0  501    0  0.00000000000E+00  0.00000000000E+00  0.10287794348E+02  0.10287795408E+02  0.46700000000E-02 0. -1.
         -1   -1    0    0    0  501 -0.00000000000E+00 -0.00000000000E+00 -0.19916436689E+03  0.19916436695E+03  0.46700000000E-02 0.  1.
         23    2    1    2    0    0  0.00000000000E+00  0.00000000000E+00 -0.18887657255E+03  0.20945216236E+03  0.90530926534E+02 0.  0.
        -11    1    3    3    0    0  0.30374256699E+02  0.21945316786E+02 -0.15318589793E+03  0.15770260532E+03  0.51100000000E-03 0.  1.
         11    1    3    3    0    0 -0.30374256699E+02 -0.21945316786E+02 -0.35690674612E+02  0.51749557036E+02  0.51100000000E-03 0. -1.
<mgrwt>
<rscale>  0 0.90530927E+02</rscale>
<asrwt>0</asrwt>
<pdfrwt beam="1">  1        1 0.15827378E-02 0.90530927E+02</pdfrwt>
<pdfrwt beam="2">  1       -1 0.30640669E-01 0.90530927E+02</pdfrwt>
<totfact> 0.70806193E+04</totfact>
</mgrwt>
</event>
<event>
 5   1  0.1357339E+00  0.8907368E+02  0.7818608E-02  0.1305111E+00
          1   -1    0    0  501    0  0.00000000000E+00  0.00000000000E+00  0.10455920784E+02  0.10455921827E+02  0.46700000000E-02 0. -1.
         -1   -1    0    0    0  501 -0.00000000000E+00 -0.00000000000E+00 -0.18970398386E+03  0.18970398392E+03  0.46700000000E-02 0.  1.
         23    2    1    2    0    0  0.00000000000E+00  0.00000000000E+00 -0.17924806308E+03  0.20015990575E+03  0.89073675971E+02 0.  0.
        -11    1    3    3    0    0 -0.31845030355E+02 -0.29410548492E+02 -0.66658914500E+02  0.79514132099E+02  0.51100000000E-03 0. -1.
         11    1    3    3    0    0  0.31845030355E+02  0.29410548492E+02 -0.11258914858E+03  0.12064577365E+03  0.51100000000E-03 0.  1.
<mgrwt>
<rscale>  0 0.89073676E+02</rscale>
<asrwt>0</asrwt>
<pdfrwt beam="1">  1        1 0.16086034E-02 0.89073676E+02</pdfrwt>
<pdfrwt beam="2">  1       -1 0.29185226E-01 0.89073676E+02</pdfrwt>
<totfact> 0.74870163E+04</totfact>
</mgrwt>
</event>
<event>
 5   1  0.1357339E+00  0.9188809E+02  0.7818608E-02  0.1298343E+00
          1   -1    0    0  501    0  0.00000000000E+00  0.00000000000E+00  0.22181062979E+03  0.22181062984E+03  0.46700000000E-02 0. -1.
         -1   -1    0    0    0  501 -0.00000000000E+00 -0.00000000000E+00 -0.95164743623E+01  0.95164755082E+01  0.46700000000E-02 0.  1.
         23    2    1    2    0    0  0.00000000000E+00  0.00000000000E+00  0.21229415543E+03  0.23132710535E+03  0.91888090849E+02 0.  0.
        -11    1    3    3    0    0  0.38185931716E+02 -0.20678294467E+02  0.68376539143E+02  0.81000668815E+02  0.51100000000E-03 0. -1.
         11    1    3    3    0    0 -0.38185931716E+02  0.20678294467E+02  0.14391761629E+03  0.15032643654E+03  0.51100000000E-03 0.  1.
<mgrwt>
<rscale>  0 0.91888091E+02</rscale>
<asrwt>0</asrwt>
<pdfrwt beam="1">  1        1 0.34124711E-01 0.91888091E+02</pdfrwt>
<pdfrwt beam="2">  1       -1 0.14640731E-02 0.91888091E+02</pdfrwt>
<totfact> 0.11832636E+05</totfact>
</mgrwt>
</event>
<event>
 5   1  0.1357339E+00  0.8904240E+02  0.7818608E-02  0.1305187E+00
         -1   -1    0    0    0  501 -0.00000000000E+00  0.00000000000E+00  0.72420451055E+02  0.72420451206E+02  0.46700000000E-02 0.  1.
          1   -1    0    0  501    0  0.00000000000E+00 -0.00000000000E+00 -0.27369856036E+02  0.27369856434E+02  0.46700000000E-02 0. -1.
         23    2    1    2    0    0  0.00000000000E+00  0.00000000000E+00  0.45050595019E+02  0.99790307640E+02  0.89042402188E+02 0.  0.
        -11    1    3    3    0    0  0.17468417125E+02  0.24677984905E+02 -0.14099467337E+02  0.33360808073E+02  0.51100000000E-03 0. -1.
         11    1    3    3    0    0 -0.17468417125E+02 -0.24677984905E+02  0.59150062356E+02  0.66429499568E+02  0.51100000000E-03 0.  1.
<mgrwt>
<rscale>  0 0.89042402E+02</rscale>
<asrwt>0</asrwt>
<pdfrwt beam="2">  1        1 0.42107471E-02 0.89042402E+02</pdfrwt>
<pdfrwt beam="1">  1       -1 0.11141608E-01 0.89042402E+02</pdfrwt>
<totfact> 0.91419733E+04</totfact>
</mgrwt>
</event>
<event>
 5   1  0.1357339E+00  0.8398653E+02  0.7818608E-02  0.1318104E+00
          1   -1    0    0  501    0  0.00000000000E+00  0.00000000000E+00  0.33869075216E+02  0.33869075538E+02  0.46700000000E-02 0. -1.
         -1   -1    0    0    0  501 -0.00000000000E+00 -0.00000000000E+00 -0.52066202728E+02  0.52066202938E+02  0.46700000000E-02 0.  1.
         23    2    1    2    0    0  0.00000000000E+00  0.00000000000E+00 -0.18197127512E+02  0.85935278476E+02  0.83986526521E+02 0.  0.
        -11    1    3    3    0    0  0.23192146880E+02  0.22941175941E+02 -0.36155679513E+02  0.48697088124E+02  0.51100000000E-03 0.  1.
         11    1    3    3    0    0 -0.23192146880E+02 -0.22941175941E+02  0.17958552001E+02  0.37238190352E+02  0.51100000000E-03 0. -1.
<mgrwt>
<rscale>  0 0.83986527E+02</rscale>
<asrwt>0</asrwt>
<pdfrwt beam="1">  1        1 0.52106270E-02 0.83986527E+02</pdfrwt>
<pdfrwt beam="2">  1       -1 0.80101851E-02 0.83986527E+02</pdfrwt>
<totfact> 0.11147041E+05</totfact>
</mgrwt>
</event>
<event>
 5   1  0.1357339E+00  0.9238920E+02  0.7818608E-02  0.1297167E+00
          1   -1    0    0  501    0  0.00000000000E+00  0.00000000000E+00  0.44220055368E+02  0.44220055614E+02  0.46700000000E-02 0. -1.
         -1   -1    0    0    0  501 -0.00000000000E+00 -0.00000000000E+00 -0.48257314053E+02  0.48257314279E+02  0.46700000000E-02 0.  1.
         23    2    1    2    0    0  0.00000000000E+00  0.00000000000E+00 -0.40372586853E+01  0.92477369893E+02  0.92389201126E+02 0.  0.
        -11    1    3    3    0    0 -0.16830264285E+02  0.11406074939E+01 -0.45064114880E+02  0.48117909675E+02  0.51100000000E-03 0.  1.
         11    1    3    3    0    0  0.16830264285E+02 -0.11406074939E+01  0.41026856194E+02  0.44359460218E+02  0.51100000000E-03 0. -1.
<mgrwt>
<rscale>  0 0.92389201E+02</rscale>
<asrwt>0</asrwt>
<pdfrwt beam="1">  1        1 0.68030855E-02 0.92389201E+02</pdfrwt>
<pdfrwt beam="2">  1       -1 0.74242022E-02 0.92389201E+02</pdfrwt>
<totfact> 0.88687250E+04</totfact>
</mgrwt>
</event>
<event>
 5   1  0.1357339E+00  0.9301589E+02  0.7818608E-02  0.1295708E+00
         -1   -1    0    0    0  501 -0.00000000000E+00  0.00000000000E+00  0.75806164900E+01  0.75806179284E+01  0.46700000000E-02 0.  1.
          1   -1    0    0  501    0  0.00000000000E+00 -0.00000000000E+00 -0.28533148389E+03  0.28533148393E+03  0.46700000000E-02 0. -1.
         23    2    1    2    0    0  0.00000000000E+00  0.00000000000E+00 -0.27775086740E+03  0.29291210186E+03  0.93015886131E+02 0.  0.
        -11    1    3    3    0    0 -0.32736032710E+02  0.32343500319E+02 -0.16005593766E+03  0.16654024448E+03  0.51100000000E-03 0. -1.
         11    1    3    3    0    0  0.32736032710E+02 -0.32343500319E+02 -0.11769492974E+03  0.12637185738E+03  0.51100000000E-03 0.  1.
<mgrwt>
<rscale>  0 0.93015886E+02</rscale>
<asrwt>0</asrwt>
<pdfrwt beam="2">  1        1 0.43897143E-01 0.93015886E+02</pdfrwt>
<pdfrwt beam="1">  1       -1 0.11662490E-02 0.93015886E+02</pdfrwt>
<totfact> 0.12030474E+05</totfact>
</mgrwt>
</event>
<event>
 5   1  0.1357339E+00  0.9176630E+02  0.7818608E-02  0.1298630E+00
         -1   -1    0    0    0  501 -0.00000000000E+00  0.00000000000E+00  0.14784517127E+03  0.14784517134E+03  0.46700000000E-02 0. -1.
          1   -1    0    0  501    0  0.00000000000E+00 -0.00000000000E+00 -0.14239649168E+02  0.14239649933E+02  0.46700000000E-02 0.  1.
         23    2    1    2    0    0  0.00000000000E+00  0.00000000000E+00  0.13360552210E+03  0.16208482128E+03  0.91766299654E+02 0.  0.
        -11    1    3    3    0    0  0.38790555664E+02  0.84126483180E+01  0.10745723749E+03  0.11455364573E+03  0.51100000000E-03 0. -1.
         11    1    3    3    0    0 -0.38790555664E+02 -0.84126483180E+01  0.26148284608E+02  0.47531175544E+02  0.51100000000E-03 0.  1.
<mgrwt>
<rscale>  0 0.91766300E+02</rscale>
<asrwt>0</asrwt>
<pdfrwt beam="2">  1        1 0.21907153E-02 0.91766300E+02</pdfrwt>
<pdfrwt beam="1">  1       -1 0.22745412E-01 0.91766300E+02</pdfrwt>
<totfact> 0.73795361E+04</totfact>
</mgrwt>
</event>
<event>
 5   1  0.1357339E+00  0.9279874E+02  0.7818608E-02  0.1296212E+00
         -1   -1    0    0    0  501 -0.00000000000E+00  0.00000000000E+00  0.22368580670E+03  0.22368580675E+03  0.46700000000E-02 0.  1.
          1   -1    0    0  501    0  0.00000000000E+00 -0.00000000000E+00 -0.96246665149E+01  0.96246676479E+01  0.46700000000E-02 0. -1.
         23    2    1    2    0    0  0.00000000000E+00  0.00000000000E+00  0.21406114019E+03  0.23331047440E+03  0.92798737739E+02 0.  0.
        -11    1    3    3    0    0  0.28801717690E+02 -0.35319398592E+02  0.12893441800E+03  0.13675190311E+03  0.51100000000E-03 0. -1.
         11    1    3    3    0    0 -0.28801717690E+02  0.35319398592E+02  0.85126722185E+02  0.96558571287E+02  0.51100000000E-03 0.  1.
<mgrwt>
<rscale>  0 0.92798738E+02</rscale>
<asrwt>0</asrwt>
<pdfrwt beam="2">  1        1 0.14807180E-02 0.92798738E+02</pdfrwt>
<pdfrwt beam="1">  1       -1 0.34413202E-01 0.92798738E+02</pdfrwt>
<totfact> 0.64123343E+04</totfact>
</mgrwt>
</event>
<event>
 5   1  0.1357339E+00  0.9057268E+02  0.7818608E-02  0.1301471E+00
          1   -1    0    0  501    0  0.00000000000E+00  0.00000000000E+00  0.45678133569E+02  0.45678133807E+02  0.46700000000E-02 0. -1.
         -1   -1    0    0    0  501 -0.00000000000E+00 -0.00000000000E+00 -0.44897905975E+02  0.44897906217E+02  0.46700000000E-02 0.  1.
         23    2    1    2    0    0  0.00000000000E+00  0.00000000000E+00  0.78022759418E+00  0.90576040025E+02  0.90572679498E+02 0.  0.
        -11    1    3    3    0    0  0.23668460808E+02 -0.91159376259E+01 -0.37128690330E+02  0.44964830720E+02  0.51100000000E-03 0.  1.
         11    1    3    3    0    0 -0.23668460808E+02  0.91159376259E+01  0.37908917924E+02  0.45611209305E+02  0.51100000000E-03 0. -1.
<mgrwt>
<rscale>  0 0.90572679E+02</rscale>
<asrwt>0</asrwt>
<pdfrwt beam="1">  1        1 0.70274052E-02 0.90572679E+02</pdfrwt>
<pdfrwt beam="2">  1       -1 0.69073702E-02 0.90572679E+02</pdfrwt>
<totfact> 0.94239925E+04</totfact>
</mgrwt>
</event>
<event>
 5   1  0.1357339E+00  0.9258012E+02  0.7818608E-02  0.1296721E+00
         -1   -1    0    0    0  501 -0.00000000000E+00  0.00000000000E+00  0.15205721470E+02  0.15205722187E+02  0.46700000000E-02 0.  1.
          1   -1    0    0  501    0  0.00000000000E+00 -0.00000000000E+00 -0.14091863205E+03  0.14091863212E+03  0.46700000000E-02 0. -1.
         23    2    1    2    0    0  0.00000000000E+00  0.00000000000E+00 -0.12571291058E+03  0.15612435431E+03  0.92580117323E+02 0.  0.
        -11    1    3    3    0    0 -0.11370501249E+02  0.35613063796E+02 -0.16821608148E+02  0.40994452216E+02  0.51100000000E-03 0.  1.
         11    1    3    3    0    0  0.11370501249E+02 -0.35613063796E+02 -0.10889130243E+03  0.11512990210E+03  0.51100000000E-03 0. -1.
<mgrwt>
<rscale>  0 0.92580117E+02</rscale>
<asrwt>0</asrwt>
<pdfrwt beam="2">  1        1 0.21679789E-01 0.92580117E+02</pdfrwt>
<pdfrwt beam="1">  1       -1 0.23393419E-02 0.92580117E+02</pdfrwt>
<totfact> 0.10637222E+05</totfact>
</mgrwt>
</event>
<event>
 5   1  0.1357339E+00  0.9175615E+02  0.7818608E-02  0.1298654E+00
         -1   -1    0    0    0  501 -0.00000000000E+00  0.00000000000E+00  0.23630811236E+02  0.23630811697E+02  0.46700000000E-02 0.  1.
          1   -1    0    0  501    0  0.00000000000E+00 -0.00000000000E+00 -0.89070055046E+02  0.89070055169E+02  0.46700000000E-02 0. -1.
         23    2    1    2    0    0  0.00000000000E+00  0.00000000000E+00 -0.65439243810E+02  0.11270086687E+03  0.91756148360E+02 0.  0.
        -11    1    3    3    0    0 -0.34487124226E+02  0.67369476696E+01 -0.68949265333E+02  0.77387010483E+02  0.51100000000E-03 0. -1.
         11    1    3    3    0    0  0.34487124226E+02 -0.67369476696E+01  0.35100215229E+01  0.35313856383E+02  0.51100000000E-03 0.  1.
<mgrwt>
<rscale>  0 0.91756148E+02</rscale>
<asrwt>0</asrwt>
<pdfrwt beam="2">  1        1 0.13703085E-01 0.91756148E+02</pdfrwt>
<pdfrwt beam="1">  1       -1 0.36355095E-02 0.91756148E+02</pdfrwt>
<totfact> 0.10072508E+05</totfact>
</mgrwt>
</event>
<event>
 5   1  0.1357339E+00  0.9158353E+02  0.7818608E-02  0.1299062E+00
          1   -1    0    0  501    0  0.00000000000E+00  0.00000000000E+00  0.66377873659E+02  0.66377873823E+02  0.46700000000E-02 0. -1.
         -1   -1    0    0    0  501 -0.00000000000E+00 -0.00000000000E+00 -0.31590127945E+02  0.31590128290E+02  0.46700000000E-02 0.  1.
         23    2    1    2    0    0  0.00000000000E+00  0.00000000000E+00  0.34787745714E+02  0.97968002113E+02  0.91583525736E+02 0.  0.
        -11    1    3    3    0    0  0.34022843819E+02 -0.23578742709E+02 -0.35510384175E+01  0.41546610973E+02  0.51100000000E-03 0. -1.
         11    1    3    3    0    0 -0.34022843819E+02  0.23578742709E+02  0.38338784132E+02  0.56421391140E+02  0.51100000000E-03 0.  1.
<mgrwt>
<rscale>  0 0.91583526E+02</rscale>
<asrwt>0</asrwt>
<pdfrwt beam="1">  1        1 0.10211980E-01 0.91583526E+02</pdfrwt>
<pdfrwt beam="2">  1       -1 0.48600198E-02 0.91583526E+02</pdfrwt>
<totfact> 0.96666641E+04</totfact>
</mgrwt>
</event>
<event>
 5   1  0.1357339E+00  0.8497997E+02  0.7818608E-02  0.1315485E+00
          1   -1    0    0  501    0  0.00000000000E+00  0.00000000000E+00  0.89939008959E+02  0.89939009080E+02  0.46700000000E-02 0. -1.
         -1   -1    0    0    0  501 -0.00000000000E+00 -0.00000000000E+00 -0.20073590839E+02  0.20073591382E+02  0.46700000000E-02 0.  1.
         23    2    1    2    0    0  0.00000000000E+00  0.00000000000E+00  0.69865418120E+02  0.11001260046E+03  0.84979971825E+02 0.  0.
        -11    1    3    3    0    0  0.59030318428E+01 -0.14087421749E+02 -0.16396622576E+02  0.22408714123E+02  0.51100000000E-03 0.  1.
         11    1    3    3    0    0 -0.59030318428E+01  0.14087421749E+02  0.86262040696E+02  0.87603886340E+02  0.51100000000E-03 0. -1.
<mgrwt>
<rscale>  0 0.84979972E+02</rscale>
<asrwt>0</asrwt>
<pdfrwt beam="1">  1        1 0.13836770E-01 0.84979972E+02</pdfrwt>
<pdfrwt beam="2">  1       -1 0.30882449E-02 0.84979972E+02</pdfrwt>
<totfact> 0.12430745E+05</totfact>
</mgrwt>
</event>
<event>
 5   1  0.1357339E+00  0.8430747E+02  0.7818608E-02  0.1317254E+00
         -1   -1    0    0    0  501 -0.00000000000E+00  0.00000000000E+00  0.65611603829E+02  0.65611603995E+02  0.46700000000E-02 0.  1.
          1   -1    0    0  501    0  0.00000000000E+00 -0.00000000000E+00 -0.27082668603E+02  0.27082669006E+02  0.46700000000E-02 0. -1.
         23    2    1    2    0    0  0.00000000000E+00  0.00000000000E+00  0.38528935226E+02  0.92694273001E+02  0.84307469405E+02 0.  0.
        -11    1    3    3    0    0 -0.34099983200E+02 -0.54900218636E+01  0.45834303271E+02  0.57391049397E+02  0.51100000000E-03 0.  1.
         11    1    3    3    0    0  0.34099983200E+02  0.54900218636E+01 -0.73053680453E+01  0.35303223604E+02  0.51100000000E-03 0. -1.
<mgrwt>
<rscale>  0 0.84307469E+02</rscale>
<asrwt>0</asrwt>
<pdfrwt beam="2">  1        1 0.41665644E-02 0.84307469E+02</pdfrwt>
<pdfrwt beam="1">  1       -1 0.10094093E-01 0.84307469E+02</pdfrwt>
<totfact> 0.10669348E+05</totfact>
</mgrwt>
</event>
<event>
 5   1  0.1357339E+00  0.9170540E+02  0.7818608E-02  0.1298774E+00
          1   -1    0    0  501    0  0.00000000000E+00  0.00000000000E+00  0.74599526532E+02  0.74599526678E+02  0.46700000000E-02 0. -1.
         -1   -1    0    0    0  501 -0.00000000000E+00 -0.00000000000E+00 -0.28183422548E+02  0.28183422935E+02  0.46700000000E-02 0.  1.
         23    2    1    2    0    0  0.00000000000E+00  0.00000000000E+00  0.46416103985E+02  0.10278294961E+03  0.91705397998E+02 0.  0.
        -11    1    3    3    0    0 -0.30789977656E+02 -0.13795310810E+02 -0.11593249000E+02  0.35675436186E+02  0.51100000000E-03 0. -1.
         11    1    3    3    0    0  0.30789977656E+02  0.13795310810E+02  0.58009352985E+02  0.67107513427E+02  0.51100000000E-03 0.  1.
<mgrwt>
<rscale>  0 0.91705398E+02</rscale>
<asrwt>0</asrwt>
<pdfrwt beam="1">  1        1 0.11476850E-01 0.91705398E+02</pdfrwt>
<pdfrwt beam="2">  1       -1 0.43359112E-02 0.91705398E+02</pdfrwt>
<totfact> 0.98071404E+04</totfact>
</mgrwt>
</event>
<event>
 5   1  0.1357339E+00  0.9132728E+02  0.7818608E-02  0.1299669E+00
         -1   -1    0    0    0  501 -0.00000000000E+00  0.00000000000E+00  0.34771425867E+02  0.34771426181E+02  0.46700000000E-02 0.  1.
          1   -1    0    0  501    0  0.00000000000E+00 -0.00000000000E+00 -0.59967859912E+02  0.59967860093E+02  0.46700000000E-02 0. -1.
         23    2    1    2    0    0  0.00000000000E+00  0.00000000000E+00 -0.25196434045E+02  0.94739286274E+02  0.91327280016E+02 0.  0.
        -11    1    3    3    0    0  0.38140225347E+02 -0.20860054589E+02  0.19007002618E+01  0.43513576373E+02  0.51100000000E-03 0.  1.
         11    1    3    3    0    0 -0.38140225347E+02  0.20860054589E+02 -0.27097134307E+02  0.51225709901E+02  0.51100000000E-03 0. -1.
<mgrwt>
<rscale>  0 0.91327280E+02</rscale>
<asrwt>0</asrwt>
<pdfrwt beam="2">  1        1 0.92258247E-02 0.91327280E+02</pdfrwt>
<pdfrwt beam="1">  1       -1 0.53494502E-02 0.91327280E+02</pdfrwt>
<totfact> 0.95923282E+04</totfact>
</mgrwt>
</event>
<event>
 5   1  0.1357339E+00  0.9686216E+02  0.7818608E-02  0.1287036E+00
          1   -1    0    0  501    0  0.00000000000E+00  0.00000000000E+00  0.27322569158E+02  0.27322569557E+02  0.46700000000E-02 0. -1.
         -1   -1    0    0    0  501 -0.00000000000E+00 -0.00000000000E+00 -0.85847319908E+02  0.85847320035E+02  0.46700000000E-02 0.  1.
         23    2    1    2    0    0  0.00000000000E+00  0.00000000000E+00 -0.58524750750E+02  0.11316988959E+03  0.96862157007E+02 0.  0.
        -11    1    3    3    0    0 -0.25155847456E+02 -0.32001690712E+02  0.13977761066E+01  0.40729333998E+02  0.51100000000E-03 0. -1.
         11    1    3    3    0    0  0.25155847456E+02  0.32001690712E+02 -0.59922526856E+02  0.72440555594E+02  0.51100000000E-03 0.  1.
<mgrwt>
<rscale>  0 0.96862157E+02</rscale>
<asrwt>0</asrwt>
<pdfrwt beam="1">  1        1 0.42034723E-02 0.96862157E+02</pdfrwt>
<pdfrwt beam="2">  1       -1 0.13207280E-01 0.96862157E+02</pdfrwt>
<totfact> 0.71597175E+04</totfact>
</mgrwt>
</event>
<event>
 5   1  0.1357339E+00  0.1060500E+03  0.7818608E-02  0.1268065E+00
          1   -1    0    0  501    0  0.00000000000E+00  0.00000000000E+00  0.64328656911E+02  0.64328657080E+02  0.46700000000E-02 0. -1.
         -1   -1    0    0    0  501 -0.00000000000E+00 -0.00000000000E+00 -0.43707552702E+02  0.43707552952E+02  0.46700000000E-02 0.  1.
         23    2    1    2    0    0  0.00000000000E+00  0.00000000000E+00  0.20621104209E+02  0.10803621003E+03  0.10604995398E+03 0.  0.
        -11    1    3    3    0    0 -0.57233777589E+01  0.42956486619E+02 -0.20817115362E+02  0.48076700052E+02  0.51100000000E-03 0.  1.
         11    1    3    3    0    0  0.57233777589E+01 -0.42956486619E+02  0.41438219571E+02  0.59959509980E+02  0.51100000000E-03 0. -1.
<mgrwt>
<rscale>  0 0.10604995E+03</rscale>
<asrwt>0</asrwt>
<pdfrwt beam="1">  1        1 0.98967165E-02 0.10604995E+03</pdfrwt>
<pdfrwt beam="2">  1       -1 0.67242389E-02 0.10604995E+03</pdfrwt>
<totfact> 0.63800748E+04</totfact>
</mgrwt>
</event>
<event>
 5   1  0.1357339E+00  0.8743686E+02  0.7818608E-02  0.1309180E+00
          1   -1    0    0  501    0  0.00000000000E+00  0.00000000000E+00  0.17447838584E+03  0.17447838591E+03  0.46700000000E-02 0. -1.
         -1   -1    0    0    0  501 -0.00000000000E+00 -0.00000000000E+00 -0.10954370799E+02  0.10954371794E+02  0.46700000000E-02 0.  1.
         23    2    1    2    0    0  0.00000000000E+00  0.00000000000E+00  0.16352401504E+03  0.18543275770E+03  0.87436857972E+02 0.  0.
        -11    1    3    3    0    0 -0.12774785749E+02  0.35672318821E+02  0.35512301157E+02  0.51931040956E+02  0.51100000000E-03 0.  1.
         11    1    3    3    0    0  0.12774785749E+02 -0.35672318821E+02  0.12801171389E+03  0.13350171674E+03  0.51100000000E-03 0. -1.
<mgrwt>
<rscale>  0 0.87436858E+02</rscale>
<asrwt>0</asrwt>
<pdfrwt beam="1">  1        1 0.26842831E-01 0.87436858E+02</pdfrwt>
<pdfrwt beam="2">  1       -1 0.16852878E-02 0.87436858E+02</pdfrwt>
<totfact> 0.12904502E+05</totfact>
</mgrwt>
</event>
<event>
 5   1  0.1357339E+00  0.9131194E+02  0.7818608E-02  0.1299705E+00
          1   -1    0    0  501    0  0.00000000000E+00  0.00000000000E+00  0.43673272705E+02  0.43673272955E+02  0.46700000000E-02 0. -1.
         -1   -1    0    0    0  501 -0.00000000000E+00 -0.00000000000E+00 -0.47728678493E+02  0.47728678721E+02  0.46700000000E-02 0.  1.
         23    2    1    2    0    0  0.00000000000E+00  0.00000000000E+00 -0.40554057882E+01  0.91401951676E+02  0.91311940370E+02 0.  0.
        -11    1    3    3    0    0  0.19399706597E+02  0.35932753252E+02 -0.22467337931E+02  0.46607860349E+02  0.51100000000E-03 0.  1.
         11    1    3    3    0    0 -0.19399706597E+02 -0.35932753252E+02  0.18411932143E+02  0.44794091327E+02  0.51100000000E-03 0. -1.
<mgrwt>
<rscale>  0 0.91311940E+02</rscale>
<asrwt>0</asrwt>
<pdfrwt beam="1">  1        1 0.67189651E-02 0.91311940E+02</pdfrwt>
<pdfrwt beam="2">  1       -1 0.73428736E-02 0.91311940E+02</pdfrwt>
<totfact> 0.91494558E+04</totfact>
</mgrwt>
</event>
<event>
 5   1  0.1357339E+00  0.9094054E+02  0.7818608E-02  0.1300590E+00
         -1   -1    0    0    0  501 -0.00000000000E+00  0.00000000000E+00  0.19243428682E+02  0.19243429249E+02  0.46700000000E-02 0.  1.
          1   -1    0    0  501    0  0.00000000000E+00 -0.00000000000E+00 -0.10744162970E+03  0.10744162980E+03  0.46700000000E-02 0. -1.
         23    2    1    2    0    0  0.00000000000E+00  0.00000000000E+00 -0.88198201019E+02  0.12668505905E+03  0.90940538397E+02 0.  0.
        -11    1    3    3    0    0  0.12445191685E+02  0.43196596564E+02 -0.34577638689E+02  0.56713683079E+02  0.51100000000E-03 0. -1.
         11    1    3    3    0    0 -0.12445191685E+02 -0.43196596564E+02 -0.53620562330E+02  0.69971375973E+02  0.51100000000E-03 0.  1.
<mgrwt>
<rscale>  0 0.90940538E+02</rscale>
<asrwt>0</asrwt>
<pdfrwt beam="2">  1        1 0.16529481E-01 0.90940538E+02</pdfrwt>
<pdfrwt beam="1">  1       -1 0.29605276E-02 0.90940538E+02</pdfrwt>
<totfact> 0.10646586E+05</totfact>
</mgrwt>
</event>
<event>
 5   1  0.1357339E+00  0.9045264E+02  0.7818608E-02  0.1301759E+00
         -1   -1    0    0    0  501 -0.00000000000E+00  0.00000000000E+00  0.19728877130E+02  0.19728877683E+02  0.46700000000E-02 0.  1.
          1   -1    0    0  501    0  0.00000000000E+00 -0.00000000000E+00 -0.10367645894E+03  0.10367645905E+03  0.46700000000E-02 0. -1.
         23    2    1    2    0    0  0.00000000000E+00  0.00000000000E+00 -0.83947581813E+02  0.12340533673E+03  0.90452643088E+02 0.  0.
        -11    1    3    3    0    0  0.44946995218E+01 -0.20911723273E+02  0.12392120096E+02  0.24719772143E+02  0.51100000000E-03 0.  1.
         11    1    3    3    0    0 -0.44946995218E+01  0.20911723273E+02 -0.96339701909E+02  0.98685564588E+02  0.51100000000E-03 0. -1.
<mgrwt>
<rscale>  0 0.90452643E+02</rscale>
<asrwt>0</asrwt>
<pdfrwt beam="2">  1        1 0.15950224E-01 0.90452643E+02</pdfrwt>
<pdfrwt beam="1">  1       -1 0.30352120E-02 0.90452643E+02</pdfrwt>
<totfact> 0.10738787E+05</totfact>
</mgrwt>
</event>
<event>
 5   1  0.1357339E+00  0.9128139E+02  0.7818608E-02  0.1299778E+00
         -1   -1    0    0    0  501 -0.00000000000E+00  0.00000000000E+00  0.19319323864E+02  0.19319324429E+02  0.46700000000E-02 0.  1.
          1   -1    0    0  501    0  0.00000000000E+00 -0.00000000000E+00 -0.10782328425E+03  0.10782328435E+03  0.46700000000E-02 0. -1.
         23    2    1    2    0    0  0.00000000000E+00  0.00000000000E+00 -0.88503960386E+02  0.12714260878E+03  0.91281388921E+02 0.  0.
        -11    1    3    3    0    0  0.37564695606E+02 -0.13288821480E+02 -0.13251000341E+02  0.41991524652E+02  0.51100000000E-03 0.  1.
         11    1    3    3    0    0 -0.37564695606E+02  0.13288821480E+02 -0.75252960045E+02  0.85151084127E+02  0.51100000000E-03 0. -1.
<mgrwt>
<rscale>  0 0.91281389E+02</rscale>
<asrwt>0</asrwt>
<pdfrwt beam="2">  1        1 0.16588197E-01 0.91281389E+02</pdfrwt>
<pdfrwt beam="1">  1       -1 0.29722038E-02 0.91281389E+02</pdfrwt>
<totfact> 0.10545070E+05</totfact>
</mgrwt>
</event>
<event>
 5   1  0.1357339E+00  0.9088383E+02  0.7818608E-02  0.1300725E+00
         -1   -1    0    0    0  501 -0.00000000000E+00  0.00000000000E+00  0.27204911474E+03  0.27204911478E+03  0.46700000000E-02 0.  1.
          1   -1    0    0  501    0  0.00000000000E+00 -0.00000000000E+00 -0.75904214925E+01  0.75904229291E+01  0.46700000000E-02 0. -1.
         23    2    1    2    0    0  0.00000000000E+00  0.00000000000E+00  0.26445869325E+03  0.27963953771E+03  0.90883830333E+02 0.  0.
        -11    1    3    3    0    0 -0.36941845058E+02 -0.25924717370E+02  0.14856202957E+03  0.15526579635E+03  0.51100000000E-03 0. -1.
         11    1    3    3    0    0  0.36941845058E+02  0.25924717370E+02  0.11589666368E+03  0.12437374136E+03  0.51100000000E-03 0.  1.
<mgrwt>
<rscale>  0 0.90883830E+02</rscale>
<asrwt>0</asrwt>
<pdfrwt beam="2">  1        1 0.11677576E-02 0.90883830E+02</pdfrwt>
<pdfrwt beam="1">  1       -1 0.41853699E-01 0.90883830E+02</pdfrwt>
<totfact> 0.63401477E+04</totfact>
</mgrwt>
</event>
<event>
 5   1  0.1357339E+00  0.8880214E+02  0.7818608E-02  0.1305779E+00
         -1   -1    0    0    0  501 -0.00000000000E+00  0.00000000000E+00  0.22377525271E+02  0.22377525759E+02  0.46700000000E-02 0.  1.
          1   -1    0    0  501    0  0.00000000000E+00 -0.00000000000E+00 -0.88099785756E+02  0.88099785880E+02  0.46700000000E-02 0. -1.
         23    2    1    2    0    0  0.00000000000E+00  0.00000000000E+00 -0.65722260485E+02  0.11047731164E+03  0.88802144477E+02 0.  0.
        -11    1    3    3    0    0  0.27883418796E+02 -0.12443160686E+02 -0.72964996326E+02  0.79096194477E+02  0.51100000000E-03 0. -1.
         11    1    3    3    0    0 -0.27883418796E+02  0.12443160686E+02  0.72427358413E+01  0.31381117162E+02  0.51100000000E-03 0.  1.
<mgrwt>
<rscale>  0 0.88802144E+02</rscale>
<asrwt>0</asrwt>
<pdfrwt beam="2">  1        1 0.13553813E-01 0.88802144E+02</pdfrwt>
<pdfrwt beam="1">  1       -1 0.34426963E-02 0.88802144E+02</pdfrwt>
<totfact> 0.10994727E+05</totfact>
</mgrwt>
</event>
<event>
 5   1  0.1357339E+00  0.8291016E+02  0.7818608E-02  0.1320990E+00
          1   -1    0    0  501    0  0.00000000000E+00  0.00000000000E+00  0.11320457762E+03  0.11320457771E+03  0.46700000000E-02 0.  1.
         -1   -1    0    0    0  501 -0.00000000000E+00 -0.00000000000E+00 -0.15180688954E+02  0.15180689672E+02  0.46700000000E-02 0. -1.
         23    2    1    2    0    0  0.00000000000E+00  0.00000000000E+00  0.98023888662E+02  0.12838526738E+03  0.82910156995E+02 0.  0.
        -11    1    3    3    0    0  0.40404050432E+02  0.58880600730E+01  0.37913821883E+02  0.55719067049E+02  0.51100000000E-03 0. -1.
         11    1    3    3    0    0 -0.40404050432E+02 -0.58880600730E+01  0.60110066779E+02  0.72666200335E+02  0.51100000000E-03 0.  1.
<mgrwt>
<rscale>  0 0.82910157E+02</rscale>
<asrwt>0</asrwt>
<pdfrwt beam="1">  1        1 0.17416089E-01 0.82910157E+02</pdfrwt>
<pdfrwt beam="2">  1       -1 0.23354907E-02 0.82910157E+02</pdfrwt>
<totfact> 0.13784528E+05</totfact>
</mgrwt>
</event>
<event>
 5   1  0.1357339E+00  0.9192028E+02  0.7818608E-02  0.1298267E+00
         -1   -1    0    0    0  501 -0.00000000000E+00  0.00000000000E+00  0.14041939077E+02  0.14041939854E+02  0.46700000000E-02 0.  1.
          1   -1    0    0  501    0  0.00000000000E+00 -0.00000000000E+00 -0.15043037883E+03  0.15043037890E+03  0.46700000000E-02 0. -1.
         23    2    1    2    0    0  0.00000000000E+00  0.00000000000E+00 -0.13638843975E+03  0.16447231875E+03  0.91920275992E+02 0.  0.
        -11    1    3    3    0    0  0.35340514435E+02 -0.18782570454E+02 -0.27762633402E+02  0.48708322975E+02  0.51100000000E-03 0.  1.
         11    1    3    3    0    0 -0.35340514435E+02  0.18782570454E+02 -0.10862580635E+03  0.11576399578E+03  0.51100000000E-03 0. -1.
<mgrwt>
<rscale>  0 0.91920276E+02</rscale>
<asrwt>0</asrwt>
<pdfrwt beam="2">  1        1 0.23143134E-01 0.91920276E+02</pdfrwt>
<pdfrwt beam="1">  1       -1 0.21602985E-02 0.91920276E+02</pdfrwt>
<totfact> 0.10975758E+05</totfact>
</mgrwt>
</event>
<event>
 5   1  0.1357339E+00  0.9176087E+02  0.7818608E-02  0.1298643E+00
         -1   -1    0    0    0  501 -0.00000000000E+00  0.00000000000E+00  0.15968651069E+03  0.15968651076E+03  0.46700000000E-02 0. -1.
          1   -1    0    0  501    0  0.00000000000E+00 -0.00000000000E+00 -0.13182166393E+02  0.13182167220E+02  0.46700000000E-02 0.  1.
         23    2    1    2    0    0  0.00000000000E+00  0.00000000000E+00  0.14650434430E+03  0.17286867798E+03  0.91760868176E+02 0.  0.
        -11    1    3    3    0    0 -0.31163061519E+02  0.18527824771E+02  0.12622297137E+03  0.13132652129E+03  0.51100000000E-03 0. -1.
         11    1    3    3    0    0  0.31163061519E+02 -0.18527824771E+02  0.20281372931E+02  0.41542156687E+02  0.51100000000E-03 0.  1.
<mgrwt>
<rscale>  0 0.91760868E+02</rscale>
<asrwt>0</asrwt>
<pdfrwt beam="2">  1        1 0.20280257E-02 0.91760868E+02</pdfrwt>
<pdfrwt beam="1">  1       -1 0.24567155E-01 0.91760868E+02</pdfrwt>
<totfact> 0.72465139E+04</totfact>
</mgrwt>
</event>
<event>
 5   1  0.1357339E+00  0.9164773E+02  0.7818608E-02  0.1298910E+00
          1   -1    0    0  501    0  0.00000000000E+00  0.00000000000E+00  0.19079285985E+03  0.19079285991E+03  0.46700000000E-02 0. -1.
         -1   -1    0    0    0  501 -0.00000000000E+00 -0.00000000000E+00 -0.11005792974E+02  0.11005793965E+02  0.46700000000E-02 0.  1.
         23    2    1    2    0    0  0.00000000000E+00  0.00000000000E+00  0.17978706688E+03  0.20179865387E+03  0.91647734771E+02 0.  0.
        -11    1    3    3    0    0  0.37879998512E+02  0.17749430582E+02  0.13108075057E+03  0.13759396696E+03  0.51100000000E-03 0.  1.
         11    1    3    3    0    0 -0.37879998512E+02 -0.17749430582E+02  0.48706316307E+02  0.64204686914E+02  0.51100000000E-03 0. -1.
<mgrwt>
<rscale>  0 0.91647735E+02</rscale>
<asrwt>0</asrwt>
<pdfrwt beam="1">  1        1 0.29352747E-01 0.91647735E+02</pdfrwt>
<pdfrwt beam="2">  1       -1 0.16931990E-02 0.91647735E+02</pdfrwt>
<totfact> 0.11571852E+05</totfact>
</mgrwt>
</event>
<event>
 5   1  0.1357339E+00  0.9057535E+02  0.7818608E-02  0.1301464E+00
         -1   -1    0    0    0  501 -0.00000000000E+00  0.00000000000E+00  0.37753207702E+02  0.37753207991E+02  0.46700000000E-02 0.  1.
          1   -1    0    0  501    0  0.00000000000E+00 -0.00000000000E+00 -0.54325804709E+02  0.54325804909E+02  0.46700000000E-02 0. -1.
         23    2    1    2    0    0  0.00000000000E+00  0.00000000000E+00 -0.16572597006E+02  0.92079012900E+02  0.90575347889E+02 0.  0.
        -11    1    3    3    0    0 -0.24176556899E+02  0.30491748318E+01 -0.47092913406E+02  0.53024012145E+02  0.51100000000E-03 0. -1.
         11    1    3    3    0    0  0.24176556899E+02 -0.30491748318E+01  0.30520316399E+02  0.39055000755E+02  0.51100000000E-03 0.  1.
<mgrwt>
<rscale>  0 0.90575348E+02</rscale>
<asrwt>0</asrwt>
<pdfrwt beam="2">  1        1 0.83578161E-02 0.90575348E+02</pdfrwt>
<pdfrwt beam="1">  1       -1 0.58081858E-02 0.90575348E+02</pdfrwt>
<totfact> 0.96703425E+04</totfact>
</mgrwt>
</event>
<event>
 5   1  0.1357339E+00  0.9187424E+02  0.7818608E-02  0.1298375E+00
          1   -1    0    0  501    0  0.00000000000E+00  0.00000000000E+00  0.76834630499E+01  0.76834644691E+01  0.46700000000E-02 0. -1.
         -1   -1    0    0    0  501 -0.00000000000E+00 -0.00000000000E+00 -0.27464423014E+03  0.27464423018E+03  0.46700000000E-02 0.  1.
         23    2    1    2    0    0  0.00000000000E+00  0.00000000000E+00 -0.26696076709E+03  0.28232769465E+03  0.91874240134E+02 0.  0.
        -11    1    3    3    0    0 -0.21319304520E+02  0.38840241205E+02 -0.17075626550E+03  0.17641082532E+03  0.51100000000E-03 0.  1.
         11    1    3    3    0    0  0.21319304520E+02 -0.38840241205E+02 -0.96204501590E+02  0.10591686933E+03  0.51100000000E-03 0. -1.
<mgrwt>
<rscale>  0 0.91874240E+02</rscale>
<asrwt>0</asrwt>
<pdfrwt beam="1">  1        1 0.11820716E-02 0.91874240E+02</pdfrwt>
<pdfrwt beam="2">  1       -1 0.42252951E-01 0.91874240E+02</pdfrwt>
<totfact> 0.61416524E+04</totfact>
</mgrwt>
</event>
<event>
 5   1  0.1357339E+00  0.8947197E+02  0.7818608E-02  0.1304135E+00
          1   -1    0    0  501    0  0.00000000000E+00  0.00000000000E+00  0.28334798562E+02  0.28334798947E+02  0.46700000000E-02 0. -1.
         -1   -1    0    0    0  501 -0.00000000000E+00 -0.00000000000E+00 -0.70630754627E+02  0.70630754781E+02  0.46700000000E-02 0.  1.
         23    2    1    2    0    0  0.00000000000E+00  0.00000000000E+00 -0.42295956065E+02  0.98965553728E+02  0.89471967259E+02 0.  0.
        -11    1    3    3    0    0  0.30317466555E+02 -0.20595384786E+02  0.72251083301E+01  0.37356670668E+02  0.51100000000E-03 0. -1.
         11    1    3    3    0    0 -0.30317466555E+02  0.20595384786E+02 -0.49521064395E+02  0.61608883060E+02  0.51100000000E-03 0.  1.
<mgrwt>
<rscale>  0 0.89471967E+02</rscale>
<asrwt>0</asrwt>
<pdfrwt beam="1">  1        1 0.43591999E-02 0.89471967E+02</pdfrwt>
<pdfrwt beam="2">  1       -1 0.10866270E-01 0.89471967E+02</pdfrwt>
<totfact> 0.90670345E+04</totfact>
</mgrwt>
</event>
<event>
 5   1  0.1357339E+00  0.9029551E+02  0.7818608E-02  0.1302138E+00
          1   -1    0    0  501    0  0.00000000000E+00  0.00000000000E+00  0.56322853926E+01  0.56322873286E+01  0.46700000000E-02 0. -1.
         -1   -1    0    0    0  501 -0.00000000000E+00 -0.00000000000E+00 -0.36189919450E+03  0.36189919453E+03  0.46700000000E-02 0.  1.
         23    2    1    2    0    0  0.00000000000E+00  0.00000000000E+00 -0.35626690911E+03  0.36753148186E+03  0.90295512803E+02 0.  0.
        -11    1    3    3    0    0  0.11961260877E+02 -0.43032298368E+02 -0.15129729188E+03  0.15775208713E+03  0.51100000000E-03 0. -1.
         11    1    3    3    0    0 -0.11961260877E+02  0.43032298368E+02 -0.20496961723E+03  0.20977939472E+03  0.51100000000E-03 0.  1.
<mgrwt>
<rscale>  0 0.90295513E+02</rscale>
<asrwt>0</asrwt>
<pdfrwt beam="1">  1        1 0.86650588E-03 0.90295513E+02</pdfrwt>
<pdfrwt beam="2">  1       -1 0.55676781E-01 0.90295513E+02</pdfrwt>
<totfact> 0.57370155E+04</totfact>
</mgrwt>
</event>
<event>
 5   1  0.1357339E+00  0.1097767E+03  0.7818608E-02  0.1260984E+00
          1   -1    0    0  501    0  0.00000000000E+00  0.00000000000E+00  0.45664698326E+02  0.45664698565E+02  0.46700000000E-02 0. -1.
         -1   -1    0    0    0  501 -0.00000000000E+00 -0.00000000000E+00 -0.65975014406E+02  0.65975014571E+02  0.46700000000E-02 0.  1.
         23    2    1    2    0    0  0.00000000000E+00  0.00000000000E+00 -0.20310316080E+02  0.11163971314E+03  0.10977666696E+03 0.  0.
        -11    1    3    3    0    0 -0.25372323717E+02 -0.48637062201E+02 -0.82770564166E+01  0.55478178535E+02  0.51100000000E-03 0.  1.
         11    1    3    3    0    0  0.25372323717E+02  0.48637062201E+02 -0.12033259663E+02  0.56161534601E+02  0.51100000000E-03 0. -1.
<mgrwt>
<rscale>  0 0.10977667E+03</rscale>
<asrwt>0</asrwt>
<pdfrwt beam="1">  1        1 0.70253382E-02 0.10977667E+03</pdfrwt>
<pdfrwt beam="2">  1       -1 0.10150002E-01 0.10977667E+03</pdfrwt>
<totfact> 0.54465658E+04</totfact>
</mgrwt>
</event>
<event>
 5   1  0.1357339E+00  0.9029856E+02  0.7818608E-02  0.1302130E+00
          1   -1    0    0  501    0  0.00000000000E+00  0.00000000000E+00  0.52436670169E+02  0.52436670377E+02  0.46700000000E-02 0. -1.
         -1   -1    0    0    0  501 -0.00000000000E+00 -0.00000000000E+00 -0.38874653042E+02  0.38874653322E+02  0.46700000000E-02 0.  1.
         23    2    1    2    0    0  0.00000000000E+00  0.00000000000E+00  0.13562017127E+02  0.91311323699E+02  0.90298557725E+02 0.  0.
        -11    1    3    3    0    0 -0.59389219301E+01 -0.42593588555E+02 -0.71199092623E+01  0.43591027607E+02  0.51100000000E-03 0.  1.
         11    1    3    3    0    0  0.59389219301E+01  0.42593588555E+02  0.20681926389E+02  0.47720296092E+02  0.51100000000E-03 0. -1.
<mgrwt>
<rscale>  0 0.90298558E+02</rscale>
<asrwt>0</asrwt>
<pdfrwt beam="1">  1        1 0.80671801E-02 0.90298558E+02</pdfrwt>
<pdfrwt beam="2">  1       -1 0.59807159E-02 0.90298558E+02</pdfrwt>
<totfact> 0.97016405E+04</totfact>
</mgrwt>
</event>
<event>
 5   1  0.1357339E+00  0.8001407E+02  0.7818608E-02  0.1329012E+00
          1   -1    0    0  501    0  0.00000000000E+00  0.00000000000E+00  0.64786075400E+02  0.64786075568E+02  0.46700000000E-02 0. -1.
         -1   -1    0    0    0  501 -0.00000000000E+00 -0.00000000000E+00 -0.24705353873E+02  0.24705354314E+02  0.46700000000E-02 0.  1.
         23    2    1    2    0    0  0.00000000000E+00  0.00000000000E+00  0.40080721527E+02  0.89491429883E+02  0.80014072414E+02 0.  0.
        -11    1    3    3    0    0  0.36001297961E+01  0.39821496851E+02  0.21561776358E+02  0.45427114656E+02  0.51100000000E-03 0.  1.
         11    1    3    3    0    0 -0.36001297961E+01 -0.39821496851E+02  0.18518945169E+02  0.44064315227E+02  0.51100000000E-03 0. -1.
<mgrwt>
<rscale>  0 0.80014072E+02</rscale>
<asrwt>0</asrwt>
<pdfrwt beam="1">  1        1 0.99670886E-02 0.80014072E+02</pdfrwt>
<pdfrwt beam="2">  1       -1 0.38008237E-02 0.80014072E+02</pdfrwt>
<totfact> 0.13941408E+05</totfact>
</mgrwt>
</event>
<event>
 5   1  0.1357339E+00  0.9133367E+02  0.7818608E-02  0.1299654E+00
          1   -1    0    0  501    0  0.00000000000E+00  0.00000000000E+00  0.90677542137E+02  0.90677542258E+02  0.46700000000E-02 0. -1.
         -1   -1    0    0    0  501 -0.00000000000E+00 -0.00000000000E+00 -0.22998633623E+02  0.22998634097E+02  0.46700000000E-02 0.  1.
         23    2    1    2    0    0  0.00000000000E+00  0.00000000000E+00  0.67678908514E+02  0.11367617635E+03  0.91333665277E+02 0.  0.
        -11    1    3    3    0    0  0.15068646952E+02  0.54473784136E+01 -0.19385140320E+02  0.25149984454E+02  0.51100000000E-03 0.  1.
         11    1    3    3    0    0 -0.15068646952E+02 -0.54473784136E+01  0.87064048835E+02  0.88526191900E+02  0.51100000000E-03 0. -1.
<mgrwt>
<rscale>  0 0.91333665E+02</rscale>
<asrwt>0</asrwt>
<pdfrwt beam="1">  1        1 0.13950391E-01 0.91333665E+02</pdfrwt>
<pdfrwt beam="2">  1       -1 0.35382513E-02 0.91333665E+02</pdfrwt>
<totfact> 0.10230311E+05</totfact>
</mgrwt>
</event>
<event>
 5   1  0.1357339E+00  0.9160872E+02  0.7818608E-02  0.1299002E+00
          1   -1    0    0  501    0  0.00000000000E+00  0.00000000000E+00  0.20384805372E+03  0.20384805378E+03  0.46700000000E-02 0. -1.
         -1   -1    0    0    0  501 -0.00000000000E+00 -0.00000000000E+00 -0.10292173112E+02  0.10292174171E+02  0.46700000000E-02 0.  1.
         23    2    1    2    0    0  0.00000000000E+00  0.00000000000E+00  0.19355588061E+03  0.21414022795E+03  0.91608723964E+02 0.  0.
        -11    1    3    3    0    0 -0.26153456184E+02  0.37423638895E+02  0.88186819138E+02  0.99304819059E+02  0.51100000000E-03 0.  1.
         11    1    3    3    0    0  0.26153456184E+02 -0.37423638895E+02  0.10536906148E+03  0.11483540889E+03  0.51100000000E-03 0. -1.
<mgrwt>
<rscale>  0 0.91608724E+02</rscale>
<asrwt>0</asrwt>
<pdfrwt beam="1">  1        1 0.31361238E-01 0.91608724E+02</pdfrwt>
<pdfrwt beam="2">  1       -1 0.15834114E-02 0.91608724E+02</pdfrwt>
<totfact> 0.11734715E+05</totfact>
</mgrwt>
</event>
<event>
 5   1  0.1357339E+00  0.8970175E+02  0.7818608E-02  0.1303576E+00
          1   -1    0    0  501    0  0.00000000000E+00  0.00000000000E+00  0.10848619378E+02  0.10848620383E+02  0.46700000000E-02 0. -1.
         -1   -1    0    0    0  501 -0.00000000000E+00 -0.00000000000E+00 -0.18542459172E+03  0.18542459177E+03  0.46700000000E-02 0.  1.
         23    2    1    2    0    0  0.00000000000E+00  0.00000000000E+00 -0.17457597234E+03  0.19627321216E+03  0.89701748550E+02 0.  0.
        -11    1    3    3    0    0 -0.40294458390E+02  0.17751633076E+02 -0.68614029253E+02  0.81526982431E+02  0.51100000000E-03 0.  1.
         11    1    3    3    0    0  0.40294458390E+02 -0.17751633076E+02 -0.10596194308E+03  0.11474622973E+03  0.51100000000E-03 0. -1.
<mgrwt>
<rscale>  0 0.89701749E+02</rscale>
<asrwt>0</asrwt>
<pdfrwt beam="1">  1        1 0.16690186E-02 0.89701749E+02</pdfrwt>
<pdfrwt beam="2">  1       -1 0.28526858E-01 0.89701749E+02</pdfrwt>
<totfact> 0.73974139E+04</totfact>
</mgrwt>
</event>
<event>
 5   1  0.1357339E+00  0.8968781E+02  0.7818608E-02  0.1303609E+00
          1   -1    0    0  501    0  0.00000000000E+00  0.00000000000E+00  0.97130772654E+01  0.97130783880E+01  0.46700000000E-02 0. -1.
         -1   -1    0    0    0  501 -0.00000000000E+00 -0.00000000000E+00 -0.20703797814E+03  0.20703797819E+03  0.46700000000E-02 0.  1.
         23    2    1    2    0    0  0.00000000000E+00  0.00000000000E+00 -0.19732490087E+03  0.21675105658E+03  0.89687814242E+02 0.  0.
        -11    1    3    3    0    0 -0.35044772332E+01  0.34441986497E+02 -0.29777467149E+02  0.45664311498E+02  0.51100000000E-03 0. -1.
         11    1    3    3    0    0  0.35044772332E+01 -0.34441986497E+02 -0.16754743372E+03  0.17108674508E+03  0.51100000000E-03 0.  1.
<mgrwt>
<rscale>  0 0.89687814E+02</rscale>
<asrwt>0</asrwt>
<pdfrwt beam="1">  1        1 0.14943198E-02 0.89687814E+02</pdfrwt>
<pdfrwt beam="2">  1       -1 0.31851993E-01 0.89687814E+02</pdfrwt>
<totfact> 0.71742992E+04</totfact>
</mgrwt>
</event>
<event>
 5   1  0.1357339E+00  0.9223702E+02  0.7818608E-02  0.1297523E+00
          1   -1    0    0  501    0  0.00000000000E+00  0.00000000000E+00  0.20547565488E+03  0.20547565494E+03  0.46700000000E-02 0. -1.
         -1   -1    0    0    0  501 -0.00000000000E+00 -0.00000000000E+00 -0.10351185739E+02  0.10351186793E+02  0.46700000000E-02 0.  1.
         23    2    1    2    0    0  0.00000000000E+00  0.00000000000E+00  0.19512446914E+03  0.21582684173E+03  0.92237016171E+02 0.  0.
        -11    1    3    3    0    0  0.44439145848E+02  0.72576122739E+01  0.12089181225E+03  0.12900519714E+03  0.51100000000E-03 0. -1.
         11    1    3    3    0    0 -0.44439145848E+02 -0.72576122739E+01  0.74232656898E+02  0.86821644594E+02  0.51100000000E-03 0.  1.
<mgrwt>
<rscale>  0 0.92237016E+02</rscale>
<asrwt>0</asrwt>
<pdfrwt beam="1">  1        1 0.31611639E-01 0.92237016E+02</pdfrwt>
<pdfrwt beam="2">  1       -1 0.15924902E-02 0.92237016E+02</pdfrwt>
<totfact> 0.11539169E+05</totfact>
</mgrwt>
</event>
<event>
 4   1  0.1357339E+00  0.1427221E+03  0.7818608E-02  0.1209712E+00
          1   -1    0    0  501    0  0.00000000000E+00  0.00000000000E+00  0.49117724860E+02  0.49117725082E+02  0.46700000000E-02 0. -1.
         -1   -1    0    0    0  501 -0.00000000000E+00 -0.00000000000E+00 -0.10367741233E+03  0.10367741243E+03  0.46700000000E-02 0.  1.
        -11    1    1    2    0    0  0.57054125035E+02  0.42680273002E+02 -0.31510964197E+02  0.77908406170E+02  0.51100000000E-03 0.  1.
         11    1    1    2    0    0 -0.57054125035E+02 -0.42680273002E+02 -0.23048723272E+02  0.74886731346E+02  0.51100000000E-03 0. -1.
<mgrwt>
<rscale>  0 0.14272209E+03</rscale>
<asrwt>0</asrwt>
<pdfrwt beam="1">  1        1 0.75565731E-02 0.14272209E+03</pdfrwt>
<pdfrwt beam="2">  1       -1 0.15950371E-01 0.14272209E+03</pdfrwt>
<totfact> 0.25343183E+04</totfact>
</mgrwt>
</event>
<event>
 5   1  0.1357339E+00  0.9032315E+02  0.7818608E-02  0.1302071E+00
         -1   -1    0    0    0  501 -0.00000000000E+00  0.00000000000E+00  0.16524978631E+02  0.16524979291E+02  0.46700000000E-02 0.  1.
          1   -1    0    0  501    0  0.00000000000E+00 -0.00000000000E+00 -0.12342332328E+03  0.12342332337E+03  0.46700000000E-02 0. -1.
         23    2    1    2    0    0  0.00000000000E+00  0.00000000000E+00 -0.10689834465E+03  0.13994830266E+03  0.90323149461E+02 0.  0.
        -11    1    3    3    0    0  0.31069273851E+01  0.44902659108E+02 -0.59176999339E+02  0.74349304258E+02  0.51100000000E-03 0.  1.
         11    1    3    3    0    0 -0.31069273851E+01 -0.44902659108E+02 -0.47721345307E+02  0.65598998398E+02  0.51100000000E-03 0. -1.
<mgrwt>
<rscale>  0 0.90323149E+02</rscale>
<asrwt>0</asrwt>
<pdfrwt beam="2">  1        1 0.18988203E-01 0.90323149E+02</pdfrwt>
<pdfrwt beam="1">  1       -1 0.25423045E-02 0.90323149E+02</pdfrwt>
<totfact> 0.11106177E+05</totfact>
</mgrwt>
</event>
<event>
 5   1  0.1357339E+00  0.9442405E+02  0.7818608E-02  0.1292479E+00
         -1   -1    0    0    0  501 -0.00000000000E+00  0.00000000000E+00  0.25926559635E+02  0.25926560056E+02  0.46700000000E-02 0.  1.
          1   -1    0    0  501    0  0.00000000000E+00 -0.00000000000E+00 -0.85972660988E+02  0.85972661115E+02  0.46700000000E-02 0. -1.
         23    2    1    2    0    0  0.00000000000E+00  0.00000000000E+00 -0.60046101353E+02  0.11189922117E+03  0.94424051020E+02 0.  0.
        -11    1    3    3    0    0 -0.19980133904E+02  0.32810820321E+02  0.25010473942E+01  0.38496894930E+02  0.51100000000E-03 0.  1.
         11    1    3    3    0    0  0.19980133904E+02 -0.32810820321E+02 -0.62547148747E+02  0.73402326241E+02  0.51100000000E-03 0. -1.
<mgrwt>
<rscale>  0 0.94424051E+02</rscale>
<asrwt>0</asrwt>
<pdfrwt beam="2">  1        1 0.13226563E-01 0.94424051E+02</pdfrwt>
<pdfrwt beam="1">  1       -1 0.39887016E-02 0.94424051E+02</pdfrwt>
<totfact> 0.92563828E+04</totfact>
</mgrwt>
</event>
<event>
 5   1  0.1357339E+00  0.9184811E+02  0.7818608E-02  0.1298437E+00
          1   -1    0    0  501    0  0.00000000000E+00  0.00000000000E+00  0.11950755458E+02  0.11950756370E+02  0.46700000000E-02 0.  1.
         -1   -1    0    0    0  501 -0.00000000000E+00 -0.00000000000E+00 -0.17647577063E+03  0.17647577069E+03  0.46700000000E-02 0. -1.
         23    2    1    2    0    0  0.00000000000E+00  0.00000000000E+00 -0.16452501517E+03  0.18842652706E+03  0.91848110941E+02 0.  0.
        -11    1    3    3    0    0 -0.52820147432E+01 -0.33439865895E+02 -0.14592170832E+03  0.14979742745E+03  0.51100000000E-03 0. -1.
         11    1    3    3    0    0  0.52820147432E+01  0.33439865895E+02 -0.18603306850E+02  0.38629099612E+02  0.51100000000E-03 0.  1.
<mgrwt>
<rscale>  0 0.91848111E+02</rscale>
<asrwt>0</asrwt>
<pdfrwt beam="1">  1        1 0.18385780E-02 0.91848111E+02</pdfrwt>
<pdfrwt beam="2">  1       -1 0.27150117E-01 0.91848111E+02</pdfrwt>
<totfact> 0.70483300E+04</totfact>
</mgrwt>
</event>
<event>
 5   1  0.1357339E+00  0.9148615E+02  0.7818608E-02  0.1299292E+00
          1   -1    0    0  501    0  0.00000000000E+00  0.00000000000E+00  0.58763105540E+02  0.58763105725E+02  0.46700000000E-02 0. -1.
         -1   -1    0    0    0  501 -0.00000000000E+00 -0.00000000000E+00 -0.35607864368E+02  0.35607864674E+02  0.46700000000E-02 0.  1.
         23    2    1    2    0    0  0.00000000000E+00  0.00000000000E+00  0.23155241172E+02  0.94370970399E+02  0.91486145729E+02 0.  0.
        -11    1    3    3    0    0 -0.21703989425E+02  0.16932622813E+02  0.49262496072E+02  0.56431997943E+02  0.51100000000E-03 0. -1.
         11    1    3    3    0    0  0.21703989425E+02 -0.16932622813E+02 -0.26107254900E+02  0.37938972456E+02  0.51100000000E-03 0.  1.
<mgrwt>
<rscale>  0 0.91486146E+02</rscale>
<asrwt>0</asrwt>
<pdfrwt beam="1">  1        1 0.90404778E-02 0.91486146E+02</pdfrwt>
<pdfrwt beam="2">  1       -1 0.54781330E-02 0.91486146E+02</pdfrwt>
<totfact> 0.95168130E+04</totfact>
</mgrwt>
</event>
<event>
 5   1  0.1357339E+00  0.9102820E+02  0.7818608E-02  0.1300381E+00
          1   -1    0    0  501    0  0.00000000000E+00  0.00000000000E+00  0.10225410571E+03  0.10225410582E+03  0.46700000000E-02 0. -1.
         -1   -1    0    0    0  501 -0.00000000000E+00 -0.00000000000E+00 -0.20258679928E+02  0.20258680466E+02  0.46700000000E-02 0.  1.
         23    2    1    2    0    0  0.00000000000E+00  0.00000000000E+00  0.81995425787E+02  0.12251278629E+03  0.91028198674E+02 0.  0.
        -11    1    3    3    0    0 -0.21435679163E+02 -0.36307859738E+02  0.17929194645E+02  0.45817082412E+02  0.51100000000E-03 0.  1.
         11    1    3    3    0    0  0.21435679163E+02  0.36307859738E+02  0.64066231142E+02  0.76695703875E+02  0.51100000000E-03 0. -1.
<mgrwt>
<rscale>  0 0.91028199E+02</rscale>
<asrwt>0</asrwt>
<pdfrwt beam="1">  1        1 0.15731401E-01 0.91028199E+02</pdfrwt>
<pdfrwt beam="2">  1       -1 0.31167201E-02 0.91028199E+02</pdfrwt>
<totfact> 0.10530805E+05</totfact>
</mgrwt>
</event>
<event>
 5   1  0.1357339E+00  0.8923747E+02  0.7818608E-02  0.1304709E+00
         -1   -1    0    0    0  501 -0.00000000000E+00  0.00000000000E+00  0.98998603539E+01  0.98998614554E+01  0.46700000000E-02 0.  1.
          1   -1    0    0  501    0  0.00000000000E+00 -0.00000000000E+00 -0.20109693058E+03  0.20109693063E+03  0.46700000000E-02 0. -1.
         23    2    1    2    0    0  0.00000000000E+00  0.00000000000E+00 -0.19119707023E+03  0.21099679209E+03  0.89237473121E+02 0.  0.
        -11    1    3    3    0    0 -0.34388387865E+02  0.28371561774E+02 -0.99909940231E+02  0.10940522334E+03  0.51100000000E-03 0. -1.
         11    1    3    3    0    0  0.34388387865E+02 -0.28371561774E+02 -0.91287129995E+02  0.10159156875E+03  0.51100000000E-03 0.  1.
<mgrwt>
<rscale>  0 0.89237473E+02</rscale>
<asrwt>0</asrwt>
<pdfrwt beam="2">  1        1 0.30937986E-01 0.89237473E+02</pdfrwt>
<pdfrwt beam="1">  1       -1 0.15230557E-02 0.89237473E+02</pdfrwt>
<totfact> 0.12555313E+05</totfact>
</mgrwt>
</event>
<event>
 5   1  0.1357339E+00  0.9232140E+02  0.7818608E-02  0.1297326E+00
          1   -1    0    0  501    0  0.00000000000E+00  0.00000000000E+00  0.17374027890E+03  0.17374027896E+03  0.46700000000E-02 0. -1.
         -1   -1    0    0    0  501 -0.00000000000E+00 -0.00000000000E+00 -0.12264340843E+02  0.12264341732E+02  0.46700000000E-02 0.  1.
         23    2    1    2    0    0  0.00000000000E+00  0.00000000000E+00  0.16147593806E+03  0.18600462070E+03  0.92321397025E+02 0.  0.
        -11    1    3    3    0    0 -0.20858636918E+02  0.38839128689E+02  0.53168295468E+02  0.69068287185E+02  0.51100000000E-03 0. -1.
         11    1    3    3    0    0  0.20858636918E+02 -0.38839128689E+02  0.10830764259E+03  0.11693633351E+03  0.51100000000E-03 0.  1.
<mgrwt>
<rscale>  0 0.92321397E+02</rscale>
<asrwt>0</asrwt>
<pdfrwt beam="1">  1        1 0.26729275E-01 0.92321397E+02</pdfrwt>
<pdfrwt beam="2">  1       -1 0.18868216E-02 0.92321397E+02</pdfrwt>
<totfact> 0.11144011E+05</totfact>
</mgrwt>
</event>
<event>
 5   1  0.1357339E+00  0.9100011E+02  0.7818608E-02  0.1300448E+00
         -1   -1    0    0    0  501 -0.00000000000E+00  0.00000000000E+00  0.31086406134E+02  0.31086406485E+02  0.46700000000E-02 0.  1.
          1   -1    0    0  501    0  0.00000000000E+00 -0.00000000000E+00 -0.66596792406E+02  0.66596792570E+02  0.46700000000E-02 0. -1.
         23    2    1    2    0    0  0.00000000000E+00  0.00000000000E+00 -0.35510386272E+02  0.97683199055E+02  0.91000109035E+02 0.  0.
        -11    1    3    3    0    0  0.11690403493E+02 -0.40316888974E+02  0.10878270687E+01  0.41991671060E+02  0.51100000000E-03 0.  1.
         11    1    3    3    0    0 -0.11690403493E+02  0.40316888974E+02 -0.36598213341E+02  0.55691527995E+02  0.51100000000E-03 0. -1.
<mgrwt>
<rscale>  0 0.91000109E+02</rscale>
<asrwt>0</asrwt>
<pdfrwt beam="2">  1        1 0.10245660E-01 0.91000109E+02</pdfrwt>
<pdfrwt beam="1">  1       -1 0.47825241E-02 0.91000109E+02</pdfrwt>
<totfact> 0.98440269E+04</totfact>
</mgrwt>
</event>
<event>
 5   1  0.1357339E+00  0.9097872E+02  0.7818608E-02  0.1300499E+00
         -1   -1    0    0    0  501 -0.00000000000E+00  0.00000000000E+00  0.18281981397E+02  0.18281981994E+02  0.46700000000E-02 0.  1.
          1   -1    0    0  501    0  0.00000000000E+00 -0.00000000000E+00 -0.11318696327E+03  0.11318696337E+03  0.46700000000E-02 0. -1.
         23    2    1    2    0    0  0.00000000000E+00  0.00000000000E+00 -0.94904981877E+02  0.13146894537E+03  0.90978722844E+02 0.  0.
        -11    1    3    3    0    0  0.37817368730E+02  0.10170726551E+02 -0.80898019525E+02  0.89878176548E+02  0.51100000000E-03 0. -1.
         11    1    3    3    0    0 -0.37817368730E+02 -0.10170726551E+02 -0.14006962352E+02  0.41590768817E+02  0.51100000000E-03 0.  1.
<mgrwt>
<rscale>  0 0.90978723E+02</rscale>
<asrwt>0</asrwt>
<pdfrwt beam="2">  1        1 0.17413379E-01 0.90978723E+02</pdfrwt>
<pdfrwt beam="1">  1       -1 0.28126126E-02 0.90978723E+02</pdfrwt>
<totfact> 0.10729040E+05</totfact>
</mgrwt>
</event>
<event>
 5   1  0.1357339E+00  0.9138771E+02  0.7818608E-02  0.1299526E+00
         -1   -1    0    0    0  501 -0.00000000000E+00  0.00000000000E+00  0.48739259073E+02  0.48739259297E+02  0.46700000000E-02 0.  1.
          1   -1    0    0  501    0  0.00000000000E+00 -0.00000000000E+00 -0.42838734970E+02  0.42838735224E+02  0.46700000000E-02 0. -1.
         23    2    1    2    0    0  0.00000000000E+00  0.00000000000E+00  0.59005241037E+01  0.91577994521E+02  0.91387706481E+02 0.  0.
        -11    1    3    3    0    0 -0.35102257543E+02  0.17468561490E+02  0.26464182377E+02  0.47304038667E+02  0.51100000000E-03 0. -1.
         11    1    3    3    0    0  0.35102257543E+02 -0.17468561490E+02 -0.20563658273E+02  0.44273955854E+02  0.51100000000E-03 0.  1.
<mgrwt>
<rscale>  0 0.91387706E+02</rscale>
<asrwt>0</asrwt>
<pdfrwt beam="2">  1        1 0.65905747E-02 0.91387706E+02</pdfrwt>
<pdfrwt beam="1">  1       -1 0.74983476E-02 0.91387706E+02</pdfrwt>
<totfact> 0.91015299E+04</totfact>
</mgrwt>
</event>
<event>
 5   1  0.1357339E+00  0.9168530E+02  0.7818608E-02  0.1298821E+00
         -1   -1    0    0    0  501 -0.00000000000E+00  0.00000000000E+00  0.67970828236E+02  0.67970828396E+02  0.46700000000E-02 0. -1.
          1   -1    0    0  501    0  0.00000000000E+00 -0.00000000000E+00 -0.30918388895E+02  0.30918389247E+02  0.46700000000E-02 0.  1.
         23    2    1    2    0    0  0.00000000000E+00  0.00000000000E+00  0.37052439341E+02  0.98889217644E+02  0.91685299285E+02 0.  0.
        -11    1    3    3    0    0  0.21111656898E+02  0.14709155218E+02 -0.22395430752E+02  0.34111825267E+02  0.51100000000E-03 0.  1.
         11    1    3    3    0    0 -0.21111656898E+02 -0.14709155218E+02  0.59447870093E+02  0.64777392376E+02  0.51100000000E-03 0. -1.
<mgrwt>
<rscale>  0 0.91685299E+02</rscale>
<asrwt>0</asrwt>
<pdfrwt beam="2">  1        1 0.47566753E-02 0.91685299E+02</pdfrwt>
<pdfrwt beam="1">  1       -1 0.10457050E-01 0.91685299E+02</pdfrwt>
<totfact> 0.85726160E+04</totfact>
</mgrwt>
</event>
<event>
 5   1  0.1357339E+00  0.9894116E+02  0.7818608E-02  0.1282538E+00
         -1   -1    0    0    0  501 -0.00000000000E+00  0.00000000000E+00  0.31229995071E+03  0.31229995074E+03  0.46700000000E-02 0.  1.
          1   -1    0    0  501    0  0.00000000000E+00 -0.00000000000E+00 -0.78364990116E+01  0.78365004031E+01  0.46700000000E-02 0. -1.
         23    2    1    2    0    0  0.00000000000E+00  0.00000000000E+00  0.30446345169E+03  0.32013645114E+03  0.98941163998E+02 0.  0.
        -11    1    3    3    0    0  0.48671389082E+02 -0.84631062187E+01  0.14378792312E+03  0.15203780819E+03  0.51100000000E-03 0. -1.
         11    1    3    3    0    0 -0.48671389082E+02  0.84631062187E+01  0.16067552857E+03  0.16809864296E+03  0.51100000000E-03 0.  1.
<mgrwt>
<rscale>  0 0.98941164E+02</rscale>
<asrwt>0</asrwt>
<pdfrwt beam="2">  1        1 0.12056156E-02 0.98941164E+02</pdfrwt>
<pdfrwt beam="1">  1       -1 0.48046138E-01 0.98941164E+02</pdfrwt>
<totfact> 0.48110726E+04</totfact>
</mgrwt>
</event>
<event>
 5   1  0.1357339E+00  0.9453851E+02  0.7818608E-02  0.1292219E+00
          1   -1    0    0  501    0  0.00000000000E+00  0.00000000000E+00  0.13949830319E+03  0.13949830327E+03  0.46700000000E-02 0. -1.
         -1   -1    0    0    0  501 -0.00000000000E+00 -0.00000000000E+00 -0.16017272901E+02  0.16017273582E+02  0.46700000000E-02 0.  1.
         23    2    1    2    0    0  0.00000000000E+00  0.00000000000E+00  0.12348103029E+03  0.15551557685E+03  0.94538509623E+02 0.  0.
        -11    1    3    3    0    0  0.19654101547E+02  0.33806314445E+02  0.10542539060E+03  0.11244404648E+03  0.51100000000E-03 0. -1.
         11    1    3    3    0    0 -0.19654101547E+02 -0.33806314445E+02  0.18055639687E+02  0.43071530374E+02  0.51100000000E-03 0.  1.
<mgrwt>
<rscale>  0 0.94538510E+02</rscale>
<asrwt>0</asrwt>
<pdfrwt beam="1">  1        1 0.21461277E-01 0.94538510E+02</pdfrwt>
<pdfrwt beam="2">  1       -1 0.24641959E-02 0.94538510E+02</pdfrwt>
<totfact> 0.10031534E+05</totfact>
</mgrwt>
</event>
<event>
 5   1  0.1357339E+00  0.9321420E+02  0.7818608E-02  0.1295250E+00
          1   -1    0    0  501    0  0.00000000000E+00  0.00000000000E+00  0.73222719086E+01  0.73222733978E+01  0.46700000000E-02 0. -1.
         -1   -1    0    0    0  501 -0.00000000000E+00 -0.00000000000E+00 -0.29665952963E+03  0.29665952967E+03  0.46700000000E-02 0.  1.
         23    2    1    2    0    0  0.00000000000E+00  0.00000000000E+00 -0.28933725773E+03  0.30398180307E+03  0.93214204329E+02 0.  0.
        -11    1    3    3    0    0  0.44715100245E+02 -0.15317173223E+01 -0.18724274862E+03  0.19251398199E+03  0.51100000000E-03 0.  1.
         11    1    3    3    0    0 -0.44715100245E+02  0.15317173223E+01 -0.10209450910E+03  0.11146782108E+03  0.51100000000E-03 0. -1.
<mgrwt>
<rscale>  0 0.93214204E+02</rscale>
<asrwt>0</asrwt>
<pdfrwt beam="1">  1        1 0.11265037E-02 0.93214204E+02</pdfrwt>
<pdfrwt beam="2">  1       -1 0.45639919E-01 0.93214204E+02</pdfrwt>
<totfact> 0.57431209E+04</totfact>
</mgrwt>
</event>
<event>
 5   1  0.1357339E+00  0.9108076E+02  0.7818608E-02  0.1300255E+00
          1   -1    0    0  501    0  0.00000000000E+00  0.00000000000E+00  0.21058419288E+03  0.21058419293E+03  0.46700000000E-02 0. -1.
         -1   -1    0    0    0  501 -0.00000000000E+00 -0.00000000000E+00 -0.98484404343E+01  0.98484415416E+01  0.46700000000E-02 0.  1.
         23    2    1    2    0    0  0.00000000000E+00  0.00000000000E+00  0.20073575244E+03  0.22043263447E+03  0.91080755546E+02 0.  0.
        -11    1    3    3    0    0 -0.39893972501E+02 -0.22914858281E+01  0.47502060629E+02  0.62074356328E+02  0.51100000000E-03 0.  1.
         11    1    3    3    0    0  0.39893972501E+02  0.22914858281E+01  0.15323369181E+03  0.15835827814E+03  0.51100000000E-03 0. -1.
<mgrwt>
<rscale>  0 0.91080756E+02</rscale>
<asrwt>0</asrwt>
<pdfrwt beam="1">  1        1 0.32397567E-01 0.91080756E+02</pdfrwt>
<pdfrwt beam="2">  1       -1 0.15151448E-02 0.91080756E+02</pdfrwt>
<totfact> 0.11993744E+05</totfact>
</mgrwt>
</event>
<event>
 5   1  0.1357339E+00  0.9100421E+02  0.7818608E-02  0.1300438E+00
          1   -1    0    0  501    0  0.00000000000E+00  0.00000000000E+00  0.14892818747E+02  0.14892819479E+02  0.46700000000E-02 0. -1.
         -1   -1    0    0    0  501 -0.00000000000E+00 -0.00000000000E+00 -0.13902279969E+03  0.13902279977E+03  0.46700000000E-02 0.  1.
         23    2    1    2    0    0  0.00000000000E+00  0.00000000000E+00 -0.12412998094E+03  0.15391561925E+03  0.91004206933E+02 0.  0.
        -11    1    3    3    0    0 -0.16268661153E+02 -0.33812232963E+02 -0.10559771014E+03  0.11206610915E+03  0.51100000000E-03 0.  1.
         11    1    3    3    0    0  0.16268661153E+02  0.33812232963E+02 -0.18532270800E+02  0.41849510092E+02  0.51100000000E-03 0. -1.
<mgrwt>
<rscale>  0 0.91004207E+02</rscale>
<asrwt>0</asrwt>
<pdfrwt beam="1">  1        1 0.22912030E-02 0.91004207E+02</pdfrwt>
<pdfrwt beam="2">  1       -1 0.21388122E-01 0.91004207E+02</pdfrwt>
<totfact> 0.76474283E+04</totfact>
</mgrwt>
</event>
<event>
 5   1  0.1357339E+00  0.8964043E+02  0.7818608E-02  0.1303725E+00
         -1   -1    0    0    0  501 -0.00000000000E+00  0.00000000000E+00  0.30348813715E+02  0.30348814075E+02  0.46700000000E-02 0.  1.
          1   -1    0    0  501    0  0.00000000000E+00 -0.00000000000E+00 -0.66192098454E+02  0.66192098619E+02  0.46700000000E-02 0. -1.
         23    2    1    2    0    0  0.00000000000E+00  0.00000000000E+00 -0.35843284739E+02  0.96540912694E+02  0.89640430403E+02 0.  0.
        -11    1    3    3    0    0  0.39215440847E+02 -0.21630375284E+02 -0.16016954533E+02  0.47563292238E+02  0.51100000000E-03 0.  1.
         11    1    3    3    0    0 -0.39215440847E+02  0.21630375284E+02 -0.19826330206E+02  0.48977620455E+02  0.51100000000E-03 0. -1.
<mgrwt>
<rscale>  0 0.89640430E+02</rscale>
<asrwt>0</asrwt>
<pdfrwt beam="2">  1        1 0.10183400E-01 0.89640430E+02</pdfrwt>
<pdfrwt beam="1">  1       -1 0.46690483E-02 0.89640430E+02</pdfrwt>
<totfact> 0.10251625E+05</totfact>
</mgrwt>
</event>
<event>
 5   1  0.1357339E+00  0.1012218E+03  0.7818608E-02  0.1277747E+00
         -1   -1    0    0    0  501 -0.00000000000E+00  0.00000000000E+00  0.96653977266E+02  0.96653977379E+02  0.46700000000E-02 0.  1.
          1   -1    0    0  501    0  0.00000000000E+00 -0.00000000000E+00 -0.26501391164E+02  0.26501391576E+02  0.46700000000E-02 0. -1.
         23    2    1    2    0    0  0.00000000000E+00  0.00000000000E+00  0.70152586102E+02  0.12315536896E+03  0.10122183344E+03 0.  0.
        -11    1    3    3    0    0 -0.44907606163E+02  0.89876544825E+01  0.61284376936E+02  0.76506508750E+02  0.51100000000E-03 0.  1.
         11    1    3    3    0    0  0.44907606163E+02 -0.89876544825E+01  0.88682091656E+01  0.46648860205E+02  0.51100000000E-03 0. -1.
<mgrwt>
<rscale>  0 0.10122183E+03</rscale>
<asrwt>0</asrwt>
<pdfrwt beam="2">  1        1 0.40771371E-02 0.10122183E+03</pdfrwt>
<pdfrwt beam="1">  1       -1 0.14869843E-01 0.10122183E+03</pdfrwt>
<totfact> 0.62541921E+04</totfact>
</mgrwt>
</event>
<event>
 5   1  0.1357339E+00  0.8965747E+02  0.7818608E-02  0.1303683E+00
          1   -1    0    0  501    0  0.00000000000E+00  0.00000000000E+00  0.13806547553E+03  0.13806547561E+03  0.46700000000E-02 0. -1.
         -1   -1    0    0    0  501 -0.00000000000E+00 -0.00000000000E+00 -0.14555523780E+02  0.14555524530E+02  0.46700000000E-02 0.  1.
         23    2    1    2    0    0  0.00000000000E+00  0.00000000000E+00  0.12350995175E+03  0.15262100014E+03  0.89657467632E+02 0.  0.
        -11    1    3    3    0    0 -0.15462014425E+02 -0.42064075311E+02  0.59925490835E+02  0.74829972430E+02  0.51100000000E-03 0. -1.
         11    1    3    3    0    0  0.15462014425E+02  0.42064075311E+02  0.63584460914E+02  0.77791027708E+02  0.51100000000E-03 0.  1.
<mgrwt>
<rscale>  0 0.89657468E+02</rscale>
<asrwt>0</asrwt>
<pdfrwt beam="1">  1        1 0.21240843E-01 0.89657468E+02</pdfrwt>
<pdfrwt beam="2">  1       -1 0.22393114E-02 0.89657468E+02</pdfrwt>
<totfact> 0.11557534E+05</totfact>
</mgrwt>
</event>
<event>
 5   1  0.1357339E+00  0.9737193E+02  0.7818608E-02  0.1285922E+00
          1   -1    0    0  501    0  0.00000000000E+00  0.00000000000E+00  0.16502166144E+02  0.16502166805E+02  0.46700000000E-02 0. -1.
         -1   -1    0    0    0  501 -0.00000000000E+00 -0.00000000000E+00 -0.14363710297E+03  0.14363710305E+03  0.46700000000E-02 0.  1.
         23    2    1    2    0    0  0.00000000000E+00  0.00000000000E+00 -0.12713493683E+03  0.16013926985E+03  0.97371934286E+02 0.  0.
        -11    1    3    3    0    0  0.11886187523E+02  0.28809586088E+02 -0.20525267043E+01  0.31232780384E+02  0.51100000000E-03 0. -1.
         11    1    3    3    0    0 -0.11886187523E+02 -0.28809586088E+02 -0.12508241012E+03  0.12890648947E+03  0.51100000000E-03 0.  1.
<mgrwt>
<rscale>  0 0.97371934E+02</rscale>
<asrwt>0</asrwt>
<pdfrwt beam="1">  1        1 0.25387949E-02 0.97371934E+02</pdfrwt>
<pdfrwt beam="2">  1       -1 0.22098015E-01 0.97371934E+02</pdfrwt>
<totfact> 0.63675151E+04</totfact>
</mgrwt>
</event>
<event>
 5   1  0.1357339E+00  0.9066973E+02  0.7818608E-02  0.1301238E+00
          1   -1    0    0  501    0  0.00000000000E+00  0.00000000000E+00  0.42129384699E+02  0.42129384958E+02  0.46700000000E-02 0. -1.
         -1   -1    0    0    0  501 -0.00000000000E+00 -0.00000000000E+00 -0.48784239942E+02  0.48784240165E+02  0.46700000000E-02 0.  1.
         23    2    1    2    0    0  0.00000000000E+00  0.00000000000E+00 -0.66548552431E+01  0.90913625123E+02  0.90669731083E+02 0.  0.
        -11    1    3    3    0    0 -0.40731392558E+02  0.17415961246E+02 -0.12991194052E+02  0.46164197913E+02  0.51100000000E-03 0.  1.
         11    1    3    3    0    0  0.40731392558E+02 -0.17415961246E+02  0.63363388084E+01  0.44749427210E+02  0.51100000000E-03 0. -1.
<mgrwt>
<rscale>  0 0.90669731E+02</rscale>
<asrwt>0</asrwt>
<pdfrwt beam="1">  1        1 0.64814438E-02 0.90669731E+02</pdfrwt>
<pdfrwt beam="2">  1       -1 0.75052677E-02 0.90669731E+02</pdfrwt>
<totfact> 0.92825051E+04</totfact>
</mgrwt>
</event>
<event>
 5   1  0.1357339E+00  0.9162951E+02  0.7818608E-02  0.1298953E+00
         -1   -1    0    0    0  501 -0.00000000000E+00  0.00000000000E+00  0.83988043763E+01  0.83988056747E+01  0.46700000000E-02 0.  1.
          1   -1    0    0  501    0  0.00000000000E+00 -0.00000000000E+00 -0.24991552676E+03  0.24991552680E+03  0.46700000000E-02 0. -1.
         23    2    1    2    0    0  0.00000000000E+00  0.00000000000E+00 -0.24151672238E+03  0.25831433248E+03  0.91629510381E+02 0.  0.
        -11    1    3    3    0    0 -0.30712800104E+01 -0.34535951491E+02 -0.36334055842E+02  0.50222786865E+02  0.51100000000E-03 0.  1.
         11    1    3    3    0    0  0.30712800104E+01  0.34535951491E+02 -0.20518266654E+03  0.20809154561E+03  0.51100000000E-03 0. -1.
<mgrwt>
<rscale>  0 0.91629510E+02</rscale>
<asrwt>0</asrwt>
<pdfrwt beam="2">  1        1 0.38448537E-01 0.91629510E+02</pdfrwt>
<pdfrwt beam="1">  1       -1 0.12921240E-02 0.91629510E+02</pdfrwt>
<totfact> 0.12203494E+05</totfact>
</mgrwt>
</event>
<event>
 5   1  0.1357339E+00  0.9175935E+02  0.7818608E-02  0.1298646E+00
          1   -1    0    0  501    0  0.00000000000E+00  0.00000000000E+00  0.80392308901E+02  0.80392309036E+02  0.46700000000E-02 0. -1.
         -1   -1    0    0    0  501 -0.00000000000E+00 -0.00000000000E+00 -0.26183406426E+02  0.26183406842E+02  0.46700000000E-02 0.  1.
         23    2    1    2    0    0  0.00000000000E+00  0.00000000000E+00  0.54208902475E+02  0.10657571588E+03  0.91759348884E+02 0.  0.
        -11    1    3    3    0    0 -0.32297184889E+02  0.32578846204E+02  0.26320863635E+02  0.52889292247E+02  0.51100000000E-03 0.  1.
         11    1    3    3    0    0  0.32297184889E+02 -0.32578846204E+02  0.27888038840E+02  0.53686423631E+02  0.51100000000E-03 0. -1.
<mgrwt>
<rscale>  0 0.91759349E+02</rscale>
<asrwt>0</asrwt>
<pdfrwt beam="1">  1        1 0.12368048E-01 0.91759349E+02</pdfrwt>
<pdfrwt beam="2">  1       -1 0.40282164E-02 0.91759349E+02</pdfrwt>
<totfact> 0.99072797E+04</totfact>
</mgrwt>
</event>
<event>
 4   1  0.1357339E+00  0.5323888E+02  0.7818608E-02  0.1428616E+00
          1   -1    0    0  501    0  0.00000000000E+00  0.00000000000E+00  0.72269602564E+01  0.72269617653E+01  0.46700000000E-02 0.  1.
         -1   -1    0    0    0  501 -0.00000000000E+00 -0.00000000000E+00 -0.98048767739E+02  0.98048767851E+02  0.46700000000E-02 0. -1.
        -11    1    1    2    0    0 -0.25098162406E+02 -0.62904067100E+00 -0.62906471030E+02  0.67731363089E+02  0.51100000000E-03 0. -1.
         11    1    1    2    0    0  0.25098162406E+02  0.62904067100E+00 -0.27915336453E+02  0.37544366526E+02  0.51100000000E-03 0.  1.
<mgrwt>
<rscale>  0 0.53238882E+02</rscale>
<asrwt>0</asrwt>
<pdfrwt beam="1">  1        1 0.11118402E-02 0.53238882E+02</pdfrwt>
<pdfrwt beam="2">  1       -1 0.15084425E-01 0.53238882E+02</pdfrwt>
<totfact> 0.31959663E+05</totfact>
</mgrwt>
</event>
<event>
 5   1  0.1357339E+00  0.9168288E+02  0.7818608E-02  0.1298827E+00
          1   -1    0    0  501    0  0.00000000000E+00  0.00000000000E+00  0.58179060996E+02  0.58179061183E+02  0.46700000000E-02 0. -1.
         -1   -1    0    0    0  501 -0.00000000000E+00 -0.00000000000E+00 -0.36120166745E+02  0.36120167047E+02  0.46700000000E-02 0.  1.
         23    2    1    2    0    0  0.00000000000E+00  0.00000000000E+00  0.22058894251E+02  0.94299228230E+02  0.91682875332E+02 0.  0.
        -11    1    3    3    0    0  0.40002056014E+02 -0.87851394864E+01  0.32210673574E+02  0.52104420672E+02  0.51100000000E-03 0. -1.
         11    1    3    3    0    0 -0.40002056014E+02  0.87851394864E+01 -0.10151779324E+02  0.42194807558E+02  0.51100000000E-03 0.  1.
<mgrwt>
<rscale>  0 0.91682875E+02</rscale>
<asrwt>0</asrwt>
<pdfrwt beam="1">  1        1 0.89506247E-02 0.91682875E+02</pdfrwt>
<pdfrwt beam="2">  1       -1 0.55569488E-02 0.91682875E+02</pdfrwt>
<totfact> 0.94458225E+04</totfact>
</mgrwt>
</event>
<event>
 5   1  0.1357339E+00  0.8923131E+02  0.7818608E-02  0.1304724E+00
         -1   -1    0    0    0  501 -0.00000000000E+00  0.00000000000E+00  0.26971554714E+02  0.26971555118E+02  0.46700000000E-02 0.  1.
          1   -1    0    0  501    0  0.00000000000E+00 -0.00000000000E+00 -0.73802076256E+02  0.73802076404E+02  0.46700000000E-02 0. -1.
         23    2    1    2    0    0  0.00000000000E+00  0.00000000000E+00 -0.46830521542E+02  0.10077363152E+03  0.89231312118E+02 0.  0.
        -11    1    3    3    0    0  0.20028699526E+02 -0.14947002120E+02 -0.65155429369E+02  0.69783892508E+02  0.51100000000E-03 0. -1.
         11    1    3    3    0    0 -0.20028699526E+02  0.14947002120E+02  0.18324907826E+02  0.30989739014E+02  0.51100000000E-03 0.  1.
<mgrwt>
<rscale>  0 0.89231312E+02</rscale>
<asrwt>0</asrwt>
<pdfrwt beam="2">  1        1 0.11354166E-01 0.89231312E+02</pdfrwt>
<pdfrwt beam="1">  1       -1 0.41494700E-02 0.89231312E+02</pdfrwt>
<totfact> 0.10554939E+05</totfact>
</mgrwt>
</event>
<event>
 5   1  0.1357339E+00  0.9028228E+02  0.7818608E-02  0.1302170E+00
         -1   -1    0    0    0  501 -0.00000000000E+00  0.00000000000E+00  0.37021224422E+02  0.37021224717E+02  0.46700000000E-02 0.  1.
          1   -1    0    0  501    0  0.00000000000E+00 -0.00000000000E+00 -0.55042007677E+02  0.55042007876E+02  0.46700000000E-02 0. -1.
         23    2    1    2    0    0  0.00000000000E+00  0.00000000000E+00 -0.18020783255E+02  0.92063232592E+02  0.90282280466E+02 0.  0.
        -11    1    3    3    0    0  0.67097275476E+01 -0.21366250701E+02  0.30956973698E+02  0.38208262634E+02  0.51100000000E-03 0.  1.
         11    1    3    3    0    0 -0.67097275476E+01  0.21366250701E+02 -0.48977756953E+02  0.53854969958E+02  0.51100000000E-03 0. -1.
<mgrwt>
<rscale>  0 0.90282280E+02</rscale>
<asrwt>0</asrwt>
<pdfrwt beam="2">  1        1 0.84680012E-02 0.90282280E+02</pdfrwt>
<pdfrwt beam="1">  1       -1 0.56955730E-02 0.90282280E+02</pdfrwt>
<totfact> 0.97768955E+04</totfact>
</mgrwt>
</event>
<event>
 5   1  0.1357339E+00  0.8387355E+02  0.7818608E-02  0.1318405E+00
         -1   -1    0    0    0  501 -0.00000000000E+00  0.00000000000E+00  0.46215842339E+02  0.46215842575E+02  0.46700000000E-02 0.  1.
          1   -1    0    0  501    0  0.00000000000E+00 -0.00000000000E+00 -0.38053903385E+02  0.38053903672E+02  0.46700000000E-02 0. -1.
         23    2    1    2    0    0  0.00000000000E+00  0.00000000000E+00  0.81619389534E+01  0.84269746246E+02  0.83873552953E+02 0.  0.
        -11    1    3    3    0    0 -0.93989155249E+01 -0.25019978454E+02 -0.28388154573E+02  0.38990078933E+02  0.51100000000E-03 0. -1.
         11    1    3    3    0    0  0.93989155249E+01  0.25019978454E+02  0.36550093527E+02  0.45279667313E+02  0.51100000000E-03 0.  1.
<mgrwt>
<rscale>  0 0.83873553E+02</rscale>
<asrwt>0</asrwt>
<pdfrwt beam="2">  1        1 0.58544467E-02 0.83873553E+02</pdfrwt>
<pdfrwt beam="1">  1       -1 0.71101296E-02 0.83873553E+02</pdfrwt>
<totfact> 0.11376407E+05</totfact>
</mgrwt>
</event>
<event>
 5   1  0.1357339E+00  0.9146609E+02  0.7818608E-02  0.1299340E+00
          1   -1    0    0  501    0  0.00000000000E+00  0.00000000000E+00  0.18982820247E+02  0.18982820821E+02  0.46700000000E-02 0. -1.
         -1   -1    0    0    0  501 -0.00000000000E+00 -0.00000000000E+00 -0.11017915863E+03  0.11017915872E+03  0.46700000000E-02 0.  1.
         23    2    1    2    0    0  0.00000000000E+00  0.00000000000E+00 -0.91196338378E+02  0.12916197955E+03  0.91466085663E+02 0.  0.
        -11    1    3    3    0    0 -0.11598671522E+02  0.44225151188E+02 -0.44105027977E+02  0.63526739817E+02  0.51100000000E-03 0. -1.
         11    1    3    3    0    0  0.11598671522E+02 -0.44225151188E+02 -0.47091310401E+02  0.65635239728E+02  0.51100000000E-03 0.  1.
<mgrwt>
<rscale>  0 0.91466086E+02</rscale>
<asrwt>0</asrwt>
<pdfrwt beam="1">  1        1 0.29204340E-02 0.91466086E+02</pdfrwt>
<pdfrwt beam="2">  1       -1 0.16950639E-01 0.91466086E+02</pdfrwt>
<totfact> 0.79231016E+04</totfact>
</mgrwt>
</event>
<event>
 5   1  0.1357339E+00  0.9136793E+02  0.7818608E-02  0.1299572E+00
          1   -1    0    0  501    0  0.00000000000E+00  0.00000000000E+00  0.73682988063E+02  0.73682988211E+02  0.46700000000E-02 0. -1.
         -1   -1    0    0    0  501 -0.00000000000E+00 -0.00000000000E+00 -0.28324378302E+02  0.28324378687E+02  0.46700000000E-02 0.  1.
         23    2    1    2    0    0  0.00000000000E+00  0.00000000000E+00  0.45358609761E+02  0.10200736690E+03  0.91367934320E+02 0.  0.
        -11    1    3    3    0    0 -0.40841355267E+02 -0.31149439460E+01  0.92145498178E-01  0.40960074059E+02  0.51100000000E-03 0.  1.
         11    1    3    3    0    0  0.40841355267E+02  0.31149439460E+01  0.45266464263E+02  0.61047292839E+02  0.51100000000E-03 0. -1.
<mgrwt>
<rscale>  0 0.91367934E+02</rscale>
<asrwt>0</asrwt>
<pdfrwt beam="1">  1        1 0.11335844E-01 0.91367934E+02</pdfrwt>
<pdfrwt beam="2">  1       -1 0.43575967E-02 0.91367934E+02</pdfrwt>
<totfact> 0.98881998E+04</totfact>
</mgrwt>
</event>
<event>
 5   1  0.1357339E+00  0.8995485E+02  0.7818608E-02  0.1302961E+00
         -1   -1    0    0    0  501 -0.00000000000E+00  0.00000000000E+00  0.34415436841E+02  0.34415437158E+02  0.46700000000E-02 0.  1.
          1   -1    0    0  501    0  0.00000000000E+00 -0.00000000000E+00 -0.58780858011E+02  0.58780858197E+02  0.46700000000E-02 0. -1.
         23    2    1    2    0    0  0.00000000000E+00  0.00000000000E+00 -0.24365421170E+02  0.93196295355E+02  0.89954853783E+02 0.  0.
        -11    1    3    3    0    0  0.30881643331E+02 -0.14515793631E+01 -0.46027677739E+02  0.55446641881E+02  0.51100000000E-03 0. -1.
         11    1    3    3    0    0 -0.30881643331E+02  0.14515793631E+01  0.21662256570E+02  0.37749653474E+02  0.51100000000E-03 0.  1.
<mgrwt>
<rscale>  0 0.89954854E+02</rscale>
<asrwt>0</asrwt>
<pdfrwt beam="2">  1        1 0.90432089E-02 0.89954854E+02</pdfrwt>
<pdfrwt beam="1">  1       -1 0.52946826E-02 0.89954854E+02</pdfrwt>
<totfact> 0.99732767E+04</totfact>
</mgrwt>
</event>
<event>
 5   1  0.1357339E+00  0.9127028E+02  0.7818608E-02  0.1299804E+00
          1   -1    0    0  501    0  0.00000000000E+00  0.00000000000E+00  0.66403220275E+02  0.66403220440E+02  0.46700000000E-02 0. -1.
         -1   -1    0    0    0  501 -0.00000000000E+00 -0.00000000000E+00 -0.31362426186E+02  0.31362426533E+02  0.46700000000E-02 0.  1.
         23    2    1    2    0    0  0.00000000000E+00  0.00000000000E+00  0.35040794090E+02  0.97765646973E+02  0.91270282555E+02 0.  0.
        -11    1    3    3    0    0  0.31899947831E+02 -0.30876707830E+02  0.28835703828E+02  0.52938413025E+02  0.51100000000E-03 0.  1.
         11    1    3    3    0    0 -0.31899947831E+02  0.30876707830E+02  0.62050902621E+01  0.44827233949E+02  0.51100000000E-03 0. -1.
<mgrwt>
<rscale>  0 0.91270283E+02</rscale>
<asrwt>0</asrwt>
<pdfrwt beam="1">  1        1 0.10215880E-01 0.91270283E+02</pdfrwt>
<pdfrwt beam="2">  1       -1 0.48249887E-02 0.91270283E+02</pdfrwt>
<totfact> 0.97593142E+04</totfact>
</mgrwt>
</event>
<event>
 5   1  0.1357339E+00  0.9303396E+02  0.7818608E-02  0.1295666E+00
          1   -1    0    0  501    0  0.00000000000E+00  0.00000000000E+00  0.52726508641E+02  0.52726508848E+02  0.46700000000E-02 0. -1.
         -1   -1    0    0    0  501 -0.00000000000E+00 -0.00000000000E+00 -0.41038739622E+02  0.41038739887E+02  0.46700000000E-02 0.  1.
         23    2    1    2    0    0  0.00000000000E+00  0.00000000000E+00  0.11687769020E+02  0.93765248736E+02  0.93033961142E+02 0.  0.
        -11    1    3    3    0    0  0.24536943398E+02 -0.30174863092E+01 -0.33869687654E+02  0.41932356922E+02  0.51100000000E-03 0.  1.
         11    1    3    3    0    0 -0.24536943398E+02  0.30174863092E+01  0.45557456674E+02  0.51832891814E+02  0.51100000000E-03 0. -1.
<mgrwt>
<rscale>  0 0.93033961E+02</rscale>
<asrwt>0</asrwt>
<pdfrwt beam="1">  1        1 0.81117706E-02 0.93033961E+02</pdfrwt>
<pdfrwt beam="2">  1       -1 0.63136523E-02 0.93033961E+02</pdfrwt>
<totfact> 0.89333488E+04</totfact>
</mgrwt>
</event>
<event>
 5   1  0.1357339E+00  0.9216763E+02  0.7818608E-02  0.1297686E+00
          1   -1    0    0  501    0  0.00000000000E+00  0.00000000000E+00  0.30629848274E+02  0.30629848630E+02  0.46700000000E-02 0. -1.
         -1   -1    0    0    0  501 -0.00000000000E+00 -0.00000000000E+00 -0.69334920690E+02  0.69334920847E+02  0.46700000000E-02 0.  1.
         23    2    1    2    0    0  0.00000000000E+00  0.00000000000E+00 -0.38705072416E+02  0.99964769477E+02  0.92167632637E+02 0.  0.
        -11    1    3    3    0    0  0.69462630711E+00 -0.31704038733E+02  0.16914062777E+02  0.35940424282E+02  0.51100000000E-03 0. -1.
         11    1    3    3    0    0 -0.69462630711E+00  0.31704038733E+02 -0.55619135193E+02  0.64024345195E+02  0.51100000000E-03 0.  1.
<mgrwt>
<rscale>  0 0.92167633E+02</rscale>
<asrwt>0</asrwt>
<pdfrwt beam="1">  1        1 0.47122844E-02 0.92167633E+02</pdfrwt>
<pdfrwt beam="2">  1       -1 0.10666911E-01 0.92167633E+02</pdfrwt>
<totfact> 0.84315413E+04</totfact>
</mgrwt>
</event>
<event>
 5   1  0.1357339E+00  0.9380761E+02  0.7818608E-02  0.1293884E+00
          1   -1    0    0  501    0  0.00000000000E+00  0.00000000000E+00  0.90892894587E+02  0.90892894707E+02  0.46700000000E-02 0. -1.
         -1   -1    0    0    0  501 -0.00000000000E+00 -0.00000000000E+00 -0.24203949723E+02  0.24203950173E+02  0.46700000000E-02 0.  1.
         23    2    1    2    0    0  0.00000000000E+00  0.00000000000E+00  0.66688944864E+02  0.11509684488E+03  0.93807613414E+02 0.  0.
        -11    1    3    3    0    0 -0.32375248395E+02  0.33184408485E+02  0.24616290345E+02  0.52491174741E+02  0.51100000000E-03 0.  1.
         11    1    3    3    0    0  0.32375248395E+02 -0.33184408485E+02  0.42072654519E+02  0.62605670140E+02  0.51100000000E-03 0. -1.
<mgrwt>
<rscale>  0 0.93807613E+02</rscale>
<asrwt>0</asrwt>
<pdfrwt beam="1">  1        1 0.13983522E-01 0.93807613E+02</pdfrwt>
<pdfrwt beam="2">  1       -1 0.37236847E-02 0.93807613E+02</pdfrwt>
<totfact> 0.95111604E+04</totfact>
</mgrwt>
</event>
<event>
 5   1  0.1357339E+00  0.9128044E+02  0.7818608E-02  0.1299780E+00
          1   -1    0    0  501    0  0.00000000000E+00  0.00000000000E+00  0.54559231042E+02  0.54559231241E+02  0.46700000000E-02 0. -1.
         -1   -1    0    0    0  501 -0.00000000000E+00 -0.00000000000E+00 -0.38179235912E+02  0.38179236198E+02  0.46700000000E-02 0.  1.
         23    2    1    2    0    0  0.00000000000E+00  0.00000000000E+00  0.16379995129E+02  0.92738467439E+02  0.91280442059E+02 0.  0.
        -11    1    3    3    0    0 -0.30679476216E+02 -0.17956956666E+02 -0.20891460208E+02  0.41232701385E+02  0.51100000000E-03 0.  1.
         11    1    3    3    0    0  0.30679476216E+02  0.17956956666E+02  0.37271455338E+02  0.51505766054E+02  0.51100000000E-03 0. -1.
<mgrwt>
<rscale>  0 0.91280442E+02</rscale>
<asrwt>0</asrwt>
<pdfrwt beam="1">  1        1 0.83937279E-02 0.91280442E+02</pdfrwt>
<pdfrwt beam="2">  1       -1 0.58737287E-02 0.91280442E+02</pdfrwt>
<totfact> 0.94699974E+04</totfact>
</mgrwt>
</event>
<event>
 5   1  0.1357339E+00  0.9107612E+02  0.7818608E-02  0.1300266E+00
          1   -1    0    0  501    0  0.00000000000E+00  0.00000000000E+00  0.34416481487E+02  0.34416481804E+02  0.46700000000E-02 0. -1.
         -1   -1    0    0    0  501 -0.00000000000E+00 -0.00000000000E+00 -0.60253535642E+02  0.60253535823E+02  0.46700000000E-02 0.  1.
         23    2    1    2    0    0  0.00000000000E+00  0.00000000000E+00 -0.25837054155E+02  0.94670017627E+02  0.91076115805E+02 0.  0.
        -11    1    3    3    0    0 -0.18932927968E+02 -0.23109797273E+02  0.22806205184E+02  0.37585123208E+02  0.51100000000E-03 0. -1.
         11    1    3    3    0    0  0.18932927968E+02  0.23109797273E+02 -0.48643259339E+02  0.57084894419E+02  0.51100000000E-03 0.  1.
<mgrwt>
<rscale>  0 0.91076116E+02</rscale>
<asrwt>0</asrwt>
<pdfrwt beam="1">  1        1 0.52948433E-02 0.91076116E+02</pdfrwt>
<pdfrwt beam="2">  1       -1 0.92697748E-02 0.91076116E+02</pdfrwt>
<totfact> 0.88871328E+04</totfact>
</mgrwt>
</event>
<event>
 5   1  0.1357339E+00  0.8961607E+02  0.7818608E-02  0.1303784E+00
          1   -1    0    0  501    0  0.00000000000E+00  0.00000000000E+00  0.13339591345E+03  0.13339591353E+03  0.46700000000E-02 0. -1.
         -1   -1    0    0    0  501 -0.00000000000E+00 -0.00000000000E+00 -0.15051134782E+02  0.15051135507E+02  0.46700000000E-02 0.  1.
         23    2    1    2    0    0  0.00000000000E+00  0.00000000000E+00  0.11834477867E+03  0.14844704904E+03  0.89616068483E+02 0.  0.
        -11    1    3    3    0    0  0.40737713931E+02  0.14174838966E+02  0.79274727041E+02  0.90249486114E+02  0.51100000000E-03 0. -1.
         11    1    3    3    0    0 -0.40737713931E+02 -0.14174838966E+02  0.39070051625E+02  0.58197562924E+02  0.51100000000E-03 0.  1.
<mgrwt>
<rscale>  0 0.89616068E+02</rscale>
<asrwt>0</asrwt>
<pdfrwt beam="1">  1        1 0.20522448E-01 0.89616068E+02</pdfrwt>
<pdfrwt beam="2">  1       -1 0.23155593E-02 0.89616068E+02</pdfrwt>
<totfact> 0.11501023E+05</totfact>
</mgrwt>
</event>
<event>
 5   1  0.1357339E+00  0.8988371E+02  0.7818608E-02  0.1303134E+00
          1   -1    0    0  501    0  0.00000000000E+00  0.00000000000E+00  0.16221726750E+03  0.16221726757E+03  0.46700000000E-02 0. -1.
         -1   -1    0    0    0  501 -0.00000000000E+00 -0.00000000000E+00 -0.12451017969E+02  0.12451018844E+02  0.46700000000E-02 0.  1.
         23    2    1    2    0    0  0.00000000000E+00  0.00000000000E+00  0.14976624953E+03  0.17466828641E+03  0.89883706973E+02 0.  0.
        -11    1    3    3    0    0  0.38686256937E+02 -0.52016336029E+01  0.11816557994E+03  0.12444592300E+03  0.51100000000E-03 0. -1.
         11    1    3    3    0    0 -0.38686256937E+02  0.52016336029E+01  0.31600669591E+02  0.50222363413E+02  0.51100000000E-03 0.  1.
<mgrwt>
<rscale>  0 0.89883707E+02</rscale>
<asrwt>0</asrwt>
<pdfrwt beam="1">  1        1 0.24956501E-01 0.89883707E+02</pdfrwt>
<pdfrwt beam="2">  1       -1 0.19155414E-02 0.89883707E+02</pdfrwt>
<totfact> 0.11822636E+05</totfact>
</mgrwt>
</event>
<event>
 5   1  0.1357339E+00  0.9529053E+02  0.7818608E-02  0.1290523E+00
         -1   -1    0    0    0  501 -0.00000000000E+00  0.00000000000E+00  0.12194188064E+02  0.12194188958E+02  0.46700000000E-02 0.  1.
          1   -1    0    0  501    0  0.00000000000E+00 -0.00000000000E+00 -0.18616010075E+03  0.18616010081E+03  0.46700000000E-02 0. -1.
         23    2    1    2    0    0  0.00000000000E+00  0.00000000000E+00 -0.17396591269E+03  0.19835428977E+03  0.95290532017E+02 0.  0.
        -11    1    3    3    0    0  0.33493522284E+02  0.33875060927E+02 -0.88768244272E+02  0.10074292521E+03  0.51100000000E-03 0. -1.
         11    1    3    3    0    0 -0.33493522284E+02 -0.33875060927E+02 -0.85197668419E+02  0.97611364564E+02  0.51100000000E-03 0.  1.
<mgrwt>
<rscale>  0 0.95290532E+02</rscale>
<asrwt>0</asrwt>
<pdfrwt beam="2">  1        1 0.28640014E-01 0.95290532E+02</pdfrwt>
<pdfrwt beam="1">  1       -1 0.18760291E-02 0.95290532E+02</pdfrwt>
<totfact> 0.10368797E+05</totfact>
</mgrwt>
</event>
<event>
 5   1  0.1357339E+00  0.9143747E+02  0.7818608E-02  0.1299408E+00
         -1   -1    0    0    0  501 -0.00000000000E+00  0.00000000000E+00  0.33081812490E+03  0.33081812494E+03  0.46700000000E-02 0.  1.
          1   -1    0    0  501    0  0.00000000000E+00 -0.00000000000E+00 -0.63182820641E+01  0.63182837899E+01  0.46700000000E-02 0. -1.
         23    2    1    2    0    0  0.00000000000E+00  0.00000000000E+00  0.32449984284E+03  0.33713640873E+03  0.91437465440E+02 0.  0.
        -11    1    3    3    0    0 -0.24900025799E+02  0.38343031779E+02  0.16204296985E+03  0.16836900976E+03  0.51100000000E-03 0.  1.
         11    1    3    3    0    0  0.24900025799E+02 -0.38343031779E+02  0.16245687299E+03  0.16876739896E+03  0.51100000000E-03 0. -1.
<mgrwt>
<rscale>  0 0.91437465E+02</rscale>
<asrwt>0</asrwt>
<pdfrwt beam="2">  1        1 0.97204324E-03 0.91437465E+02</pdfrwt>
<pdfrwt beam="1">  1       -1 0.50895111E-01 0.91437465E+02</pdfrwt>
<totfact> 0.57771320E+04</totfact>
</mgrwt>
</event>
<event>
 5   1  0.1357339E+00  0.9109856E+02  0.7818608E-02  0.1300213E+00
         -1   -1    0    0    0  501 -0.00000000000E+00  0.00000000000E+00  0.19820686019E+03  0.19820686025E+03  0.46700000000E-02 0.  1.
          1   -1    0    0  501    0  0.00000000000E+00 -0.00000000000E+00 -0.10467531920E+02  0.10467532962E+02  0.46700000000E-02 0. -1.
         23    2    1    2    0    0  0.00000000000E+00  0.00000000000E+00  0.18773932827E+03  0.20867439321E+03  0.91098556526E+02 0.  0.
        -11    1    3    3    0    0  0.36085633484E+02 -0.27719059222E+02  0.98573892483E+02  0.10856947761E+03  0.51100000000E-03 0.  1.
         11    1    3    3    0    0 -0.36085633484E+02  0.27719059222E+02  0.89165435787E+02  0.10010491560E+03  0.51100000000E-03 0. -1.
<mgrwt>
<rscale>  0 0.91098557E+02</rscale>
<asrwt>0</asrwt>
<pdfrwt beam="2">  1        1 0.16103895E-02 0.91098557E+02</pdfrwt>
<pdfrwt beam="1">  1       -1 0.30493365E-01 0.91098557E+02</pdfrwt>
<totfact> 0.69759150E+04</totfact>
</mgrwt>
</event>
<event>
 5   1  0.1357339E+00  0.9154177E+02  0.7818608E-02  0.1299160E+00
         -1   -1    0    0    0  501 -0.00000000000E+00  0.00000000000E+00  0.91177491075E+01  0.91177503034E+01  0.46700000000E-02 0.  1.
          1   -1    0    0  501    0  0.00000000000E+00 -0.00000000000E+00 -0.22976874340E+03  0.22976874345E+03  0.46700000000E-02 0. -1.
         23    2    1    2    0    0  0.00000000000E+00  0.00000000000E+00 -0.22065099430E+03  0.23888649375E+03  0.91541769780E+02 0.  0.
        -11    1    3    3    0    0  0.18532810356E+02  0.41170982754E+02 -0.90717241069E+02  0.10133179515E+03  0.51100000000E-03 0.  1.
         11    1    3    3    0    0 -0.18532810356E+02 -0.41170982754E+02 -0.12993375323E+03  0.13755469861E+03  0.51100000000E-03 0. -1.
<mgrwt>
<rscale>  0 0.91541770E+02</rscale>
<asrwt>0</asrwt>
<pdfrwt beam="2">  1        1 0.35349033E-01 0.91541770E+02</pdfrwt>
<pdfrwt beam="1">  1       -1 0.14027309E-02 0.91541770E+02</pdfrwt>
<totfact> 0.12035667E+05</totfact>
</mgrwt>
</event>
<event>
 5   1  0.1357339E+00  0.9170205E+02  0.7818608E-02  0.1298781E+00
          1   -1    0    0  501    0  0.00000000000E+00  0.00000000000E+00  0.14521830184E+03  0.14521830191E+03  0.46700000000E-02 0. -1.
         -1   -1    0    0    0  501 -0.00000000000E+00 -0.00000000000E+00 -0.14476939777E+02  0.14476940530E+02  0.46700000000E-02 0.  1.
         23    2    1    2    0    0  0.00000000000E+00  0.00000000000E+00  0.13074136206E+03  0.15969524244E+03  0.91702053987E+02 0.  0.
        -11    1    3    3    0    0  0.87133526206E+01  0.29682384629E+02  0.64344901164E+01  0.31596979831E+02  0.51100000000E-03 0.  1.
         11    1    3    3    0    0 -0.87133526206E+01 -0.29682384629E+02  0.12430687195E+03  0.12809826261E+03  0.51100000000E-03 0. -1.
<mgrwt>
<rscale>  0 0.91702054E+02</rscale>
<asrwt>0</asrwt>
<pdfrwt beam="1">  1        1 0.22341277E-01 0.91702054E+02</pdfrwt>
<pdfrwt beam="2">  1       -1 0.22272215E-02 0.91702054E+02</pdfrwt>
<totfact> 0.10975187E+05</totfact>
</mgrwt>
</event>
<event>
 5   1  0.1357339E+00  0.8919202E+02  0.7818608E-02  0.1304820E+00
         -1   -1    0    0    0  501 -0.00000000000E+00  0.00000000000E+00  0.10498416690E+02  0.10498417728E+02  0.46700000000E-02 0.  1.
          1   -1    0    0  501    0  0.00000000000E+00 -0.00000000000E+00 -0.18943845033E+03  0.18943845038E+03  0.46700000000E-02 0. -1.
         23    2    1    2    0    0  0.00000000000E+00  0.00000000000E+00 -0.17894003364E+03  0.19993686811E+03  0.89192015296E+02 0.  0.
        -11    1    3    3    0    0  0.22930818348E+02  0.17605577230E+02 -0.16558782813E+03  0.16809255666E+03  0.51100000000E-03 0. -1.
         11    1    3    3    0    0 -0.22930818348E+02 -0.17605577230E+02 -0.13352205508E+02  0.31844311453E+02  0.51100000000E-03 0.  1.
<mgrwt>
<rscale>  0 0.89192015E+02</rscale>
<asrwt>0</asrwt>
<pdfrwt beam="2">  1        1 0.29144375E-01 0.89192015E+02</pdfrwt>
<pdfrwt beam="1">  1       -1 0.16151412E-02 0.89192015E+02</pdfrwt>
<totfact> 0.12428819E+05</totfact>
</mgrwt>
</event>
<event>
 5   1  0.1357339E+00  0.9403298E+02  0.7818608E-02  0.1293369E+00
         -1   -1    0    0    0  501 -0.00000000000E+00  0.00000000000E+00  0.73403665859E+02  0.73403666007E+02  0.46700000000E-02 0.  1.
          1   -1    0    0  501    0  0.00000000000E+00 -0.00000000000E+00 -0.30114984796E+02  0.30114985158E+02  0.46700000000E-02 0. -1.
         23    2    1    2    0    0  0.00000000000E+00  0.00000000000E+00  0.43288681062E+02  0.10351865117E+03  0.94032979486E+02 0.  0.
        -11    1    3    3    0    0 -0.29955115012E+02 -0.17349076906E+02  0.56669691679E+02  0.66405973678E+02  0.51100000000E-03 0.  1.
         11    1    3    3    0    0  0.29955115012E+02  0.17349076906E+02 -0.13381010617E+02  0.37112677487E+02  0.51100000000E-03 0. -1.
<mgrwt>
<rscale>  0 0.94032979E+02</rscale>
<asrwt>0</asrwt>
<pdfrwt beam="2">  1        1 0.46330746E-02 0.94032979E+02</pdfrwt>
<pdfrwt beam="1">  1       -1 0.11292872E-01 0.94032979E+02</pdfrwt>
<totfact> 0.79361529E+04</totfact>
</mgrwt>
</event>
<event>
 5   1  0.1357339E+00  0.1066446E+03  0.7818608E-02  0.1266913E+00
          1   -1    0    0  501    0  0.00000000000E+00  0.00000000000E+00  0.23969775925E+02  0.23969776380E+02  0.46700000000E-02 0. -1.
         -1   -1    0    0    0  501 -0.00000000000E+00 -0.00000000000E+00 -0.11861875597E+03  0.11861875606E+03  0.46700000000E-02 0.  1.
         23    2    1    2    0    0  0.00000000000E+00  0.00000000000E+00 -0.94648980042E+02  0.14258853244E+03  0.10664455054E+03 0.  0.
        -11    1    3    3    0    0  0.42313699618E+02  0.29549387464E+02 -0.29403623064E+02  0.59398556585E+02  0.51100000000E-03 0. -1.
         11    1    3    3    0    0 -0.42313699618E+02 -0.29549387464E+02 -0.65245356978E+02  0.83189975853E+02  0.51100000000E-03 0.  1.
<mgrwt>
<rscale>  0 0.10664455E+03</rscale>
<asrwt>0</asrwt>
<pdfrwt beam="1">  1        1 0.36876579E-02 0.10664455E+03</pdfrwt>
<pdfrwt beam="2">  1       -1 0.18249039E-01 0.10664455E+03</pdfrwt>
<totfact> 0.52434440E+04</totfact>
</mgrwt>
</event>
<event>
 5   1  0.1357339E+00  0.9103922E+02  0.7818608E-02  0.1300354E+00
         -1   -1    0    0    0  501 -0.00000000000E+00  0.00000000000E+00  0.20740132592E+03  0.20740132598E+03  0.46700000000E-02 0.  1.
          1   -1    0    0  501    0  0.00000000000E+00 -0.00000000000E+00 -0.99904615100E+01  0.99904626014E+01  0.46700000000E-02 0. -1.
         23    2    1    2    0    0  0.00000000000E+00  0.00000000000E+00  0.19741086441E+03  0.21739178858E+03  0.91039224252E+02 0.  0.
        -11    1    3    3    0    0  0.22368277293E+02 -0.33160896311E+02  0.46824390572E+02  0.61583345361E+02  0.51100000000E-03 0.  1.
         11    1    3    3    0    0 -0.22368277293E+02  0.33160896311E+02  0.15058647384E+03  0.15580844322E+03  0.51100000000E-03 0. -1.
<mgrwt>
<rscale>  0 0.91039224E+02</rscale>
<asrwt>0</asrwt>
<pdfrwt beam="2">  1        1 0.15369943E-02 0.91039224E+02</pdfrwt>
<pdfrwt beam="1">  1       -1 0.31907894E-01 0.91039224E+02</pdfrwt>
<totfact> 0.68968301E+04</totfact>
</mgrwt>
</event>
<event>
 5   1  0.1357339E+00  0.8780260E+02  0.7818608E-02  0.1308262E+00
         -1   -1    0    0    0  501 -0.00000000000E+00  0.00000000000E+00  0.94283735579E+01  0.94283747145E+01  0.46700000000E-02 0.  1.
          1   -1    0    0  501    0  0.00000000000E+00 -0.00000000000E+00 -0.20441745677E+03  0.20441745683E+03  0.46700000000E-02 0. -1.
         23    2    1    2    0    0  0.00000000000E+00  0.00000000000E+00 -0.19498908322E+03  0.21384583154E+03  0.87802603004E+02 0.  0.
        -11    1    3    3    0    0 -0.34383972309E+02  0.45319598357E+01 -0.31937249987E+02  0.47146411832E+02  0.51100000000E-03 0.  1.
         11    1    3    3    0    0  0.34383972309E+02 -0.45319598357E+01 -0.16305183323E+03  0.16669941971E+03  0.51100000000E-03 0. -1.
<mgrwt>
<rscale>  0 0.87802603E+02</rscale>
<asrwt>0</asrwt>
<pdfrwt beam="2">  1        1 0.31448836E-01 0.87802603E+02</pdfrwt>
<pdfrwt beam="1">  1       -1 0.14505193E-02 0.87802603E+02</pdfrwt>
<totfact> 0.13152266E+05</totfact>
</mgrwt>
</event>
<event>
 5   1  0.1357339E+00  0.9165007E+02  0.7818608E-02  0.1298904E+00
          1   -1    0    0  501    0  0.00000000000E+00  0.00000000000E+00  0.76746508362E+02  0.76746508504E+02  0.46700000000E-02 0. -1.
         -1   -1    0    0    0  501 -0.00000000000E+00 -0.00000000000E+00 -0.27361947430E+02  0.27361947829E+02  0.46700000000E-02 0.  1.
         23    2    1    2    0    0  0.00000000000E+00  0.00000000000E+00  0.49384560932E+02  0.10410845633E+03  0.91650072676E+02 0.  0.
        -11    1    3    3    0    0  0.17886016331E+02  0.38965633723E+02  0.43068584914E+02  0.60771154329E+02  0.51100000000E-03 0. -1.
         11    1    3    3    0    0 -0.17886016331E+02 -0.38965633723E+02  0.63159760177E+01  0.43337302004E+02  0.51100000000E-03 0.  1.
<mgrwt>
<rscale>  0 0.91650073E+02</rscale>
<asrwt>0</asrwt>
<pdfrwt beam="1">  1        1 0.11807155E-01 0.91650073E+02</pdfrwt>
<pdfrwt beam="2">  1       -1 0.42095303E-02 0.91650073E+02</pdfrwt>
<totfact> 0.98672826E+04</totfact>
</mgrwt>
</event>
<event>
 5   1  0.1357339E+00  0.8219234E+02  0.7818608E-02  0.1322943E+00
         -1   -1    0    0    0  501 -0.00000000000E+00  0.00000000000E+00  0.43613840143E+02  0.43613840393E+02  0.46700000000E-02 0.  1.
          1   -1    0    0  501    0  0.00000000000E+00 -0.00000000000E+00 -0.38723835405E+02  0.38723835687E+02  0.46700000000E-02 0. -1.
         23    2    1    2    0    0  0.00000000000E+00  0.00000000000E+00  0.48900047377E+01  0.82337676080E+02  0.82192340007E+02 0.  0.
        -11    1    3    3    0    0 -0.11933511362E+02  0.59299287966E+01 -0.36499470119E+02  0.38855939935E+02  0.51100000000E-03 0. -1.
         11    1    3    3    0    0  0.11933511362E+02 -0.59299287966E+01  0.41389474857E+02  0.43481736145E+02  0.51100000000E-03 0.  1.
<mgrwt>
<rscale>  0 0.82192340E+02</rscale>
<asrwt>0</asrwt>
<pdfrwt beam="2">  1        1 0.59575132E-02 0.82192340E+02</pdfrwt>
<pdfrwt beam="1">  1       -1 0.67098216E-02 0.82192340E+02</pdfrwt>
<totfact> 0.12065745E+05</totfact>
</mgrwt>
</event>
<event>
 5   1  0.1357339E+00  0.8726617E+02  0.7818608E-02  0.1309610E+00
         -1   -1    0    0    0  501 -0.00000000000E+00  0.00000000000E+00  0.34123157356E+02  0.34123157676E+02  0.46700000000E-02 0.  1.
          1   -1    0    0  501    0  0.00000000000E+00 -0.00000000000E+00 -0.55793376188E+02  0.55793376383E+02  0.46700000000E-02 0. -1.
         23    2    1    2    0    0  0.00000000000E+00  0.00000000000E+00 -0.21670218832E+02  0.89916534059E+02  0.87266171642E+02 0.  0.
        -11    1    3    3    0    0 -0.13677248021E+02  0.38569947190E+02  0.47619389586E+01  0.41199320414E+02  0.51100000000E-03 0. -1.
         11    1    3    3    0    0  0.13677248021E+02 -0.38569947190E+02 -0.26432157790E+02  0.48717213645E+02  0.51100000000E-03 0.  1.
<mgrwt>
<rscale>  0 0.87266172E+02</rscale>
<asrwt>0</asrwt>
<pdfrwt beam="2">  1        1 0.85835964E-02 0.87266172E+02</pdfrwt>
<pdfrwt beam="1">  1       -1 0.52497166E-02 0.87266172E+02</pdfrwt>
<totfact> 0.10762841E+05</totfact>
</mgrwt>
</event>
<event>
 5   1  0.1357339E+00  0.9097320E+02  0.7818608E-02  0.1300512E+00
         -1   -1    0    0    0  501 -0.00000000000E+00  0.00000000000E+00  0.67560566418E+01  0.67560582558E+01  0.46700000000E-02 0.  1.
          1   -1    0    0  501    0  0.00000000000E+00 -0.00000000000E+00 -0.30624824492E+03  0.30624824496E+03  0.46700000000E-02 0. -1.
         23    2    1    2    0    0  0.00000000000E+00  0.00000000000E+00 -0.29949218828E+03  0.31300430321E+03  0.90973199291E+02 0.  0.
        -11    1    3    3    0    0 -0.25484974211E+01 -0.40182193911E+02 -0.76927790373E+02  0.86827348679E+02  0.51100000000E-03 0.  1.
         11    1    3    3    0    0  0.25484974211E+01  0.40182193911E+02 -0.22256439791E+03  0.22617695453E+03  0.51100000000E-03 0. -1.
<mgrwt>
<rscale>  0 0.90973199E+02</rscale>
<asrwt>0</asrwt>
<pdfrwt beam="2">  1        1 0.47115104E-01 0.90973199E+02</pdfrwt>
<pdfrwt beam="1">  1       -1 0.10393937E-02 0.90973199E+02</pdfrwt>
<totfact> 0.12939331E+05</totfact>
</mgrwt>
</event>
<event>
 5   1  0.1357339E+00  0.9092074E+02  0.7818608E-02  0.1300637E+00
         -1   -1    0    0    0  501 -0.00000000000E+00  0.00000000000E+00  0.36140789327E+02  0.36140789628E+02  0.46700000000E-02 0.  1.
          1   -1    0    0  501    0  0.00000000000E+00 -0.00000000000E+00 -0.57183176095E+02  0.57183176286E+02  0.46700000000E-02 0. -1.
         23    2    1    2    0    0  0.00000000000E+00  0.00000000000E+00 -0.21042386768E+02  0.93323965914E+02  0.90920737860E+02 0.  0.
        -11    1    3    3    0    0 -0.13971418174E+02 -0.40878308029E+02 -0.25051954318E+02  0.49938332056E+02  0.51100000000E-03 0. -1.
         11    1    3    3    0    0  0.13971418174E+02  0.40878308029E+02  0.40095675498E+01  0.43385633858E+02  0.51100000000E-03 0.  1.
<mgrwt>
<rscale>  0 0.90920738E+02</rscale>
<asrwt>0</asrwt>
<pdfrwt beam="2">  1        1 0.87974117E-02 0.90920738E+02</pdfrwt>
<pdfrwt beam="1">  1       -1 0.55601215E-02 0.90920738E+02</pdfrwt>
<totfact> 0.96424763E+04</totfact>
</mgrwt>
</event>
<event>
 5   1  0.1357339E+00  0.8682033E+02  0.7818608E-02  0.1310740E+00
         -1   -1    0    0    0  501 -0.00000000000E+00  0.00000000000E+00  0.68340646294E+02  0.68340646453E+02  0.46700000000E-02 0.  1.
          1   -1    0    0  501    0  0.00000000000E+00 -0.00000000000E+00 -0.27574254630E+02  0.27574255026E+02  0.46700000000E-02 0. -1.
         23    2    1    2    0    0  0.00000000000E+00  0.00000000000E+00  0.40766391664E+02  0.95914901479E+02  0.86820329627E+02 0.  0.
        -11    1    3    3    0    0  0.22702856567E+02 -0.35882905951E+02  0.10413476502E+02  0.43720054082E+02  0.51100000000E-03 0. -1.
         11    1    3    3    0    0 -0.22702856567E+02  0.35882905951E+02  0.30352915162E+02  0.52194847398E+02  0.51100000000E-03 0.  1.
<mgrwt>
<rscale>  0 0.86820330E+02</rscale>
<asrwt>0</asrwt>
<pdfrwt beam="2">  1        1 0.42421931E-02 0.86820330E+02</pdfrwt>
<pdfrwt beam="1">  1       -1 0.10513946E-01 0.86820330E+02</pdfrwt>
<totfact> 0.98398531E+04</totfact>
</mgrwt>
</event>
<event>
 4   1  0.1357339E+00  0.3821237E+02  0.7818608E-02  0.1521794E+00
         -1   -1    0    0    0  501 -0.00000000000E+00  0.00000000000E+00  0.57274009578E+02  0.57274009769E+02  0.46700000000E-02 0.  1.
          1   -1    0    0  501    0  0.00000000000E+00 -0.00000000000E+00 -0.63736791224E+01  0.63736808333E+01  0.46700000000E-02 0. -1.
        -11    1    1    2    0    0 -0.13192384334E+02 -0.11137750599E+01  0.25051287416E+01  0.13474240965E+02  0.51100000000E-03 0. -1.
         11    1    1    2    0    0  0.13192384334E+02  0.11137750599E+01  0.48395201714E+02  0.50173449637E+02  0.51100000000E-03 0.  1.
<mgrwt>
<rscale>  0 0.38212366E+02</rscale>
<asrwt>0</asrwt>
<pdfrwt beam="2">  1        1 0.98056618E-03 0.38212366E+02</pdfrwt>
<pdfrwt beam="1">  1       -1 0.88113861E-02 0.38212366E+02</pdfrwt>
<totfact> 0.77377086E+05</totfact>
</mgrwt>
</event>
<event>
 5   1  0.1357339E+00  0.9294866E+02  0.7818608E-02  0.1295864E+00
         -1   -1    0    0    0  501 -0.00000000000E+00  0.00000000000E+00  0.35044351724E+02  0.35044352035E+02  0.46700000000E-02 0. -1.
          1   -1    0    0  501    0  0.00000000000E+00 -0.00000000000E+00 -0.61632280989E+02  0.61632281166E+02  0.46700000000E-02 0.  1.
         23    2    1    2    0    0  0.00000000000E+00  0.00000000000E+00 -0.26587929266E+02  0.96676633201E+02  0.92948660154E+02 0.  0.
        -11    1    3    3    0    0 -0.45525670595E+02  0.61092586332E+01 -0.20645226904E+02  0.50360054789E+02  0.51100000000E-03 0. -1.
         11    1    3    3    0    0  0.45525670595E+02 -0.61092586332E+01 -0.59427023621E+01  0.46316578412E+02  0.51100000000E-03 0.  1.
<mgrwt>
<rscale>  0 0.92948660E+02</rscale>
<asrwt>0</asrwt>
<pdfrwt beam="2">  1        1 0.94818894E-02 0.92948660E+02</pdfrwt>
<pdfrwt beam="1">  1       -1 0.53914387E-02 0.92948660E+02</pdfrwt>
<totfact> 0.91727169E+04</totfact>
</mgrwt>
</event>
<event>
 5   1  0.1357339E+00  0.9281503E+02  0.7818608E-02  0.1296174E+00
          1   -1    0    0  501    0  0.00000000000E+00  0.00000000000E+00  0.51982715454E+02  0.51982715664E+02  0.46700000000E-02 0. -1.
         -1   -1    0    0    0  501 -0.00000000000E+00 -0.00000000000E+00 -0.41430259270E+02  0.41430259533E+02  0.46700000000E-02 0.  1.
         23    2    1    2    0    0  0.00000000000E+00  0.00000000000E+00  0.10552456184E+02  0.93412975197E+02  0.92815028975E+02 0.  0.
        -11    1    3    3    0    0  0.30006507322E+01 -0.46306458158E+02  0.46678266651E+01  0.46637759144E+02  0.51100000000E-03 0.  1.
         11    1    3    3    0    0 -0.30006507322E+01  0.46306458158E+02  0.58846295193E+01  0.46775216053E+02  0.51100000000E-03 0. -1.
<mgrwt>
<rscale>  0 0.92815029E+02</rscale>
<asrwt>0</asrwt>
<pdfrwt beam="1">  1        1 0.79973409E-02 0.92815029E+02</pdfrwt>
<pdfrwt beam="2">  1       -1 0.63738861E-02 0.92815029E+02</pdfrwt>
<totfact> 0.89730248E+04</totfact>
</mgrwt>
</event>
<event>
 5   1  0.1357339E+00  0.8723801E+02  0.7818608E-02  0.1309682E+00
         -1   -1    0    0    0  501 -0.00000000000E+00  0.00000000000E+00  0.98492874011E+02  0.98492874122E+02  0.46700000000E-02 0.  1.
          1   -1    0    0  501    0  0.00000000000E+00 -0.00000000000E+00 -0.19317311185E+02  0.19317311750E+02  0.46700000000E-02 0. -1.
         23    2    1    2    0    0  0.00000000000E+00  0.00000000000E+00  0.79175562825E+02  0.11781018587E+03  0.87238008611E+02 0.  0.
        -11    1    3    3    0    0  0.17346960037E+02  0.14296032548E+02  0.90068514360E+02  0.92831195449E+02  0.51100000000E-03 0.  1.
         11    1    3    3    0    0 -0.17346960037E+02 -0.14296032548E+02 -0.10892951535E+02  0.24978990423E+02  0.51100000000E-03 0. -1.
<mgrwt>
<rscale>  0 0.87238009E+02</rscale>
<asrwt>0</asrwt>
<pdfrwt beam="2">  1        1 0.29718941E-02 0.87238009E+02</pdfrwt>
<pdfrwt beam="1">  1       -1 0.15152750E-01 0.87238009E+02</pdfrwt>
<totfact> 0.91407414E+04</totfact>
</mgrwt>
</event>
<event>
 5   1  0.1357339E+00  0.9040866E+02  0.7818608E-02  0.1301865E+00
         -1   -1    0    0    0  501 -0.00000000000E+00  0.00000000000E+00  0.97161766237E+02  0.97161766350E+02  0.46700000000E-02 0.  1.
          1   -1    0    0  501    0  0.00000000000E+00 -0.00000000000E+00 -0.21031231638E+02  0.21031232157E+02  0.46700000000E-02 0. -1.
         23    2    1    2    0    0  0.00000000000E+00  0.00000000000E+00  0.76130534599E+02  0.11819299851E+03  0.90408664395E+02 0.  0.
        -11    1    3    3    0    0  0.15972867305E+02 -0.40246394476E+02  0.21093920756E+02  0.48164906845E+02  0.51100000000E-03 0.  1.
         11    1    3    3    0    0 -0.15972867305E+02  0.40246394476E+02  0.55036613843E+02  0.70028091662E+02  0.51100000000E-03 0. -1.
<mgrwt>
<rscale>  0 0.90408664E+02</rscale>
<asrwt>0</asrwt>
<pdfrwt beam="2">  1        1 0.32355742E-02 0.90408664E+02</pdfrwt>
<pdfrwt beam="1">  1       -1 0.14947964E-01 0.90408664E+02</pdfrwt>
<totfact> 0.83603701E+04</totfact>
</mgrwt>
</event>
<event>
 5   1  0.1357339E+00  0.9192413E+02  0.7818608E-02  0.1298258E+00
          1   -1    0    0  501    0  0.00000000000E+00  0.00000000000E+00  0.15674875275E+03  0.15674875282E+03  0.46700000000E-02 0. -1.
         -1   -1    0    0    0  501 -0.00000000000E+00 -0.00000000000E+00 -0.13477053614E+02  0.13477054423E+02  0.46700000000E-02 0.  1.
         23    2    1    2    0    0  0.00000000000E+00  0.00000000000E+00  0.14327169914E+03  0.17022580725E+03  0.91924130012E+02 0.  0.
        -11    1    3    3    0    0  0.28187661557E+02  0.29411373406E+02  0.32225037621E+02  0.51942527852E+02  0.51100000000E-03 0.  1.
         11    1    3    3    0    0 -0.28187661557E+02 -0.29411373406E+02  0.11104666152E+03  0.11828327939E+03  0.51100000000E-03 0. -1.
<mgrwt>
<rscale>  0 0.91924130E+02</rscale>
<asrwt>0</asrwt>
<pdfrwt beam="1">  1        1 0.24115193E-01 0.91924130E+02</pdfrwt>
<pdfrwt beam="2">  1       -1 0.20733929E-02 0.91924130E+02</pdfrwt>
<totfact> 0.11058480E+05</totfact>
</mgrwt>
</event>
<event>
 5   1  0.1357339E+00  0.8888052E+02  0.7818608E-02  0.1305586E+00
          1   -1    0    0  501    0  0.00000000000E+00  0.00000000000E+00  0.33110553836E+02  0.33110554165E+02  0.46700000000E-02 0. -1.
         -1   -1    0    0    0  501 -0.00000000000E+00 -0.00000000000E+00 -0.59646748089E+02  0.59646748272E+02  0.46700000000E-02 0.  1.
         23    2    1    2    0    0  0.00000000000E+00  0.00000000000E+00 -0.26536194253E+02  0.92757302437E+02  0.88880524019E+02 0.  0.
        -11    1    3    3    0    0  0.86243852125E+01 -0.33217617673E+02 -0.42733381820E+02  0.54808138685E+02  0.51100000000E-03 0.  1.
         11    1    3    3    0    0 -0.86243852125E+01  0.33217617673E+02  0.16197187566E+02  0.37949163752E+02  0.51100000000E-03 0. -1.
<mgrwt>
<rscale>  0 0.88880524E+02</rscale>
<asrwt>0</asrwt>
<pdfrwt beam="1">  1        1 0.50939314E-02 0.88880524E+02</pdfrwt>
<pdfrwt beam="2">  1       -1 0.91764228E-02 0.88880524E+02</pdfrwt>
<totfact> 0.94684705E+04</totfact>
</mgrwt>
</event>
<event>
 5   1  0.1357339E+00  0.8830676E+02  0.7818608E-02  0.1307005E+00
         -1   -1    0    0    0  501 -0.00000000000E+00  0.00000000000E+00  0.18634205498E+02  0.18634206084E+02  0.46700000000E-02 0. -1.
          1   -1    0    0  501    0  0.00000000000E+00 -0.00000000000E+00 -0.10462056270E+03  0.10462056280E+03  0.46700000000E-02 0.  1.
         23    2    1    2    0    0  0.00000000000E+00  0.00000000000E+00 -0.85986357202E+02  0.12325476889E+03  0.88306763211E+02 0.  0.
        -11    1    3    3    0    0 -0.15701502438E+02  0.60328341182E+01 -0.99973382629E+02  0.10137854556E+03  0.51100000000E-03 0.  1.
         11    1    3    3    0    0  0.15701502438E+02 -0.60328341182E+01  0.13987025427E+02  0.21876223323E+02  0.51100000000E-03 0. -1.
<mgrwt>
<rscale>  0 0.88306763E+02</rscale>
<asrwt>0</asrwt>
<pdfrwt beam="2">  1        1 0.16095471E-01 0.88306763E+02</pdfrwt>
<pdfrwt beam="1">  1       -1 0.28668010E-02 0.88306763E+02</pdfrwt>
<totfact> 0.11479002E+05</totfact>
</mgrwt>
</event>
<event>
 5   1  0.1357339E+00  0.9413163E+02  0.7818608E-02  0.1293144E+00
         -1   -1    0    0    0  501 -0.00000000000E+00  0.00000000000E+00  0.16307525335E+02  0.16307526004E+02  0.46700000000E-02 0.  1.
          1   -1    0    0  501    0  0.00000000000E+00 -0.00000000000E+00 -0.13583857647E+03  0.13583857655E+03  0.46700000000E-02 0. -1.
         23    2    1    2    0    0  0.00000000000E+00  0.00000000000E+00 -0.11953105113E+03  0.15214610255E+03  0.94131633030E+02 0.  0.
        -11    1    3    3    0    0  0.33923332587E+02  0.32623274000E+02 -0.59204258605E+02  0.75632101237E+02  0.51100000000E-03 0.  1.
         11    1    3    3    0    0 -0.33923332587E+02 -0.32623274000E+02 -0.60326792529E+02  0.76514001316E+02  0.51100000000E-03 0. -1.
<mgrwt>
<rscale>  0 0.94131633E+02</rscale>
<asrwt>0</asrwt>
<pdfrwt beam="2">  1        1 0.20898242E-01 0.94131633E+02</pdfrwt>
<pdfrwt beam="1">  1       -1 0.25088502E-02 0.94131633E+02</pdfrwt>
<totfact> 0.10100603E+05</totfact>
</mgrwt>
</event>
<event>
 5   1  0.1357339E+00  0.9279443E+02  0.7818608E-02  0.1296222E+00
         -1   -1    0    0    0  501 -0.00000000000E+00  0.00000000000E+00  0.44579793300E+02  0.44579793545E+02  0.46700000000E-02 0.  1.
          1   -1    0    0  501    0  0.00000000000E+00 -0.00000000000E+00 -0.48288731145E+02  0.48288731371E+02  0.46700000000E-02 0. -1.
         23    2    1    2    0    0  0.00000000000E+00  0.00000000000E+00 -0.37089378450E+01  0.92868524916E+02  0.92794432484E+02 0.  0.
        -11    1    3    3    0    0  0.22393899048E+02 -0.49573448400E+01 -0.42218293511E+02  0.48046293194E+02  0.51100000000E-03 0. -1.
         11    1    3    3    0    0 -0.22393899048E+02  0.49573448400E+01  0.38509355666E+02  0.44822231722E+02  0.51100000000E-03 0.  1.
<mgrwt>
<rscale>  0 0.92794432E+02</rscale>
<asrwt>0</asrwt>
<pdfrwt beam="2">  1        1 0.74290356E-02 0.92794432E+02</pdfrwt>
<pdfrwt beam="1">  1       -1 0.68584298E-02 0.92794432E+02</pdfrwt>
<totfact> 0.88783746E+04</totfact>
</mgrwt>
</event>
<event>
 5   1  0.1357339E+00  0.9185803E+02  0.7818608E-02  0.1298414E+00
          1   -1    0    0  501    0  0.00000000000E+00  0.00000000000E+00  0.64803895063E+02  0.64803895232E+02  0.46700000000E-02 0. -1.
         -1   -1    0    0    0  501 -0.00000000000E+00 -0.00000000000E+00 -0.32551659440E+02  0.32551659775E+02  0.46700000000E-02 0.  1.
         23    2    1    2    0    0  0.00000000000E+00  0.00000000000E+00  0.32252235623E+02  0.97355555007E+02  0.91858028436E+02 0.  0.
        -11    1    3    3    0    0  0.42511509673E+02 -0.12385565813E+02  0.31958126361E+01  0.44394187839E+02  0.51100000000E-03 0.  1.
         11    1    3    3    0    0 -0.42511509673E+02  0.12385565813E+02  0.29056422987E+02  0.52961367168E+02  0.51100000000E-03 0. -1.
<mgrwt>
<rscale>  0 0.91858028E+02</rscale>
<asrwt>0</asrwt>
<pdfrwt beam="1">  1        1 0.99698299E-02 0.91858028E+02</pdfrwt>
<pdfrwt beam="2">  1       -1 0.50079477E-02 0.91858028E+02</pdfrwt>
<totfact> 0.95516188E+04</totfact>
</mgrwt>
</event>
<event>
 5   1  0.1357339E+00  0.9113144E+02  0.7818608E-02  0.1300135E+00
         -1   -1    0    0    0  501 -0.00000000000E+00  0.00000000000E+00  0.29607600780E+02  0.29607601148E+02  0.46700000000E-02 0.  1.
          1   -1    0    0  501    0  0.00000000000E+00 -0.00000000000E+00 -0.70125060679E+02  0.70125060834E+02  0.46700000000E-02 0. -1.
         23    2    1    2    0    0  0.00000000000E+00  0.00000000000E+00 -0.40517459899E+02  0.99732661982E+02  0.91131439742E+02 0.  0.
        -11    1    3    3    0    0 -0.51986386349E+00 -0.21535231044E+02  0.23683128564E+02  0.32014481308E+02  0.51100000000E-03 0.  1.
         11    1    3    3    0    0  0.51986386349E+00  0.21535231044E+02 -0.64200588463E+02  0.67718180674E+02  0.51100000000E-03 0. -1.
<mgrwt>
<rscale>  0 0.91131440E+02</rscale>
<asrwt>0</asrwt>
<pdfrwt beam="2">  1        1 0.10788471E-01 0.91131440E+02</pdfrwt>
<pdfrwt beam="1">  1       -1 0.45550156E-02 0.91131440E+02</pdfrwt>
<totfact> 0.98829937E+04</totfact>
</mgrwt>
</event>
<event>
 5   1  0.1357339E+00  0.9356677E+02  0.7818608E-02  0.1294437E+00
          1   -1    0    0  501    0  0.00000000000E+00  0.00000000000E+00  0.23405959247E+02  0.23405959713E+02  0.46700000000E-02 0. -1.
         -1   -1    0    0    0  501 -0.00000000000E+00 -0.00000000000E+00 -0.93509727300E+02  0.93509727416E+02  0.46700000000E-02 0.  1.
         23    2    1    2    0    0  0.00000000000E+00  0.00000000000E+00 -0.70103768052E+02  0.11691568713E+03  0.93566765477E+02 0.  0.
        -11    1    3    3    0    0  0.11456891158E+02 -0.15980854479E+02 -0.88095485311E+02  0.90263295959E+02  0.51100000000E-03 0.  1.
         11    1    3    3    0    0 -0.11456891158E+02  0.15980854479E+02  0.17991717259E+02  0.26652391170E+02  0.51100000000E-03 0. -1.
<mgrwt>
<rscale>  0 0.93566765E+02</rscale>
<asrwt>0</asrwt>
<pdfrwt beam="1">  1        1 0.36009169E-02 0.93566765E+02</pdfrwt>
<pdfrwt beam="2">  1       -1 0.14386112E-01 0.93566765E+02</pdfrwt>
<totfact> 0.77068395E+04</totfact>
</mgrwt>
</event>
<event>
 5   1  0.1357339E+00  0.9904194E+02  0.7818608E-02  0.1282324E+00
          1   -1    0    0  501    0  0.00000000000E+00  0.00000000000E+00  0.31904799705E+03  0.31904799708E+03  0.46700000000E-02 0. -1.
         -1   -1    0    0    0  501 -0.00000000000E+00 -0.00000000000E+00 -0.76863865158E+01  0.76863879345E+01  0.46700000000E-02 0.  1.
         23    2    1    2    0    0  0.00000000000E+00  0.00000000000E+00  0.31136161053E+03  0.32673438502E+03  0.99041939798E+02 0.  0.
        -11    1    3    3    0    0 -0.64942163112E+01 -0.48754139546E+02  0.17468501560E+03  0.18147725931E+03  0.51100000000E-03 0.  1.
         11    1    3    3    0    0  0.64942163112E+01  0.48754139546E+02  0.13667659493E+03  0.14525712571E+03  0.51100000000E-03 0. -1.
<mgrwt>
<rscale>  0 0.99041940E+02</rscale>
<asrwt>0</asrwt>
<pdfrwt beam="1">  1        1 0.49084301E-01 0.99041940E+02</pdfrwt>
<pdfrwt beam="2">  1       -1 0.11825213E-02 0.99041940E+02</pdfrwt>
<totfact> 0.10388403E+05</totfact>
</mgrwt>
</event>
<event>
 5   1  0.1357339E+00  0.9044872E+02  0.7818608E-02  0.1301769E+00
          1   -1    0    0  501    0  0.00000000000E+00  0.00000000000E+00  0.90429859750E+02  0.90429859871E+02  0.46700000000E-02 0. -1.
         -1   -1    0    0    0  501 -0.00000000000E+00 -0.00000000000E+00 -0.22616897858E+02  0.22616898340E+02  0.46700000000E-02 0.  1.
         23    2    1    2    0    0  0.00000000000E+00  0.00000000000E+00  0.67812961893E+02  0.11304675821E+03  0.90448724377E+02 0.  0.
        -11    1    3    3    0    0 -0.34090481536E+02 -0.30478013301E+01  0.70851842840E+02  0.78685663614E+02  0.51100000000E-03 0. -1.
         11    1    3    3    0    0  0.34090481536E+02  0.30478013301E+01 -0.30388809470E+01  0.34361094598E+02  0.51100000000E-03 0.  1.
<mgrwt>
<rscale>  0 0.90448724E+02</rscale>
<asrwt>0</asrwt>
<pdfrwt beam="1">  1        1 0.13912286E-01 0.90448724E+02</pdfrwt>
<pdfrwt beam="2">  1       -1 0.34795228E-02 0.90448724E+02</pdfrwt>
<totfact> 0.10501433E+05</totfact>
</mgrwt>
</event>
<event>
 5   1  0.1357339E+00  0.9044796E+02  0.7818608E-02  0.1301771E+00
          1   -1    0    0  501    0  0.00000000000E+00  0.00000000000E+00  0.25079493033E+03  0.25079493037E+03  0.46700000000E-02 0. -1.
         -1   -1    0    0    0  501 -0.00000000000E+00 -0.00000000000E+00 -0.81549030031E+01  0.81549043403E+01  0.46700000000E-02 0.  1.
         23    2    1    2    0    0  0.00000000000E+00  0.00000000000E+00  0.24264002732E+03  0.25894983471E+03  0.90447963144E+02 0.  0.
        -11    1    3    3    0    0  0.40111126269E+01 -0.42686708988E+02  0.16250743757E+03  0.16806817490E+03  0.51100000000E-03 0. -1.
         11    1    3    3    0    0 -0.40111126269E+01  0.42686708988E+02  0.80132589751E+02  0.90881659807E+02  0.51100000000E-03 0.  1.
<mgrwt>
<rscale>  0 0.90447963E+02</rscale>
<asrwt>0</asrwt>
<pdfrwt beam="1">  1        1 0.38583833E-01 0.90447963E+02</pdfrwt>
<pdfrwt beam="2">  1       -1 0.12546007E-02 0.90447963E+02</pdfrwt>
<totfact> 0.12642601E+05</totfact>
</mgrwt>
</event>
<event>
 5   1  0.1357339E+00  0.8995873E+02  0.7818608E-02  0.1302952E+00
         -1   -1    0    0    0  501 -0.00000000000E+00  0.00000000000E+00  0.39267459638E+02  0.39267459915E+02  0.46700000000E-02 0.  1.
          1   -1    0    0  501    0  0.00000000000E+00 -0.00000000000E+00 -0.51522130369E+02  0.51522130581E+02  0.46700000000E-02 0. -1.
         23    2    1    2    0    0  0.00000000000E+00  0.00000000000E+00 -0.12254670732E+02  0.90789590496E+02  0.89958728246E+02 0.  0.
        -11    1    3    3    0    0  0.13952053519E+02 -0.66616114821E-01  0.37028321759E+02  0.39569696078E+02  0.51100000000E-03 0.  1.
         11    1    3    3    0    0 -0.13952053519E+02  0.66616114821E-01 -0.49282992491E+02  0.51219894418E+02  0.51100000000E-03 0. -1.
<mgrwt>
<rscale>  0 0.89958728E+02</rscale>
<asrwt>0</asrwt>
<pdfrwt beam="2">  1        1 0.79264817E-02 0.89958728E+02</pdfrwt>
<pdfrwt beam="1">  1       -1 0.60411477E-02 0.89958728E+02</pdfrwt>
<totfact> 0.97783523E+04</totfact>
</mgrwt>
</event>
<event>
 5   1  0.1357339E+00  0.9119270E+02  0.7818608E-02  0.1299989E+00
          1   -1    0    0  501    0  0.00000000000E+00  0.00000000000E+00  0.17284374974E+02  0.17284375605E+02  0.46700000000E-02 0. -1.
         -1   -1    0    0    0  501 -0.00000000000E+00 -0.00000000000E+00 -0.12028360357E+03  0.12028360366E+03  0.46700000000E-02 0.  1.
         23    2    1    2    0    0  0.00000000000E+00  0.00000000000E+00 -0.10299922859E+03  0.13756797927E+03  0.91192696132E+02 0.  0.
        -11    1    3    3    0    0 -0.16839639197E+01  0.45097225825E+02 -0.41673061008E+02  0.61426700429E+02  0.51100000000E-03 0.  1.
         11    1    3    3    0    0  0.16839639197E+01 -0.45097225825E+02 -0.61326167587E+02  0.76141278836E+02  0.51100000000E-03 0. -1.
<mgrwt>
<rscale>  0 0.91192696E+02</rscale>
<asrwt>0</asrwt>
<pdfrwt beam="1">  1        1 0.26591347E-02 0.91192696E+02</pdfrwt>
<pdfrwt beam="2">  1       -1 0.18505169E-01 0.91192696E+02</pdfrwt>
<totfact> 0.78457459E+04</totfact>
</mgrwt>
</event>
<event>
 5   1  0.1357339E+00  0.9144154E+02  0.7818608E-02  0.1299398E+00
         -1   -1    0    0    0  501 -0.00000000000E+00  0.00000000000E+00  0.10730882949E+02  0.10730883965E+02  0.46700000000E-02 0.  1.
          1   -1    0    0  501    0  0.00000000000E+00 -0.00000000000E+00 -0.19480117102E+03  0.19480117107E+03  0.46700000000E-02 0. -1.
         23    2    1    2    0    0  0.00000000000E+00  0.00000000000E+00 -0.18407028807E+03  0.20553205504E+03  0.91441537053E+02 0.  0.
        -11    1    3    3    0    0  0.30277972290E+02 -0.34853526175E+01 -0.15432647851E+02  0.34162404904E+02  0.51100000000E-03 0.  1.
         11    1    3    3    0    0 -0.30277972290E+02  0.34853526175E+01 -0.16863764022E+03  0.17136965013E+03  0.51100000000E-03 0. -1.
<mgrwt>
<rscale>  0 0.91441537E+02</rscale>
<asrwt>0</asrwt>
<pdfrwt beam="2">  1        1 0.29969408E-01 0.91441537E+02</pdfrwt>
<pdfrwt beam="1">  1       -1 0.16509053E-02 0.91441537E+02</pdfrwt>
<totfact> 0.11688996E+05</totfact>
</mgrwt>
</event>
<event>
 5   1  0.1357339E+00  0.9061560E+02  0.7818608E-02  0.1301368E+00
          1   -1    0    0  501    0  0.00000000000E+00  0.00000000000E+00  0.13694797041E+03  0.13694797049E+03  0.46700000000E-02 0. -1.
         -1   -1    0    0    0  501 -0.00000000000E+00 -0.00000000000E+00 -0.14989609016E+02  0.14989609744E+02  0.46700000000E-02 0.  1.
         23    2    1    2    0    0  0.00000000000E+00  0.00000000000E+00  0.12195836139E+03  0.15193758023E+03  0.90615596744E+02 0.  0.
        -11    1    3    3    0    0  0.17517243187E+01  0.45016928954E+02  0.52902271511E+02  0.69485557937E+02  0.51100000000E-03 0. -1.
         11    1    3    3    0    0 -0.17517243187E+01 -0.45016928954E+02  0.69056089882E+02  0.82452022296E+02  0.51100000000E-03 0.  1.
<mgrwt>
<rscale>  0 0.90615597E+02</rscale>
<asrwt>0</asrwt>
<pdfrwt beam="1">  1        1 0.21068918E-01 0.90615597E+02</pdfrwt>
<pdfrwt beam="2">  1       -1 0.23060938E-02 0.90615597E+02</pdfrwt>
<totfact> 0.11214512E+05</totfact>
</mgrwt>
</event>
<event>
 5   1  0.1357339E+00  0.9082732E+02  0.7818608E-02  0.1300861E+00
         -1   -1    0    0    0  501 -0.00000000000E+00  0.00000000000E+00  0.10280351879E+03  0.10280351890E+03  0.46700000000E-02 0.  1.
          1   -1    0    0  501    0  0.00000000000E+00 -0.00000000000E+00 -0.20061573705E+02  0.20061574248E+02  0.46700000000E-02 0. -1.
         23    2    1    2    0    0  0.00000000000E+00  0.00000000000E+00  0.82741945090E+02  0.12286509315E+03  0.90827317681E+02 0.  0.
        -11    1    3    3    0    0  0.36950554656E+02 -0.10060676641E+02  0.83509971352E+01  0.39195661205E+02  0.51100000000E-03 0. -1.
         11    1    3    3    0    0 -0.36950554656E+02  0.10060676641E+02  0.74390947955E+02  0.83669431944E+02  0.51100000000E-03 0.  1.
<mgrwt>
<rscale>  0 0.90827318E+02</rscale>
<asrwt>0</asrwt>
<pdfrwt beam="2">  1        1 0.30863960E-02 0.90827318E+02</pdfrwt>
<pdfrwt beam="1">  1       -1 0.15815926E-01 0.90827318E+02</pdfrwt>
<totfact> 0.81755445E+04</totfact>
</mgrwt>
</event>
<event>
 5   1  0.1357339E+00  0.9232414E+02  0.7818608E-02  0.1297319E+00
         -1   -1    0    0    0  501 -0.00000000000E+00  0.00000000000E+00  0.18969395888E+02  0.18969396463E+02  0.46700000000E-02 0.  1.
          1   -1    0    0  501    0  0.00000000000E+00 -0.00000000000E+00 -0.11233549648E+03  0.11233549658E+03  0.46700000000E-02 0. -1.
         23    2    1    2    0    0  0.00000000000E+00  0.00000000000E+00 -0.93366100592E+02  0.13130489304E+03  0.92324136587E+02 0.  0.
        -11    1    3    3    0    0 -0.25769336278E+02 -0.37933404729E+02 -0.54199925989E+02  0.70997421531E+02  0.51100000000E-03 0. -1.
         11    1    3    3    0    0  0.25769336278E+02  0.37933404729E+02 -0.39166174602E+02  0.60307471509E+02  0.51100000000E-03 0.  1.
<mgrwt>
<rscale>  0 0.92324137E+02</rscale>
<asrwt>0</asrwt>
<pdfrwt beam="2">  1        1 0.17282384E-01 0.92324137E+02</pdfrwt>
<pdfrwt beam="1">  1       -1 0.29183687E-02 0.92324137E+02</pdfrwt>
<totfact> 0.10295651E+05</totfact>
</mgrwt>
</event>
<event>
 5   1  0.1357339E+00  0.9117051E+02  0.7818608E-02  0.1300042E+00
          1   -1    0    0  501    0  0.00000000000E+00  0.00000000000E+00  0.14692398046E+03  0.14692398053E+03  0.46700000000E-02 0. -1.
         -1   -1    0    0    0  501 -0.00000000000E+00 -0.00000000000E+00 -0.14143473368E+02  0.14143474139E+02  0.46700000000E-02 0.  1.
         23    2    1    2    0    0  0.00000000000E+00  0.00000000000E+00  0.13278050709E+03  0.16106745467E+03  0.91170509986E+02 0.  0.
        -11    1    3    3    0    0 -0.26325216522E+02  0.11903322389E+02  0.12868379386E+03  0.13188716735E+03  0.51100000000E-03 0. -1.
         11    1    3    3    0    0  0.26325216522E+02 -0.11903322389E+02  0.40967132340E+01  0.29180287326E+02  0.51100000000E-03 0.  1.
<mgrwt>
<rscale>  0 0.91170510E+02</rscale>
<asrwt>0</asrwt>
<pdfrwt beam="1">  1        1 0.22603689E-01 0.91170510E+02</pdfrwt>
<pdfrwt beam="2">  1       -1 0.21759190E-02 0.91170510E+02</pdfrwt>
<totfact> 0.11172828E+05</totfact>
</mgrwt>
</event>
<event>
 5   1  0.1357339E+00  0.9235688E+02  0.7818608E-02  0.1297242E+00
         -1   -1    0    0    0  501 -0.00000000000E+00  0.00000000000E+00  0.24882683322E+02  0.24882683760E+02  0.46700000000E-02 0.  1.
          1   -1    0    0  501    0  0.00000000000E+00 -0.00000000000E+00 -0.85700096966E+02  0.85700097094E+02  0.46700000000E-02 0. -1.
         23    2    1    2    0    0  0.00000000000E+00  0.00000000000E+00 -0.60817413645E+02  0.11058278085E+03  0.92356881817E+02 0.  0.
        -11    1    3    3    0    0 -0.38616685188E+02  0.23937432882E+02 -0.20520709950E+02  0.49853270755E+02  0.51100000000E-03 0.  1.
         11    1    3    3    0    0  0.38616685188E+02 -0.23937432882E+02 -0.40296703695E+02  0.60729510098E+02  0.51100000000E-03 0. -1.
<mgrwt>
<rscale>  0 0.92356882E+02</rscale>
<asrwt>0</asrwt>
<pdfrwt beam="2">  1        1 0.13184630E-01 0.92356882E+02</pdfrwt>
<pdfrwt beam="1">  1       -1 0.38281052E-02 0.92356882E+02</pdfrwt>
<totfact> 0.98322139E+04</totfact>
</mgrwt>
</event>
<event>
 5   1  0.1357339E+00  0.9264797E+02  0.7818608E-02  0.1296563E+00
         -1   -1    0    0    0  501 -0.00000000000E+00  0.00000000000E+00  0.24623374604E+02  0.24623375047E+02  0.46700000000E-02 0.  1.
          1   -1    0    0  501    0  0.00000000000E+00 -0.00000000000E+00 -0.87149360682E+02  0.87149360807E+02  0.46700000000E-02 0. -1.
         23    2    1    2    0    0  0.00000000000E+00  0.00000000000E+00 -0.62525986078E+02  0.11177273585E+03  0.92647965683E+02 0.  0.
        -11    1    3    3    0    0 -0.19245681835E+02  0.84488963695E+01 -0.81065535673E+02  0.83746051808E+02  0.51100000000E-03 0. -1.
         11    1    3    3    0    0  0.19245681835E+02 -0.84488963695E+01  0.18539549595E+02  0.28026684046E+02  0.51100000000E-03 0.  1.
<mgrwt>
<rscale>  0 0.92647966E+02</rscale>
<asrwt>0</asrwt>
<pdfrwt beam="2">  1        1 0.13407594E-01 0.92647966E+02</pdfrwt>
<pdfrwt beam="1">  1       -1 0.37882116E-02 0.92647966E+02</pdfrwt>
<totfact> 0.97741339E+04</totfact>
</mgrwt>
</event>
<event>
 5   1  0.1357339E+00  0.9091098E+02  0.7818608E-02  0.1300661E+00
         -1   -1    0    0    0  501 -0.00000000000E+00  0.00000000000E+00  0.18889887869E+02  0.18889888446E+02  0.46700000000E-02 0.  1.
          1   -1    0    0  501    0  0.00000000000E+00 -0.00000000000E+00 -0.10938134616E+03  0.10938134626E+03  0.46700000000E-02 0. -1.
         23    2    1    2    0    0  0.00000000000E+00  0.00000000000E+00 -0.90491458288E+02  0.12827123470E+03  0.90910976396E+02 0.  0.
        -11    1    3    3    0    0 -0.10325592099E+02  0.38007898793E+02 -0.77264855433E+02  0.86724137979E+02  0.51100000000E-03 0. -1.
         11    1    3    3    0    0  0.10325592099E+02 -0.38007898793E+02 -0.13226602855E+02  0.41547096724E+02  0.51100000000E-03 0.  1.
<mgrwt>
<rscale>  0 0.90910976E+02</rscale>
<asrwt>0</asrwt>
<pdfrwt beam="2">  1        1 0.16827899E-01 0.90910976E+02</pdfrwt>
<pdfrwt beam="1">  1       -1 0.29061367E-02 0.90910976E+02</pdfrwt>
<totfact> 0.10688328E+05</totfact>
</mgrwt>
</event>
<event>
 5   1  0.1357339E+00  0.9151147E+02  0.7818608E-02  0.1299232E+00
          1   -1    0    0  501    0  0.00000000000E+00  0.00000000000E+00  0.15489570104E+02  0.15489570808E+02  0.46700000000E-02 0. -1.
         -1   -1    0    0    0  501 -0.00000000000E+00 -0.00000000000E+00 -0.13516110287E+03  0.13516110296E+03  0.46700000000E-02 0.  1.
         23    2    1    2    0    0  0.00000000000E+00  0.00000000000E+00 -0.11967153277E+03  0.15065067376E+03  0.91511473323E+02 0.  0.
        -11    1    3    3    0    0 -0.40270323151E+02  0.45393385040E+00 -0.24082115783E+02  0.46923909508E+02  0.51100000000E-03 0.  1.
         11    1    3    3    0    0  0.40270323151E+02 -0.45393385040E+00 -0.95589416987E+02  0.10372676426E+03  0.51100000000E-03 0. -1.
<mgrwt>
<rscale>  0 0.91511473E+02</rscale>
<asrwt>0</asrwt>
<pdfrwt beam="1">  1        1 0.23830109E-02 0.91511473E+02</pdfrwt>
<pdfrwt beam="2">  1       -1 0.20794015E-01 0.91511473E+02</pdfrwt>
<totfact> 0.75851111E+04</totfact>
</mgrwt>
</event>
<event>
 5   1  0.1357339E+00  0.9084902E+02  0.7818608E-02  0.1300809E+00
          1   -1    0    0  501    0  0.00000000000E+00  0.00000000000E+00  0.99124577535E+01  0.99124588536E+01  0.46700000000E-02 0. -1.
         -1   -1    0    0    0  501 -0.00000000000E+00 -0.00000000000E+00 -0.20816089985E+03  0.20816089990E+03  0.46700000000E-02 0.  1.
         23    2    1    2    0    0  0.00000000000E+00  0.00000000000E+00 -0.19824844209E+03  0.21807335875E+03  0.90849023139E+02 0.  0.
        -11    1    3    3    0    0 -0.32504964150E+02  0.31639783250E+02 -0.93374454256E+02  0.10380962039E+03  0.51100000000E-03 0.  1.
         11    1    3    3    0    0  0.32504964150E+02 -0.31639783250E+02 -0.10487398784E+03  0.11426373836E+03  0.51100000000E-03 0. -1.
<mgrwt>
<rscale>  0 0.90849023E+02</rscale>
<asrwt>0</asrwt>
<pdfrwt beam="1">  1        1 0.15249937E-02 0.90849023E+02</pdfrwt>
<pdfrwt beam="2">  1       -1 0.32024751E-01 0.90849023E+02</pdfrwt>
<totfact> 0.69270434E+04</totfact>
</mgrwt>
</event>
<event>
 5   1  0.1357339E+00  0.9063124E+02  0.7818608E-02  0.1301330E+00
          1   -1    0    0  501    0  0.00000000000E+00  0.00000000000E+00  0.77585489351E+01  0.77585503405E+01  0.46700000000E-02 0. -1.
         -1   -1    0    0    0  501 -0.00000000000E+00 -0.00000000000E+00 -0.26467644884E+03  0.26467644888E+03  0.46700000000E-02 0.  1.
         23    2    1    2    0    0  0.00000000000E+00  0.00000000000E+00 -0.25691789990E+03  0.27243499922E+03  0.90631239147E+02 0.  0.
        -11    1    3    3    0    0  0.19442815443E+02 -0.31743940334E+02 -0.50778868725E+02  0.62961848206E+02  0.51100000000E-03 0. -1.
         11    1    3    3    0    0 -0.19442815443E+02  0.31743940334E+02 -0.20613903118E+03  0.20947315101E+03  0.51100000000E-03 0.  1.
<mgrwt>
<rscale>  0 0.90631239E+02</rscale>
<asrwt>0</asrwt>
<pdfrwt beam="1">  1        1 0.11936232E-02 0.90631239E+02</pdfrwt>
<pdfrwt beam="2">  1       -1 0.40719447E-01 0.90631239E+02</pdfrwt>
<totfact> 0.64497635E+04</totfact>
</mgrwt>
</event>
<event>
 5   1  0.1357339E+00  0.8605122E+02  0.7818608E-02  0.1312706E+00
         -1   -1    0    0    0  501 -0.00000000000E+00  0.00000000000E+00  0.13960614023E+02  0.13960614804E+02  0.46700000000E-02 0.  1.
          1   -1    0    0  501    0  0.00000000000E+00 -0.00000000000E+00 -0.13260184985E+03  0.13260184993E+03  0.46700000000E-02 0. -1.
         23    2    1    2    0    0  0.00000000000E+00  0.00000000000E+00 -0.11864123583E+03  0.14656246473E+03  0.86051224458E+02 0.  0.
        -11    1    3    3    0    0  0.31965709032E+02 -0.82507311825E+01 -0.12325802392E+02  0.35239275302E+02  0.51100000000E-03 0.  1.
         11    1    3    3    0    0 -0.31965709032E+02  0.82507311825E+01 -0.10631543343E+03  0.11132318943E+03  0.51100000000E-03 0. -1.
<mgrwt>
<rscale>  0 0.86051224E+02</rscale>
<asrwt>0</asrwt>
<pdfrwt beam="2">  1        1 0.20400284E-01 0.86051224E+02</pdfrwt>
<pdfrwt beam="1">  1       -1 0.21477869E-02 0.86051224E+02</pdfrwt>
<totfact> 0.12815080E+05</totfact>
</mgrwt>
</event>
<event>
 5   1  0.1357339E+00  0.8754429E+02  0.7818608E-02  0.1308910E+00
         -1   -1    0    0    0  501 -0.00000000000E+00  0.00000000000E+00  0.33573598424E+02  0.33573598749E+02  0.46700000000E-02 0.  1.
          1   -1    0    0  501    0  0.00000000000E+00 -0.00000000000E+00 -0.57068673758E+02  0.57068673949E+02  0.46700000000E-02 0. -1.
         23    2    1    2    0    0  0.00000000000E+00  0.00000000000E+00 -0.23495075334E+02  0.90642272697E+02  0.87544291846E+02 0.  0.
        -11    1    3    3    0    0 -0.33910475695E+02  0.26295249600E+02 -0.28023495031E+01  0.43002484537E+02  0.51100000000E-03 0.  1.
         11    1    3    3    0    0  0.33910475695E+02 -0.26295249600E+02 -0.20692725831E+02  0.47639788160E+02  0.51100000000E-03 0. -1.
<mgrwt>
<rscale>  0 0.87544292E+02</rscale>
<asrwt>0</asrwt>
<pdfrwt beam="2">  1        1 0.87797960E-02 0.87544292E+02</pdfrwt>
<pdfrwt beam="1">  1       -1 0.51651691E-02 0.87544292E+02</pdfrwt>
<totfact> 0.10703952E+05</totfact>
</mgrwt>
</event>
<event>
 5   1  0.1357339E+00  0.9172748E+02  0.7818608E-02  0.1298721E+00
         -1   -1    0    0    0  501 -0.00000000000E+00  0.00000000000E+00  0.14868775698E+03  0.14868775706E+03  0.46700000000E-02 0.  1.
          1   -1    0    0  501    0  0.00000000000E+00 -0.00000000000E+00 -0.14146980056E+02  0.14146980826E+02  0.46700000000E-02 0. -1.
         23    2    1    2    0    0  0.00000000000E+00  0.00000000000E+00  0.13454077693E+03  0.16283473788E+03  0.91727483369E+02 0.  0.
        -11    1    3    3    0    0  0.23178944943E+02  0.19851906919E+02  0.12804662782E+03  0.13163320475E+03  0.51100000000E-03 0.  1.
         11    1    3    3    0    0 -0.23178944943E+02 -0.19851906919E+02  0.64941491110E+01  0.31201533134E+02  0.51100000000E-03 0. -1.
<mgrwt>
<rscale>  0 0.91727483E+02</rscale>
<asrwt>0</asrwt>
<pdfrwt beam="2">  1        1 0.21764584E-02 0.91727483E+02</pdfrwt>
<pdfrwt beam="1">  1       -1 0.22875041E-01 0.91727483E+02</pdfrwt>
<totfact> 0.73778908E+04</totfact>
</mgrwt>
</event>
<event>
 5   1  0.1357339E+00  0.9256685E+02  0.7818608E-02  0.1296752E+00
         -1   -1    0    0    0  501 -0.00000000000E+00  0.00000000000E+00  0.60392604475E+02  0.60392604655E+02  0.46700000000E-02 0.  1.
          1   -1    0    0  501    0  0.00000000000E+00 -0.00000000000E+00 -0.35470495596E+02  0.35470495903E+02  0.46700000000E-02 0. -1.
         23    2    1    2    0    0  0.00000000000E+00  0.00000000000E+00  0.24922108879E+02  0.95863100559E+02  0.92566854423E+02 0.  0.
        -11    1    3    3    0    0 -0.16758642958E+02  0.11802788404E+01  0.57123446983E+02  0.59542702050E+02  0.51100000000E-03 0.  1.
         11    1    3    3    0    0  0.16758642958E+02 -0.11802788404E+01 -0.32201338103E+02  0.36320398509E+02  0.51100000000E-03 0. -1.
<mgrwt>
<rscale>  0 0.92566854E+02</rscale>
<asrwt>0</asrwt>
<pdfrwt beam="2">  1        1 0.54569994E-02 0.92566854E+02</pdfrwt>
<pdfrwt beam="1">  1       -1 0.92911698E-02 0.92566854E+02</pdfrwt>
<totfact> 0.85252058E+04</totfact>
</mgrwt>
</event>
<event>
 5   1  0.1357339E+00  0.8973485E+02  0.7818608E-02  0.1303495E+00
         -1   -1    0    0    0  501 -0.00000000000E+00  0.00000000000E+00  0.66804522948E+02  0.66804523112E+02  0.46700000000E-02 0.  1.
          1   -1    0    0  501    0  0.00000000000E+00 -0.00000000000E+00 -0.30133971726E+02  0.30133972088E+02  0.46700000000E-02 0. -1.
         23    2    1    2    0    0  0.00000000000E+00  0.00000000000E+00  0.36670551222E+02  0.96938495200E+02  0.89734845654E+02 0.  0.
        -11    1    3    3    0    0 -0.20479317073E+01 -0.30740550779E+02 -0.16900807735E+02  0.35139903085E+02  0.51100000000E-03 0. -1.
         11    1    3    3    0    0  0.20479317073E+01  0.30740550779E+02  0.53571358957E+02  0.61798592114E+02  0.51100000000E-03 0.  1.
<mgrwt>
<rscale>  0 0.89734846E+02</rscale>
<asrwt>0</asrwt>
<pdfrwt beam="2">  1        1 0.46359958E-02 0.89734846E+02</pdfrwt>
<pdfrwt beam="1">  1       -1 0.10277619E-01 0.89734846E+02</pdfrwt>
<totfact> 0.90798659E+04</totfact>
</mgrwt>
</event>
<event>
 5   1  0.1357339E+00  0.8404931E+02  0.7818608E-02  0.1317938E+00
          1   -1    0    0  501    0  0.00000000000E+00  0.00000000000E+00  0.27486392646E+02  0.27486393043E+02  0.46700000000E-02 0. -1.
         -1   -1    0    0    0  501 -0.00000000000E+00 -0.00000000000E+00 -0.64252583150E+02  0.64252583320E+02  0.46700000000E-02 0.  1.
         23    2    1    2    0    0  0.00000000000E+00  0.00000000000E+00 -0.36766190504E+02  0.91738976362E+02  0.84049313024E+02 0.  0.
        -11    1    3    3    0    0 -0.35556228644E+02 -0.66020751615E+00  0.60572741631E+01  0.36074531735E+02  0.51100000000E-03 0. -1.
         11    1    3    3    0    0  0.35556228644E+02  0.66020751615E+00 -0.42823464667E+02  0.55664444627E+02  0.51100000000E-03 0.  1.
<mgrwt>
<rscale>  0 0.84049313E+02</rscale>
<asrwt>0</asrwt>
<pdfrwt beam="1">  1        1 0.42286758E-02 0.84049313E+02</pdfrwt>
<pdfrwt beam="2">  1       -1 0.98850129E-02 0.84049313E+02</pdfrwt>
<totfact> 0.10786965E+05</totfact>
</mgrwt>
</event>
<event>
 5   1  0.1357339E+00  0.8132776E+02  0.7818608E-02  0.1325325E+00
          1   -1    0    0  501    0  0.00000000000E+00  0.00000000000E+00  0.43596898478E+02  0.43596898728E+02  0.46700000000E-02 0. -1.
         -1   -1    0    0    0  501 -0.00000000000E+00 -0.00000000000E+00 -0.37928182903E+02  0.37928183191E+02  0.46700000000E-02 0.  1.
         23    2    1    2    0    0  0.00000000000E+00  0.00000000000E+00  0.56687155748E+01  0.81525081919E+02  0.81327760609E+02 0.  0.
        -11    1    3    3    0    0  0.18066384584E+02  0.12816292966E+02 -0.31349693386E+02  0.38385607889E+02  0.51100000000E-03 0.  1.
         11    1    3    3    0    0 -0.18066384584E+02 -0.12816292966E+02  0.37018408961E+02  0.43139474030E+02  0.51100000000E-03 0. -1.
<mgrwt>
<rscale>  0 0.81327761E+02</rscale>
<asrwt>0</asrwt>
<pdfrwt beam="1">  1        1 0.67072152E-02 0.81327761E+02</pdfrwt>
<pdfrwt beam="2">  1       -1 0.58351051E-02 0.81327761E+02</pdfrwt>
<totfact> 0.12628252E+05</totfact>
</mgrwt>
</event>
<event>
 5   1  0.1357339E+00  0.8692327E+02  0.7818608E-02  0.1310478E+00
         -1   -1    0    0    0  501 -0.00000000000E+00  0.00000000000E+00  0.67290440852E+01  0.67290457057E+01  0.46700000000E-02 0.  1.
          1   -1    0    0  501    0  0.00000000000E+00 -0.00000000000E+00 -0.28071052068E+03  0.28071052072E+03  0.46700000000E-02 0. -1.
         23    2    1    2    0    0  0.00000000000E+00  0.00000000000E+00 -0.27398147659E+03  0.28743956642E+03  0.86923269780E+02 0.  0.
        -11    1    3    3    0    0  0.22017387687E+02 -0.36844066905E+02 -0.15957974824E+03  0.16525116240E+03  0.51100000000E-03 0.  1.
         11    1    3    3    0    0 -0.22017387687E+02  0.36844066905E+02 -0.11440172836E+03  0.12218840402E+03  0.51100000000E-03 0. -1.
<mgrwt>
<rscale>  0 0.86923270E+02</rscale>
<asrwt>0</asrwt>
<pdfrwt beam="2">  1        1 0.43186225E-01 0.86923270E+02</pdfrwt>
<pdfrwt beam="1">  1       -1 0.10352379E-02 0.86923270E+02</pdfrwt>
<totfact> 0.14362909E+05</totfact>
</mgrwt>
</event>
<event>
 5   1  0.1357339E+00  0.9153212E+02  0.7818608E-02  0.1299183E+00
         -1   -1    0    0    0  501 -0.00000000000E+00  0.00000000000E+00  0.23441371876E+02  0.23441372341E+02  0.46700000000E-02 0.  1.
          1   -1    0    0  501    0  0.00000000000E+00 -0.00000000000E+00 -0.89351947900E+02  0.89351948023E+02  0.46700000000E-02 0. -1.
         23    2    1    2    0    0  0.00000000000E+00  0.00000000000E+00 -0.65910576025E+02  0.11279332036E+03  0.91532120519E+02 0.  0.
        -11    1    3    3    0    0  0.24228965858E+00 -0.42430410259E+02 -0.54089320136E+02  0.68746294243E+02  0.51100000000E-03 0. -1.
         11    1    3    3    0    0 -0.24228965858E+00  0.42430410259E+02 -0.11821255888E+02  0.44047026121E+02  0.51100000000E-03 0.  1.
<mgrwt>
<rscale>  0 0.91532121E+02</rscale>
<asrwt>0</asrwt>
<pdfrwt beam="2">  1        1 0.13746453E-01 0.91532121E+02</pdfrwt>
<pdfrwt beam="1">  1       -1 0.36063650E-02 0.91532121E+02</pdfrwt>
<totfact> 0.10145395E+05</totfact>
</mgrwt>
</event>
<event>
 5   1  0.1357339E+00  0.9026766E+02  0.7818608E-02  0.1302205E+00
         -1   -1    0    0    0  501 -0.00000000000E+00  0.00000000000E+00  0.87603567414E+02  0.87603567539E+02  0.46700000000E-02 0.  1.
          1   -1    0    0  501    0  0.00000000000E+00 -0.00000000000E+00 -0.23253193609E+02  0.23253194078E+02  0.46700000000E-02 0. -1.
         23    2    1    2    0    0  0.00000000000E+00  0.00000000000E+00  0.64350373806E+02  0.11085676162E+03  0.90267663020E+02 0.  0.
        -11    1    3    3    0    0  0.40756034440E+02  0.74819880245E+00  0.55971256716E+02  0.69241575107E+02  0.51100000000E-03 0.  1.
         11    1    3    3    0    0 -0.40756034440E+02 -0.74819880245E+00  0.83791170901E+01  0.41615186509E+02  0.51100000000E-03 0. -1.
<mgrwt>
<rscale>  0 0.90267663E+02</rscale>
<asrwt>0</asrwt>
<pdfrwt beam="2">  1        1 0.35774144E-02 0.90267663E+02</pdfrwt>
<pdfrwt beam="1">  1       -1 0.13477472E-01 0.90267663E+02</pdfrwt>
<totfact> 0.85507164E+04</totfact>
</mgrwt>
</event>
<event>
 5   1  0.1357339E+00  0.9176844E+02  0.7818608E-02  0.1298625E+00
          1   -1    0    0  501    0  0.00000000000E+00  0.00000000000E+00  0.49258748611E+02  0.49258748832E+02  0.46700000000E-02 0. -1.
         -1   -1    0    0    0  501 -0.00000000000E+00 -0.00000000000E+00 -0.42740864565E+02  0.42740864821E+02  0.46700000000E-02 0.  1.
         23    2    1    2    0    0  0.00000000000E+00  0.00000000000E+00  0.65178840455E+01  0.91999613653E+02  0.91768437384E+02 0.  0.
        -11    1    3    3    0    0 -0.38016649829E+02 -0.69848010512E+01  0.28045878504E+02  0.47755883525E+02  0.51100000000E-03 0. -1.
         11    1    3    3    0    0  0.38016649829E+02  0.69848010512E+01 -0.21527994459E+02  0.44243730128E+02  0.51100000000E-03 0.  1.
<mgrwt>
<rscale>  0 0.91768437E+02</rscale>
<asrwt>0</asrwt>
<pdfrwt beam="1">  1        1 0.75782691E-02 0.91768437E+02</pdfrwt>
<pdfrwt beam="2">  1       -1 0.65755177E-02 0.91768437E+02</pdfrwt>
<totfact> 0.91874242E+04</totfact>
</mgrwt>
</event>
<event>
 5   1  0.1357339E+00  0.9387569E+02  0.7818608E-02  0.1293729E+00
          1   -1    0    0  501    0  0.00000000000E+00  0.00000000000E+00  0.17174733314E+03  0.17174733320E+03  0.46700000000E-02 0. -1.
         -1   -1    0    0    0  501 -0.00000000000E+00 -0.00000000000E+00 -0.12827920943E+02  0.12827921793E+02  0.46700000000E-02 0.  1.
         23    2    1    2    0    0  0.00000000000E+00  0.00000000000E+00  0.15891941220E+03  0.18457525500E+03  0.93875690058E+02 0.  0.
        -11    1    3    3    0    0 -0.23192357113E+02 -0.23142510408E+02  0.14554455697E+03  0.14918672622E+03  0.51100000000E-03 0. -1.
         11    1    3    3    0    0  0.23192357113E+02  0.23142510408E+02  0.13374855229E+02  0.35388528778E+02  0.51100000000E-03 0.  1.
<mgrwt>
<rscale>  0 0.93875690E+02</rscale>
<asrwt>0</asrwt>
<pdfrwt beam="1">  1        1 0.26422666E-01 0.93875690E+02</pdfrwt>
<pdfrwt beam="2">  1       -1 0.19735264E-02 0.93875690E+02</pdfrwt>
<totfact> 0.10629901E+05</totfact>
</mgrwt>
</event>
<event>
 5   1  0.1357339E+00  0.9171022E+02  0.7818608E-02  0.1298762E+00
          1   -1    0    0  501    0  0.00000000000E+00  0.00000000000E+00  0.26768998315E+03  0.26768998319E+03  0.46700000000E-02 0. -1.
         -1   -1    0    0    0  501 -0.00000000000E+00 -0.00000000000E+00 -0.78549473493E+01  0.78549487376E+01  0.46700000000E-02 0.  1.
         23    2    1    2    0    0  0.00000000000E+00  0.00000000000E+00  0.25983503580E+03  0.27554493193E+03  0.91710215798E+02 0.  0.
        -11    1    3    3    0    0  0.16014598226E+02 -0.39774702245E+02  0.81081713568E+02  0.91720982171E+02  0.51100000000E-03 0.  1.
         11    1    3    3    0    0 -0.16014598226E+02  0.39774702245E+02  0.17875332223E+03  0.18382394975E+03  0.51100000000E-03 0. -1.
<mgrwt>
<rscale>  0 0.91710216E+02</rscale>
<asrwt>0</asrwt>
<pdfrwt beam="1">  1        1 0.41183074E-01 0.91710216E+02</pdfrwt>
<pdfrwt beam="2">  1       -1 0.12084536E-02 0.91710216E+02</pdfrwt>
<totfact> 0.12339427E+05</totfact>
</mgrwt>
</event>
<event>
 5   1  0.1357339E+00  0.9198860E+02  0.7818608E-02  0.1298106E+00
         -1   -1    0    0    0  501 -0.00000000000E+00  0.00000000000E+00  0.45226110932E+02  0.45226111173E+02  0.46700000000E-02 0.  1.
          1   -1    0    0  501    0  0.00000000000E+00 -0.00000000000E+00 -0.46775539590E+02  0.46775539823E+02  0.46700000000E-02 0. -1.
         23    2    1    2    0    0  0.00000000000E+00  0.00000000000E+00 -0.15494286580E+01  0.92001650995E+02  0.91988602863E+02 0.  0.
        -11    1    3    3    0    0  0.65545872055E+01  0.42381678472E+02  0.15850112629E+02  0.45720841573E+02  0.51100000000E-03 0. -1.
         11    1    3    3    0    0 -0.65545872055E+01 -0.42381678472E+02 -0.17399541287E+02  0.46280809422E+02  0.51100000000E-03 0.  1.
<mgrwt>
<rscale>  0 0.91988603E+02</rscale>
<asrwt>0</asrwt>
<pdfrwt beam="2">  1        1 0.71962369E-02 0.91988603E+02</pdfrwt>
<pdfrwt beam="1">  1       -1 0.69578632E-02 0.91988603E+02</pdfrwt>
<totfact> 0.90547929E+04</totfact>
</mgrwt>
</event>
<event>
 5   1  0.1357339E+00  0.8546042E+02  0.7818608E-02  0.1314233E+00
         -1   -1    0    0    0  501 -0.00000000000E+00  0.00000000000E+00  0.14871694108E+02  0.14871694841E+02  0.46700000000E-02 0.  1.
          1   -1    0    0  501    0  0.00000000000E+00 -0.00000000000E+00 -0.12277490247E+03  0.12277490256E+03  0.46700000000E-02 0. -1.
         23    2    1    2    0    0  0.00000000000E+00  0.00000000000E+00 -0.10790320837E+03  0.13764659740E+03  0.85460420085E+02 0.  0.
        -11    1    3    3    0    0  0.45626594261E+01  0.22097174625E+02 -0.11239764084E+03  0.11464001333E+03  0.51100000000E-03 0. -1.
         11    1    3    3    0    0 -0.45626594261E+01 -0.22097174625E+02  0.44944324778E+01  0.23006584079E+02  0.51100000000E-03 0.  1.
<mgrwt>
<rscale>  0 0.85460420E+02</rscale>
<asrwt>0</asrwt>
<pdfrwt beam="2">  1        1 0.18888446E-01 0.85460420E+02</pdfrwt>
<pdfrwt beam="1">  1       -1 0.22879531E-02 0.85460420E+02</pdfrwt>
<totfact> 0.12881572E+05</totfact>
</mgrwt>
</event>
<event>
 5   1  0.1357339E+00  0.9293721E+02  0.7818608E-02  0.1295891E+00
          1   -1    0    0  501    0  0.00000000000E+00  0.00000000000E+00  0.53093724552E+02  0.53093724757E+02  0.46700000000E-02 0. -1.
         -1   -1    0    0    0  501 -0.00000000000E+00 -0.00000000000E+00 -0.40670179375E+02  0.40670179643E+02  0.46700000000E-02 0.  1.
         23    2    1    2    0    0  0.00000000000E+00  0.00000000000E+00  0.12423545177E+02  0.93763904401E+02  0.92937211566E+02 0.  0.
        -11    1    3    3    0    0  0.20538620522E+02  0.32472231713E+02 -0.20155940872E+02  0.43388278579E+02  0.51100000000E-03 0.  1.
         11    1    3    3    0    0 -0.20538620522E+02 -0.32472231713E+02  0.32579486049E+02  0.50375625821E+02  0.51100000000E-03 0. -1.
<mgrwt>
<rscale>  0 0.92937212E+02</rscale>
<asrwt>0</asrwt>
<pdfrwt beam="1">  1        1 0.81682653E-02 0.92937212E+02</pdfrwt>
<pdfrwt beam="2">  1       -1 0.62569508E-02 0.92937212E+02</pdfrwt>
<totfact> 0.89689021E+04</totfact>
</mgrwt>
</event>
<event>
 5   1  0.1357339E+00  0.1117346E+03  0.7818608E-02  0.1257391E+00
         -1   -1    0    0    0  501 -0.00000000000E+00  0.00000000000E+00  0.27990688089E+03  0.27990688092E+03  0.46700000000E-02 0.  1.
          1   -1    0    0  501    0  0.00000000000E+00 -0.00000000000E+00 -0.11150688573E+02  0.11150689551E+02  0.46700000000E-02 0. -1.
         23    2    1    2    0    0  0.00000000000E+00  0.00000000000E+00  0.26875619231E+03  0.29105757048E+03  0.11173458920E+03 0.  0.
        -11    1    3    3    0    0 -0.22807946902E+02  0.41831703919E+02  0.21037073651E+03  0.21569872664E+03  0.51100000000E-03 0.  1.
         11    1    3    3    0    0  0.22807946902E+02 -0.41831703919E+02  0.58385455807E+02  0.75358843839E+02  0.51100000000E-03 0. -1.
<mgrwt>
<rscale>  0 0.11173459E+03</rscale>
<asrwt>0</asrwt>
<pdfrwt beam="2">  1        1 0.17154908E-02 0.11173459E+03</pdfrwt>
<pdfrwt beam="1">  1       -1 0.43062592E-01 0.11173459E+03</pdfrwt>
<totfact> 0.36438699E+04</totfact>
</mgrwt>
</event>
<event>
 5   1  0.1357339E+00  0.6193017E+02  0.7818608E-02  0.1389906E+00
         -1   -1    0    0    0  501 -0.00000000000E+00  0.00000000000E+00  0.17383647016E+02  0.17383647643E+02  0.46700000000E-02 0. -1.
          1   -1    0    0  501    0  0.00000000000E+00 -0.00000000000E+00 -0.55157375508E+02  0.55157375705E+02  0.46700000000E-02 0.  1.
         23    2    1    2    0    0  0.00000000000E+00  0.00000000000E+00 -0.37773728492E+02  0.72541023349E+02  0.61930166352E+02 0.  0.
        -11    1    3    3    0    0 -0.25335596760E+02 -0.12973255594E+02 -0.33167487575E+02  0.43706750694E+02  0.51100000000E-03 0.  1.
         11    1    3    3    0    0  0.25335596760E+02  0.12973255594E+02 -0.46062409170E+01  0.28834272655E+02  0.51100000000E-03 0. -1.
<mgrwt>
<rscale>  0 0.61930166E+02</rscale>
<asrwt>0</asrwt>
<pdfrwt beam="2">  1        1 0.84857500E-02 0.61930166E+02</pdfrwt>
<pdfrwt beam="1">  1       -1 0.26744073E-02 0.61930166E+02</pdfrwt>
<totfact> 0.27069239E+05</totfact>
</mgrwt>
</event>
<event>
 5   1  0.1357339E+00  0.9445006E+02  0.7818608E-02  0.1292420E+00
          1   -1    0    0  501    0  0.00000000000E+00  0.00000000000E+00  0.55222608359E+02  0.55222608556E+02  0.46700000000E-02 0. -1.
         -1   -1    0    0    0  501 -0.00000000000E+00 -0.00000000000E+00 -0.40385693092E+02  0.40385693362E+02  0.46700000000E-02 0.  1.
         23    2    1    2    0    0  0.00000000000E+00  0.00000000000E+00  0.14836915267E+02  0.95608301918E+02  0.94450057390E+02 0.  0.
        -11    1    3    3    0    0  0.45581063954E+02  0.11448114679E+02  0.12113286683E+02  0.48532715105E+02  0.51100000000E-03 0.  1.
         11    1    3    3    0    0 -0.45581063954E+02 -0.11448114679E+02  0.27236285834E+01  0.47075586813E+02  0.51100000000E-03 0. -1.
<mgrwt>
<rscale>  0 0.94450057E+02</rscale>
<asrwt>0</asrwt>
<pdfrwt beam="1">  1        1 0.84957859E-02 0.94450057E+02</pdfrwt>
<pdfrwt beam="2">  1       -1 0.62131836E-02 0.94450057E+02</pdfrwt>
<totfact> 0.86243828E+04</totfact>
</mgrwt>
</event>
<event>
 5   1  0.1357339E+00  0.9122395E+02  0.7818608E-02  0.1299914E+00
         -1   -1    0    0    0  501 -0.00000000000E+00  0.00000000000E+00  0.17949922152E+02  0.17949922759E+02  0.46700000000E-02 0.  1.
          1   -1    0    0  501    0  0.00000000000E+00 -0.00000000000E+00 -0.11590314556E+03  0.11590314566E+03  0.46700000000E-02 0. -1.
         23    2    1    2    0    0  0.00000000000E+00  0.00000000000E+00 -0.97953223413E+02  0.13385306842E+03  0.91223954902E+02 0.  0.
        -11    1    3    3    0    0  0.40875268621E+02 -0.17666673562E+02 -0.63469033564E+02  0.77532039580E+02  0.51100000000E-03 0.  1.
         11    1    3    3    0    0 -0.40875268621E+02  0.17666673562E+02 -0.34484189849E+02  0.56321028838E+02  0.51100000000E-03 0. -1.
<mgrwt>
<rscale>  0 0.91223955E+02</rscale>
<asrwt>0</asrwt>
<pdfrwt beam="2">  1        1 0.17831253E-01 0.91223955E+02</pdfrwt>
<pdfrwt beam="1">  1       -1 0.27615266E-02 0.91223955E+02</pdfrwt>
<totfact> 0.10694309E+05</totfact>
</mgrwt>
</event>
<event>
 5   1  0.1357339E+00  0.9200204E+02  0.7818608E-02  0.1298075E+00
         -1   -1    0    0    0  501 -0.00000000000E+00  0.00000000000E+00  0.55085809191E+01  0.55085828987E+01  0.46700000000E-02 0.  1.
          1   -1    0    0  501    0  0.00000000000E+00 -0.00000000000E+00 -0.38414491913E+03  0.38414491916E+03  0.46700000000E-02 0. -1.
         23    2    1    2    0    0  0.00000000000E+00  0.00000000000E+00 -0.37863633822E+03  0.38965350206E+03  0.92002038302E+02 0.  0.
        -11    1    3    3    0    0  0.43616592838E+02 -0.10064857791E+02 -0.14441926375E+03  0.15119732893E+03  0.51100000000E-03 0. -1.
         11    1    3    3    0    0 -0.43616592838E+02  0.10064857791E+02 -0.23421707447E+03  0.23845617314E+03  0.51100000000E-03 0.  1.
<mgrwt>
<rscale>  0 0.92002038E+02</rscale>
<asrwt>0</asrwt>
<pdfrwt beam="2">  1        1 0.59099197E-01 0.92002038E+02</pdfrwt>
<pdfrwt beam="1">  1       -1 0.84747444E-03 0.92002038E+02</pdfrwt>
<totfact> 0.13081352E+05</totfact>
</mgrwt>
</event>
<event>
 5   1  0.1357339E+00  0.9151746E+02  0.7818608E-02  0.1299218E+00
          1   -1    0    0  501    0  0.00000000000E+00  0.00000000000E+00  0.41399474106E+02  0.41399474369E+02  0.46700000000E-02 0. -1.
         -1   -1    0    0    0  501 -0.00000000000E+00 -0.00000000000E+00 -0.50576999143E+02  0.50576999359E+02  0.46700000000E-02 0.  1.
         23    2    1    2    0    0  0.00000000000E+00  0.00000000000E+00 -0.91775250375E+01  0.91976473728E+02  0.91517456005E+02 0.  0.
        -11    1    3    3    0    0  0.44421587959E+02  0.94858984674E+01 -0.10148365247E+02  0.46542980824E+02  0.51100000000E-03 0.  1.
         11    1    3    3    0    0 -0.44421587959E+02 -0.94858984674E+01  0.97084020915E+00  0.45433492904E+02  0.51100000000E-03 0. -1.
<mgrwt>
<rscale>  0 0.91517456E+02</rscale>
<asrwt>0</asrwt>
<pdfrwt beam="1">  1        1 0.63691499E-02 0.91517456E+02</pdfrwt>
<pdfrwt beam="2">  1       -1 0.77810769E-02 0.91517456E+02</pdfrwt>
<totfact> 0.90183296E+04</totfact>
</mgrwt>
</event>
<event>
 5   1  0.1357339E+00  0.9090119E+02  0.7818608E-02  0.1300684E+00
         -1   -1    0    0    0  501 -0.00000000000E+00  0.00000000000E+00  0.80345440855E+02  0.80345440991E+02  0.46700000000E-02 0.  1.
          1   -1    0    0  501    0  0.00000000000E+00 -0.00000000000E+00 -0.25710938848E+02  0.25710939272E+02  0.46700000000E-02 0. -1.
         23    2    1    2    0    0  0.00000000000E+00  0.00000000000E+00  0.54634502007E+02  0.10605638026E+03  0.90901193529E+02 0.  0.
        -11    1    3    3    0    0 -0.42586611343E+01  0.40236746970E+02  0.31623181490E+01  0.40584877204E+02  0.51100000000E-03 0. -1.
         11    1    3    3    0    0  0.42586611343E+01 -0.40236746970E+02  0.51472183858E+02  0.65471503059E+02  0.51100000000E-03 0.  1.
<mgrwt>
<rscale>  0 0.90901194E+02</rscale>
<asrwt>0</asrwt>
<pdfrwt beam="2">  1        1 0.39555292E-02 0.90901194E+02</pdfrwt>
<pdfrwt beam="1">  1       -1 0.12360837E-01 0.90901194E+02</pdfrwt>
<totfact> 0.85247185E+04</totfact>
</mgrwt>
</event>
<event>
 5   1  0.1357339E+00  0.9003329E+02  0.7818608E-02  0.1302771E+00
          1   -1    0    0  501    0  0.00000000000E+00  0.00000000000E+00  0.12599175840E+02  0.12599176705E+02  0.46700000000E-02 0. -1.
         -1   -1    0    0    0  501 -0.00000000000E+00 -0.00000000000E+00 -0.16084372826E+03  0.16084372833E+03  0.46700000000E-02 0.  1.
         23    2    1    2    0    0  0.00000000000E+00  0.00000000000E+00 -0.14824455242E+03  0.17344290503E+03  0.90033293754E+02 0.  0.
        -11    1    3    3    0    0 -0.43360977377E+02 -0.10553703599E+02 -0.62734564630E+02  0.76988184927E+02  0.51100000000E-03 0.  1.
         11    1    3    3    0    0  0.43360977377E+02  0.10553703599E+02 -0.85509987791E+02  0.96454720108E+02  0.51100000000E-03 0. -1.
<mgrwt>
<rscale>  0 0.90033294E+02</rscale>
<asrwt>0</asrwt>
<pdfrwt beam="1">  1        1 0.19383349E-02 0.90033294E+02</pdfrwt>
<pdfrwt beam="2">  1       -1 0.24745188E-01 0.90033294E+02</pdfrwt>
<totfact> 0.75997581E+04</totfact>
</mgrwt>
</event>
<event>
 5   1  0.1357339E+00  0.9253667E+02  0.7818608E-02  0.1296823E+00
         -1   -1    0    0    0  501 -0.00000000000E+00  0.00000000000E+00  0.11882106488E+03  0.11882106497E+03  0.46700000000E-02 0.  1.
          1   -1    0    0  501    0  0.00000000000E+00 -0.00000000000E+00 -0.18016660369E+02  0.18016660974E+02  0.46700000000E-02 0. -1.
         23    2    1    2    0    0  0.00000000000E+00  0.00000000000E+00  0.10080440451E+03  0.13683772594E+03  0.92536669883E+02 0.  0.
        -11    1    3    3    0    0 -0.11885722171E+02  0.39031308844E+02  0.82666049163E+02  0.92186708077E+02  0.51100000000E-03 0.  1.
         11    1    3    3    0    0  0.11885722171E+02 -0.39031308844E+02  0.18138355344E+02  0.44651017866E+02  0.51100000000E-03 0. -1.
<mgrwt>
<rscale>  0 0.92536670E+02</rscale>
<asrwt>0</asrwt>
<pdfrwt beam="2">  1        1 0.27717940E-02 0.92536670E+02</pdfrwt>
<pdfrwt beam="1">  1       -1 0.18280164E-01 0.92536670E+02</pdfrwt>
<totfact> 0.75731310E+04</totfact>
</mgrwt>
</event>
<event>
 5   1  0.1357339E+00  0.9101667E+02  0.7818608E-02  0.1300408E+00
         -1   -1    0    0    0  501 -0.00000000000E+00  0.00000000000E+00  0.24458016488E+03  0.24458016493E+03  0.46700000000E-02 0.  1.
          1   -1    0    0  501    0  0.00000000000E+00 -0.00000000000E+00 -0.84676051580E+01  0.84676064458E+01  0.46700000000E-02 0. -1.
         23    2    1    2    0    0  0.00000000000E+00  0.00000000000E+00  0.23611255973E+03  0.25304777137E+03  0.91016667359E+02 0.  0.
        -11    1    3    3    0    0 -0.12138230060E+02  0.43654878752E+02  0.10628587567E+03  0.11554121531E+03  0.51100000000E-03 0. -1.
         11    1    3    3    0    0  0.12138230060E+02 -0.43654878752E+02  0.12982668405E+03  0.13750655606E+03  0.51100000000E-03 0.  1.
<mgrwt>
<rscale>  0 0.91016667E+02</rscale>
<asrwt>0</asrwt>
<pdfrwt beam="2">  1        1 0.13027086E-02 0.91016667E+02</pdfrwt>
<pdfrwt beam="1">  1       -1 0.37627716E-01 0.91016667E+02</pdfrwt>
<totfact> 0.65543985E+04</totfact>
</mgrwt>
</event>
<event>
 5   1  0.1357339E+00  0.9123191E+02  0.7818608E-02  0.1299896E+00
          1   -1    0    0  501    0  0.00000000000E+00  0.00000000000E+00  0.12564089605E+03  0.12564089614E+03  0.46700000000E-02 0. -1.
         -1   -1    0    0    0  501 -0.00000000000E+00 -0.00000000000E+00 -0.16561608353E+02  0.16561609011E+02  0.46700000000E-02 0.  1.
         23    2    1    2    0    0  0.00000000000E+00  0.00000000000E+00  0.10907928770E+03  0.14220250515E+03  0.91231910348E+02 0.  0.
        -11    1    3    3    0    0  0.32681238521E+02 -0.30426980609E+01  0.51634204544E+01  0.33226228703E+02  0.51100000000E-03 0.  1.
         11    1    3    3    0    0 -0.32681238521E+02  0.30426980609E+01  0.10391586724E+03  0.10897627644E+03  0.51100000000E-03 0. -1.
<mgrwt>
<rscale>  0 0.91231910E+02</rscale>
<asrwt>0</asrwt>
<pdfrwt beam="1">  1        1 0.19329368E-01 0.91231910E+02</pdfrwt>
<pdfrwt beam="2">  1       -1 0.25479399E-02 0.91231910E+02</pdfrwt>
<totfact> 0.10843142E+05</totfact>
</mgrwt>
</event>
<event>
 5   1  0.1357339E+00  0.9184824E+02  0.7818608E-02  0.1298437E+00
          1   -1    0    0  501    0  0.00000000000E+00  0.00000000000E+00  0.76648341393E+02  0.76648341535E+02  0.46700000000E-02 0. -1.
         -1   -1    0    0    0  501 -0.00000000000E+00 -0.00000000000E+00 -0.27515598113E+02  0.27515598510E+02  0.46700000000E-02 0.  1.
         23    2    1    2    0    0  0.00000000000E+00  0.00000000000E+00  0.49132743280E+02  0.10416394004E+03  0.91848244096E+02 0.  0.
        -11    1    3    3    0    0  0.33499009446E+02 -0.22352648107E+02 -0.46590743978E+00  0.40274577357E+02  0.51100000000E-03 0.  1.
         11    1    3    3    0    0 -0.33499009446E+02  0.22352648107E+02  0.49598650719E+02  0.63889362688E+02  0.51100000000E-03 0. -1.
<mgrwt>
<rscale>  0 0.91848244E+02</rscale>
<asrwt>0</asrwt>
<pdfrwt beam="1">  1        1 0.11792053E-01 0.91848244E+02</pdfrwt>
<pdfrwt beam="2">  1       -1 0.42331690E-02 0.91848244E+02</pdfrwt>
<totfact> 0.98067940E+04</totfact>
</mgrwt>
</event>
<event>
 5   1  0.1357339E+00  0.1085037E+03  0.7818608E-02  0.1263366E+00
         -1   -1    0    0    0  501 -0.00000000000E+00  0.00000000000E+00  0.96698764445E+02  0.96698764558E+02  0.46700000000E-02 0.  1.
          1   -1    0    0  501    0  0.00000000000E+00 -0.00000000000E+00 -0.30437460049E+02  0.30437460408E+02  0.46700000000E-02 0. -1.
         23    2    1    2    0    0  0.00000000000E+00  0.00000000000E+00  0.66261304395E+02  0.12713622497E+03  0.10850372914E+03 0.  0.
        -11    1    3    3    0    0  0.53121771409E+01  0.20090564455E+02  0.91850358152E+02  0.94171855132E+02  0.51100000000E-03 0.  1.
         11    1    3    3    0    0 -0.53121771409E+01 -0.20090564455E+02 -0.25589053756E+02  0.32964369833E+02  0.51100000000E-03 0. -1.
<mgrwt>
<rscale>  0 0.10850373E+03</rscale>
<asrwt>0</asrwt>
<pdfrwt beam="2">  1        1 0.46826863E-02 0.10850373E+03</pdfrwt>
<pdfrwt beam="1">  1       -1 0.14876733E-01 0.10850373E+03</pdfrwt>
<totfact> 0.52271870E+04</totfact>
</mgrwt>
</event>
<event>
 5   1  0.1357339E+00  0.1065816E+03  0.7818608E-02  0.1267034E+00
         -1   -1    0    0    0  501 -0.00000000000E+00  0.00000000000E+00  0.24543905690E+03  0.24543905694E+03  0.46700000000E-02 0.  1.
          1   -1    0    0  501    0  0.00000000000E+00 -0.00000000000E+00 -0.11570738133E+02  0.11570739076E+02  0.46700000000E-02 0. -1.
         23    2    1    2    0    0  0.00000000000E+00  0.00000000000E+00  0.23386831877E+03  0.25700979602E+03  0.10658163410E+03 0.  0.
        -11    1    3    3    0    0  0.34425656601E+02  0.25996703657E+02  0.19238238918E+03  0.19715967666E+03  0.51100000000E-03 0.  1.
         11    1    3    3    0    0 -0.34425656601E+02 -0.25996703657E+02  0.41485929582E+02  0.59850119357E+02  0.51100000000E-03 0. -1.
<mgrwt>
<rscale>  0 0.10658163E+03</rscale>
<asrwt>0</asrwt>
<pdfrwt beam="2">  1        1 0.17801137E-02 0.10658163E+03</pdfrwt>
<pdfrwt beam="1">  1       -1 0.37759853E-01 0.10658163E+03</pdfrwt>
<totfact> 0.43264198E+04</totfact>
</mgrwt>
</event>
<event>
 5   1  0.1357339E+00  0.7432824E+02  0.7818608E-02  0.1345964E+00
          1   -1    0    0  501    0  0.00000000000E+00  0.00000000000E+00  0.20430853363E+03  0.20430853368E+03  0.46700000000E-02 0. -1.
         -1   -1    0    0    0  501 -0.00000000000E+00 -0.00000000000E+00 -0.67602255079E+01  0.67602271209E+01  0.46700000000E-02 0.  1.
         23    2    1    2    0    0  0.00000000000E+00  0.00000000000E+00  0.19754830812E+03  0.21106876080E+03  0.74328243256E+02 0.  0.
        -11    1    3    3    0    0 -0.30393733125E+02  0.20258596707E+02  0.79309948391E+02  0.87316995298E+02  0.51100000000E-03 0.  1.
         11    1    3    3    0    0  0.30393733125E+02 -0.20258596707E+02  0.11823835973E+03  0.12375176551E+03  0.51100000000E-03 0. -1.
<mgrwt>
<rscale>  0 0.74328243E+02</rscale>
<asrwt>0</asrwt>
<pdfrwt beam="1">  1        1 0.31432084E-01 0.74328243E+02</pdfrwt>
<pdfrwt beam="2">  1       -1 0.10400347E-02 0.74328243E+02</pdfrwt>
<totfact> 0.20431926E+05</totfact>
</mgrwt>
</event>
<event>
 5   1  0.1357339E+00  0.9032135E+02  0.7818608E-02  0.1302075E+00
         -1   -1    0    0    0  501 -0.00000000000E+00  0.00000000000E+00  0.22495936364E+03  0.22495936369E+03  0.46700000000E-02 0.  1.
          1   -1    0    0  501    0  0.00000000000E+00 -0.00000000000E+00 -0.90660222044E+01  0.90660234071E+01  0.46700000000E-02 0. -1.
         23    2    1    2    0    0  0.00000000000E+00  0.00000000000E+00  0.21589334144E+03  0.23402538710E+03  0.90321353672E+02 0.  0.
        -11    1    3    3    0    0 -0.30735135292E+02  0.27474031138E+02  0.15572402383E+03  0.16108830661E+03  0.51100000000E-03 0.  1.
         11    1    3    3    0    0  0.30735135292E+02 -0.27474031138E+02  0.60169317607E+02  0.72937080487E+02  0.51100000000E-03 0. -1.
<mgrwt>
<rscale>  0 0.90321354E+02</rscale>
<asrwt>0</asrwt>
<pdfrwt beam="2">  1        1 0.13947728E-02 0.90321354E+02</pdfrwt>
<pdfrwt beam="1">  1       -1 0.34609131E-01 0.90321354E+02</pdfrwt>
<totfact> 0.68694508E+04</totfact>
</mgrwt>
</event>
<event>
 4   1  0.1357339E+00  0.1513003E+03  0.7818608E-02  0.1198884E+00
          1   -1    0    0  501    0  0.00000000000E+00  0.00000000000E+00  0.95115420448E+01  0.95115431912E+01  0.46700000000E-02 0. -1.
         -1   -1    0    0    0  501 -0.00000000000E+00 -0.00000000000E+00 -0.60168426729E+03  0.60168426731E+03  0.46700000000E-02 0.  1.
        -11    1    1    2    0    0 -0.14377932422E+02  0.74134477792E+02 -0.27788572112E+03  0.28796374727E+03  0.51100000000E-03 0.  1.
         11    1    1    2    0    0  0.14377932422E+02 -0.74134477792E+02 -0.31428700413E+03  0.32323206323E+03  0.51100000000E-03 0. -1.
<mgrwt>
<rscale>  0 0.15130030E+03</rscale>
<asrwt>0</asrwt>
<pdfrwt beam="1">  1        1 0.14633147E-02 0.15130030E+03</pdfrwt>
<pdfrwt beam="2">  1       -1 0.92566781E-01 0.15130030E+03</pdfrwt>
<totfact> 0.10724795E+04</totfact>
</mgrwt>
</event>
<event>
 5   1  0.1357339E+00  0.9043404E+02  0.7818608E-02  0.1301804E+00
          1   -1    0    0  501    0  0.00000000000E+00  0.00000000000E+00  0.52382235153E+02  0.52382235361E+02  0.46700000000E-02 0. -1.
         -1   -1    0    0    0  501 -0.00000000000E+00 -0.00000000000E+00 -0.39031911290E+02  0.39031911570E+02  0.46700000000E-02 0.  1.
         23    2    1    2    0    0  0.00000000000E+00  0.00000000000E+00  0.13350323863E+02  0.91414146931E+02  0.90434037353E+02 0.  0.
        -11    1    3    3    0    0  0.37094867191E+02 -0.45959915371E+01 -0.19045178692E+02  0.41950818130E+02  0.51100000000E-03 0.  1.
         11    1    3    3    0    0 -0.37094867191E+02  0.45959915371E+01  0.32395502555E+02  0.49463328802E+02  0.51100000000E-03 0. -1.
<mgrwt>
<rscale>  0 0.90434037E+02</rscale>
<asrwt>0</asrwt>
<pdfrwt beam="1">  1        1 0.80588054E-02 0.90434037E+02</pdfrwt>
<pdfrwt beam="2">  1       -1 0.60049095E-02 0.90434037E+02</pdfrwt>
<totfact> 0.96597598E+04</totfact>
</mgrwt>
</event>
<event>
 5   1  0.1357339E+00  0.9289948E+02  0.7818608E-02  0.1295978E+00
         -1   -1    0    0    0  501 -0.00000000000E+00  0.00000000000E+00  0.32078539435E+03  0.32078539438E+03  0.46700000000E-02 0.  1.
          1   -1    0    0  501    0  0.00000000000E+00 -0.00000000000E+00 -0.67259236251E+01  0.67259252464E+01  0.46700000000E-02 0. -1.
         23    2    1    2    0    0  0.00000000000E+00  0.00000000000E+00  0.31405947072E+03  0.32751131963E+03  0.92899479729E+02 0.  0.
        -11    1    3    3    0    0  0.44060577831E+02  0.13916043000E+02  0.14027460897E+03  0.14768871553E+03  0.51100000000E-03 0. -1.
         11    1    3    3    0    0 -0.44060577831E+02 -0.13916043000E+02  0.17378486175E+03  0.17982260410E+03  0.51100000000E-03 0.  1.
<mgrwt>
<rscale>  0 0.92899480E+02</rscale>
<asrwt>0</asrwt>
<pdfrwt beam="2">  1        1 0.10347575E-02 0.92899480E+02</pdfrwt>
<pdfrwt beam="1">  1       -1 0.49351607E-01 0.92899480E+02</pdfrwt>
<totfact> 0.56143764E+04</totfact>
</mgrwt>
</event>
<event>
 5   1  0.1357339E+00  0.6060771E+02  0.7818608E-02  0.1395299E+00
         -1   -1    0    0    0  501 -0.00000000000E+00  0.00000000000E+00  0.29063734285E+02  0.29063734660E+02  0.46700000000E-02 0.  1.
          1   -1    0    0  501    0  0.00000000000E+00 -0.00000000000E+00 -0.31596889323E+02  0.31596889668E+02  0.46700000000E-02 0. -1.
         23    2    1    2    0    0  0.00000000000E+00  0.00000000000E+00 -0.25331550384E+01  0.60660624328E+02  0.60607709653E+02 0.  0.
        -11    1    3    3    0    0 -0.24628390059E+02  0.17645342359E+02 -0.62733906085E+00  0.30303617910E+02  0.51100000000E-03 0. -1.
         11    1    3    3    0    0  0.24628390059E+02 -0.17645342359E+02 -0.19058159775E+01  0.30357006418E+02  0.51100000000E-03 0.  1.
<mgrwt>
<rscale>  0 0.60607710E+02</rscale>
<asrwt>0</asrwt>
<pdfrwt beam="2">  1        1 0.48610600E-02 0.60607710E+02</pdfrwt>
<pdfrwt beam="1">  1       -1 0.44713438E-02 0.60607710E+02</pdfrwt>
<totfact> 0.26965328E+05</totfact>
</mgrwt>
</event>
<event>
 5   1  0.1357339E+00  0.9792377E+02  0.7818608E-02  0.1284724E+00
         -1   -1    0    0    0  501 -0.00000000000E+00  0.00000000000E+00  0.42681663424E+02  0.42681663679E+02  0.46700000000E-02 0.  1.
          1   -1    0    0  501    0  0.00000000000E+00 -0.00000000000E+00 -0.56166181515E+02  0.56166181710E+02  0.46700000000E-02 0. -1.
         23    2    1    2    0    0  0.00000000000E+00  0.00000000000E+00 -0.13484518092E+02  0.98847845389E+02  0.97923767850E+02 0.  0.
        -11    1    3    3    0    0  0.15628048712E+02 -0.45279488719E+02  0.34923575117E+01  0.48027747881E+02  0.51100000000E-03 0.  1.
         11    1    3    3    0    0 -0.15628048712E+02  0.45279488719E+02 -0.16976875603E+02  0.50820097508E+02  0.51100000000E-03 0. -1.
<mgrwt>
<rscale>  0 0.97923768E+02</rscale>
<asrwt>0</asrwt>
<pdfrwt beam="2">  1        1 0.86409511E-02 0.97923768E+02</pdfrwt>
<pdfrwt beam="1">  1       -1 0.65664098E-02 0.97923768E+02</pdfrwt>
<totfact> 0.78135041E+04</totfact>
</mgrwt>
</event>
<event>
 5   1  0.1357339E+00  0.9378324E+02  0.7818608E-02  0.1293940E+00
          1   -1    0    0  501    0  0.00000000000E+00  0.00000000000E+00  0.21170495069E+03  0.21170495074E+03  0.46700000000E-02 0. -1.
         -1   -1    0    0    0  501 -0.00000000000E+00 -0.00000000000E+00 -0.10386264788E+02  0.10386265838E+02  0.46700000000E-02 0.  1.
         23    2    1    2    0    0  0.00000000000E+00  0.00000000000E+00  0.20131868590E+03  0.22209121658E+03  0.93783235114E+02 0.  0.
        -11    1    3    3    0    0 -0.20652646417E+02 -0.28140265932E+02  0.26509252676E+02  0.43830889205E+02  0.51100000000E-03 0.  1.
         11    1    3    3    0    0  0.20652646417E+02  0.28140265932E+02  0.17480943323E+03  0.17826032738E+03  0.51100000000E-03 0. -1.
<mgrwt>
<rscale>  0 0.93783235E+02</rscale>
<asrwt>0</asrwt>
<pdfrwt beam="1">  1        1 0.32569993E-01 0.93783235E+02</pdfrwt>
<pdfrwt beam="2">  1       -1 0.15978870E-02 0.93783235E+02</pdfrwt>
<totfact> 0.11099612E+05</totfact>
</mgrwt>
</event>
<event>
 5   1  0.1357339E+00  0.9084273E+02  0.7818608E-02  0.1300824E+00
         -1   -1    0    0    0  501 -0.00000000000E+00  0.00000000000E+00  0.10715447733E+02  0.10715448751E+02  0.46700000000E-02 0.  1.
          1   -1    0    0  501    0  0.00000000000E+00 -0.00000000000E+00 -0.19253514530E+03  0.19253514535E+03  0.46700000000E-02 0. -1.
         23    2    1    2    0    0  0.00000000000E+00  0.00000000000E+00 -0.18181969756E+03  0.20325059411E+03  0.90842729933E+02 0.  0.
        -11    1    3    3    0    0 -0.57928785436E+01 -0.41968299041E+02 -0.12755149215E+03  0.13440341780E+03  0.51100000000E-03 0. -1.
         11    1    3    3    0    0  0.57928785436E+01  0.41968299041E+02 -0.54268205417E+02  0.68847176308E+02  0.51100000000E-03 0.  1.
<mgrwt>
<rscale>  0 0.90842730E+02</rscale>
<asrwt>0</asrwt>
<pdfrwt beam="2">  1        1 0.29620789E-01 0.90842730E+02</pdfrwt>
<pdfrwt beam="1">  1       -1 0.16485306E-02 0.90842730E+02</pdfrwt>
<totfact> 0.11870089E+05</totfact>
</mgrwt>
</event>
<event>
 5   1  0.1357339E+00  0.9139770E+02  0.7818608E-02  0.1299502E+00
          1   -1    0    0  501    0  0.00000000000E+00  0.00000000000E+00  0.26823798455E+03  0.26823798459E+03  0.46700000000E-02 0. -1.
         -1   -1    0    0    0  501 -0.00000000000E+00 -0.00000000000E+00 -0.77855668245E+01  0.77855682251E+01  0.46700000000E-02 0.  1.
         23    2    1    2    0    0  0.00000000000E+00  0.00000000000E+00  0.26045241772E+03  0.27602355281E+03  0.91397701338E+02 0.  0.
        -11    1    3    3    0    0  0.12745050262E+02  0.39785533238E+02  0.18616278814E+03  0.19079284224E+03  0.51100000000E-03 0.  1.
         11    1    3    3    0    0 -0.12745050262E+02 -0.39785533238E+02  0.74289629585E+02  0.85230710577E+02  0.51100000000E-03 0. -1.
<mgrwt>
<rscale>  0 0.91397701E+02</rscale>
<asrwt>0</asrwt>
<pdfrwt beam="1">  1        1 0.41267378E-01 0.91397701E+02</pdfrwt>
<pdfrwt beam="2">  1       -1 0.11977797E-02 0.91397701E+02</pdfrwt>
<totfact> 0.12457449E+05</totfact>
</mgrwt>
</event>
<event>
 5   1  0.1357339E+00  0.8870121E+02  0.7818608E-02  0.1306028E+00
          1   -1    0    0  501    0  0.00000000000E+00  0.00000000000E+00  0.20932799673E+02  0.20932800194E+02  0.46700000000E-02 0. -1.
         -1   -1    0    0    0  501 -0.00000000000E+00 -0.00000000000E+00 -0.93966222814E+02  0.93966222930E+02  0.46700000000E-02 0.  1.
         23    2    1    2    0    0  0.00000000000E+00  0.00000000000E+00 -0.73033423141E+02  0.11489902312E+03  0.88701209795E+02 0.  0.
        -11    1    3    3    0    0  0.30181580601E+02  0.28031896898E+02 -0.57811756745E+02  0.70985310238E+02  0.51100000000E-03 0.  1.
         11    1    3    3    0    0 -0.30181580601E+02 -0.28031896898E+02 -0.15221666396E+02  0.43913712886E+02  0.51100000000E-03 0. -1.
<mgrwt>
<rscale>  0 0.88701210E+02</rscale>
<asrwt>0</asrwt>
<pdfrwt beam="1">  1        1 0.32204308E-02 0.88701210E+02</pdfrwt>
<pdfrwt beam="2">  1       -1 0.14456342E-01 0.88701210E+02</pdfrwt>
<totfact> 0.88332535E+04</totfact>
</mgrwt>
</event>
<event>
 5   1  0.1357339E+00  0.8920358E+02  0.7818608E-02  0.1304792E+00
         -1   -1    0    0    0  501 -0.00000000000E+00  0.00000000000E+00  0.39963881474E+02  0.39963881747E+02  0.46700000000E-02 0.  1.
          1   -1    0    0  501    0  0.00000000000E+00 -0.00000000000E+00 -0.49777934424E+02  0.49777934643E+02  0.46700000000E-02 0. -1.
         23    2    1    2    0    0  0.00000000000E+00  0.00000000000E+00 -0.98140529497E+01  0.89741816390E+02  0.89203576014E+02 0.  0.
        -11    1    3    3    0    0 -0.44249307106E+02 -0.21281311307E+01 -0.10114101734E+02  0.45440347441E+02  0.51100000000E-03 0.  1.
         11    1    3    3    0    0  0.44249307106E+02  0.21281311307E+01  0.30004878386E+00  0.44301468948E+02  0.51100000000E-03 0. -1.
<mgrwt>
<rscale>  0 0.89203576E+02</rscale>
<asrwt>0</asrwt>
<pdfrwt beam="2">  1        1 0.76581437E-02 0.89203576E+02</pdfrwt>
<pdfrwt beam="1">  1       -1 0.61482895E-02 0.89203576E+02</pdfrwt>
<totfact> 0.99596289E+04</totfact>
</mgrwt>
</event>
<event>
 5   1  0.1357339E+00  0.9141260E+02  0.7818608E-02  0.1299467E+00
          1   -1    0    0  501    0  0.00000000000E+00  0.00000000000E+00  0.21579480345E+03  0.21579480350E+03  0.46700000000E-02 0. -1.
         -1   -1    0    0    0  501 -0.00000000000E+00 -0.00000000000E+00 -0.96807965809E+01  0.96807977073E+01  0.46700000000E-02 0.  1.
         23    2    1    2    0    0  0.00000000000E+00  0.00000000000E+00  0.20611400687E+03  0.22547560121E+03  0.91412597121E+02 0.  0.
        -11    1    3    3    0    0 -0.37636665043E+02 -0.25889495281E+02  0.10678242820E+03  0.11614332307E+03  0.51100000000E-03 0.  1.
         11    1    3    3    0    0  0.37636665043E+02  0.25889495281E+02  0.99331578668E+02  0.10933227814E+03  0.51100000000E-03 0. -1.
<mgrwt>
<rscale>  0 0.91412597E+02</rscale>
<asrwt>0</asrwt>
<pdfrwt beam="1">  1        1 0.33199201E-01 0.91412597E+02</pdfrwt>
<pdfrwt beam="2">  1       -1 0.14893534E-02 0.91412597E+02</pdfrwt>
<totfact> 0.11934093E+05</totfact>
</mgrwt>
</event>
<event>
 5   1  0.1357339E+00  0.9802828E+02  0.7818608E-02  0.1284498E+00
          1   -1    0    0  501    0  0.00000000000E+00  0.00000000000E+00  0.36210862905E+03  0.36210862908E+03  0.46700000000E-02 0. -1.
         -1   -1    0    0    0  501 -0.00000000000E+00 -0.00000000000E+00 -0.66344337541E+01  0.66344353977E+01  0.46700000000E-02 0.  1.
         23    2    1    2    0    0  0.00000000000E+00  0.00000000000E+00  0.35547419530E+03  0.36874306448E+03  0.98028282038E+02 0.  0.
        -11    1    3    3    0    0 -0.22224184843E+02  0.41239553831E+02  0.23195775190E+03  0.23664110771E+03  0.51100000000E-03 0. -1.
         11    1    3    3    0    0  0.22224184843E+02 -0.41239553831E+02  0.12351644339E+03  0.13210195676E+03  0.51100000000E-03 0.  1.
<mgrwt>
<rscale>  0 0.98028282E+02</rscale>
<asrwt>0</asrwt>
<pdfrwt beam="1">  1        1 0.55709019E-01 0.98028282E+02</pdfrwt>
<pdfrwt beam="2">  1       -1 0.10206823E-02 0.98028282E+02</pdfrwt>
<totfact> 0.10930662E+05</totfact>
</mgrwt>
</event>
<event>
 5   1  0.1357339E+00  0.9269992E+02  0.7818608E-02  0.1296442E+00
          1   -1    0    0  501    0  0.00000000000E+00  0.00000000000E+00  0.92652167991E+02  0.92652168109E+02  0.46700000000E-02 0. -1.
         -1   -1    0    0    0  501 -0.00000000000E+00 -0.00000000000E+00 -0.23186923902E+02  0.23186924373E+02  0.46700000000E-02 0.  1.
         23    2    1    2    0    0  0.00000000000E+00  0.00000000000E+00  0.69465244089E+02  0.11583909248E+03  0.92699920230E+02 0.  0.
        -11    1    3    3    0    0 -0.56019931626E+00 -0.45884991088E+02  0.42886059236E+02  0.62808919012E+02  0.51100000000E-03 0. -1.
         11    1    3    3    0    0  0.56019931626E+00  0.45884991088E+02  0.26579184853E+02  0.53030173469E+02  0.51100000000E-03 0.  1.
<mgrwt>
<rscale>  0 0.92699920E+02</rscale>
<asrwt>0</asrwt>
<pdfrwt beam="1">  1        1 0.14254180E-01 0.92699920E+02</pdfrwt>
<pdfrwt beam="2">  1       -1 0.35672191E-02 0.92699920E+02</pdfrwt>
<totfact> 0.98573004E+04</totfact>
</mgrwt>
</event>
<event>
 5   1  0.1357339E+00  0.9139789E+02  0.7818608E-02  0.1299501E+00
          1   -1    0    0  501    0  0.00000000000E+00  0.00000000000E+00  0.31151615837E+02  0.31151616187E+02  0.46700000000E-02 0. -1.
         -1   -1    0    0    0  501 -0.00000000000E+00 -0.00000000000E+00 -0.67039648482E+02  0.67039648645E+02  0.46700000000E-02 0.  1.
         23    2    1    2    0    0  0.00000000000E+00  0.00000000000E+00 -0.35888032646E+02  0.98191264832E+02  0.91397886201E+02 0.  0.
        -11    1    3    3    0    0  0.13671302466E+02 -0.42959361574E+02 -0.25982265403E+02  0.52033540853E+02  0.51100000000E-03 0.  1.
         11    1    3    3    0    0 -0.13671302466E+02  0.42959361574E+02 -0.99057672424E+01  0.46157723979E+02  0.51100000000E-03 0. -1.
<mgrwt>
<rscale>  0 0.91397886E+02</rscale>
<asrwt>0</asrwt>
<pdfrwt beam="1">  1        1 0.47925563E-02 0.91397886E+02</pdfrwt>
<pdfrwt beam="2">  1       -1 0.10313792E-01 0.91397886E+02</pdfrwt>
<totfact> 0.86606519E+04</totfact>
</mgrwt>
</event>
<event>
 5   1  0.1357339E+00  0.9087041E+02  0.7818608E-02  0.1300757E+00
          1   -1    0    0  501    0  0.00000000000E+00  0.00000000000E+00  0.53891379181E+02  0.53891379384E+02  0.46700000000E-02 0. -1.
         -1   -1    0    0    0  501 -0.00000000000E+00 -0.00000000000E+00 -0.38305904755E+02  0.38305905040E+02  0.46700000000E-02 0.  1.
         23    2    1    2    0    0  0.00000000000E+00  0.00000000000E+00  0.15585474426E+02  0.92197284423E+02  0.90870414558E+02 0.  0.
        -11    1    3    3    0    0 -0.21583212512E+02  0.33032088760E+02 -0.15061809420E+02  0.42235199223E+02  0.51100000000E-03 0.  1.
         11    1    3    3    0    0  0.21583212512E+02 -0.33032088760E+02  0.30647283846E+02  0.49962085200E+02  0.51100000000E-03 0. -1.
<mgrwt>
<rscale>  0 0.90870415E+02</rscale>
<asrwt>0</asrwt>
<pdfrwt beam="1">  1        1 0.82909814E-02 0.90870415E+02</pdfrwt>
<pdfrwt beam="2">  1       -1 0.58932162E-02 0.90870415E+02</pdfrwt>
<totfact> 0.95717848E+04</totfact>
</mgrwt>
</event>
<event>
 5   1  0.1357339E+00  0.9237461E+02  0.7818608E-02  0.1297201E+00
          1   -1    0    0  501    0  0.00000000000E+00  0.00000000000E+00  0.26902146878E+02  0.26902147283E+02  0.46700000000E-02 0. -1.
         -1   -1    0    0    0  501 -0.00000000000E+00 -0.00000000000E+00 -0.79297286066E+02  0.79297286204E+02  0.46700000000E-02 0.  1.
         23    2    1    2    0    0  0.00000000000E+00  0.00000000000E+00 -0.52395139188E+02  0.10619943349E+03  0.92374612651E+02 0.  0.
        -11    1    3    3    0    0 -0.28678717205E+02 -0.34104664583E+02 -0.40168204589E+02  0.59992346403E+02  0.51100000000E-03 0.  1.
         11    1    3    3    0    0  0.28678717205E+02  0.34104664583E+02 -0.12226934599E+02  0.46207087083E+02  0.51100000000E-03 0. -1.
<mgrwt>
<rscale>  0 0.92374613E+02</rscale>
<asrwt>0</asrwt>
<pdfrwt beam="1">  1        1 0.41387919E-02 0.92374613E+02</pdfrwt>
<pdfrwt beam="2">  1       -1 0.12199582E-01 0.92374613E+02</pdfrwt>
<totfact> 0.81988802E+04</totfact>
</mgrwt>
</event>
<event>
 5   1  0.1357339E+00  0.9195677E+02  0.7818608E-02  0.1298181E+00
         -1   -1    0    0    0  501 -0.00000000000E+00  0.00000000000E+00  0.53101276512E+02  0.53101276717E+02  0.46700000000E-02 0.  1.
          1   -1    0    0  501    0  0.00000000000E+00 -0.00000000000E+00 -0.39810946491E+02  0.39810946765E+02  0.46700000000E-02 0. -1.
         23    2    1    2    0    0  0.00000000000E+00  0.00000000000E+00  0.13290330021E+02  0.92912223482E+02  0.91956774629E+02 0.  0.
        -11    1    3    3    0    0  0.32224101532E+01  0.13206314646E+02 -0.37734105740E+02  0.40108021767E+02  0.51100000000E-03 0. -1.
         11    1    3    3    0    0 -0.32224101532E+01 -0.13206314646E+02  0.51024435762E+02  0.52804201715E+02  0.51100000000E-03 0.  1.
<mgrwt>
<rscale>  0 0.91956775E+02</rscale>
<asrwt>0</asrwt>
<pdfrwt beam="2">  1        1 0.61247611E-02 0.91956775E+02</pdfrwt>
<pdfrwt beam="1">  1       -1 0.81694271E-02 0.91956775E+02</pdfrwt>
<totfact> 0.88440453E+04</totfact>
</mgrwt>
</event>
<event>
 5   1  0.1357339E+00  0.9730368E+02  0.7818608E-02  0.1286070E+00
         -1   -1    0    0    0  501 -0.00000000000E+00  0.00000000000E+00  0.62222588055E+02  0.62222588230E+02  0.46700000000E-02 0.  1.
          1   -1    0    0  501    0  0.00000000000E+00 -0.00000000000E+00 -0.38040875790E+02  0.38040876076E+02  0.46700000000E-02 0. -1.
         23    2    1    2    0    0  0.00000000000E+00  0.00000000000E+00  0.24181712266E+02  0.10026346431E+03  0.97303684754E+02 0.  0.
        -11    1    3    3    0    0  0.46735124149E+02  0.10532533008E+02  0.20827906401E+02  0.52238948746E+02  0.51100000000E-03 0. -1.
         11    1    3    3    0    0 -0.46735124149E+02 -0.10532533008E+02  0.33538058641E+01  0.48024515561E+02  0.51100000000E-03 0.  1.
<mgrwt>
<rscale>  0 0.97303685E+02</rscale>
<asrwt>0</asrwt>
<pdfrwt beam="2">  1        1 0.58524426E-02 0.97303685E+02</pdfrwt>
<pdfrwt beam="1">  1       -1 0.95727057E-02 0.97303685E+02</pdfrwt>
<totfact> 0.74745056E+04</totfact>
</mgrwt>
</event>
<event>
 5   1  0.1357339E+00  0.9431042E+02  0.7818608E-02  0.1292737E+00
          1   -1    0    0  501    0  0.00000000000E+00  0.00000000000E+00  0.11379689789E+03  0.11379689799E+03  0.46700000000E-02 0.  1.
         -1   -1    0    0    0  501 -0.00000000000E+00 -0.00000000000E+00 -0.19540196915E+02  0.19540197473E+02  0.46700000000E-02 0. -1.
         23    2    1    2    0    0  0.00000000000E+00  0.00000000000E+00  0.94256700976E+02  0.13333709546E+03  0.94310420139E+02 0.  0.
        -11    1    3    3    0    0  0.10688334829E+02 -0.45159383404E+02  0.58957430170E+02  0.75030586985E+02  0.51100000000E-03 0.  1.
         11    1    3    3    0    0 -0.10688334829E+02  0.45159383404E+02  0.35299270806E+02  0.58306508475E+02  0.51100000000E-03 0. -1.
<mgrwt>
<rscale>  0 0.94310420E+02</rscale>
<asrwt>0</asrwt>
<pdfrwt beam="1">  1        1 0.17507215E-01 0.94310420E+02</pdfrwt>
<pdfrwt beam="2">  1       -1 0.30061842E-02 0.94310420E+02</pdfrwt>
<totfact> 0.97368134E+04</totfact>
</mgrwt>
</event>
<event>
 5   1  0.1357339E+00  0.9168950E+02  0.7818608E-02  0.1298811E+00
          1   -1    0    0  501    0  0.00000000000E+00  0.00000000000E+00  0.13833319005E+02  0.13833319793E+02  0.46700000000E-02 0. -1.
         -1   -1    0    0    0  501 -0.00000000000E+00 -0.00000000000E+00 -0.15193324412E+03  0.15193324419E+03  0.46700000000E-02 0.  1.
         23    2    1    2    0    0  0.00000000000E+00  0.00000000000E+00 -0.13809992512E+03  0.16576656399E+03  0.91689500046E+02 0.  0.
        -11    1    3    3    0    0 -0.45076265108E+02  0.83267721569E+01 -0.67725990830E+02  0.81780282739E+02  0.51100000000E-03 0. -1.
         11    1    3    3    0    0  0.45076265108E+02 -0.83267721569E+01 -0.70373934287E+02  0.83986281248E+02  0.51100000000E-03 0.  1.
<mgrwt>
<rscale>  0 0.91689500E+02</rscale>
<asrwt>0</asrwt>
<pdfrwt beam="1">  1        1 0.21282031E-02 0.91689500E+02</pdfrwt>
<pdfrwt beam="2">  1       -1 0.23374344E-01 0.91689500E+02</pdfrwt>
<totfact> 0.73485044E+04</totfact>
</mgrwt>
</event>
<event>
 5   1  0.1357339E+00  0.9152402E+02  0.7818608E-02  0.1299202E+00
         -1   -1    0    0    0  501 -0.00000000000E+00  0.00000000000E+00  0.10678015434E+02  0.10678016455E+02  0.46700000000E-02 0.  1.
          1   -1    0    0  501    0  0.00000000000E+00 -0.00000000000E+00 -0.19611899264E+03  0.19611899269E+03  0.46700000000E-02 0. -1.
         23    2    1    2    0    0  0.00000000000E+00  0.00000000000E+00 -0.18544097720E+03  0.20679700915E+03  0.91524023985E+02 0.  0.
        -11    1    3    3    0    0  0.22512244963E+01  0.41029521182E+02 -0.13822942950E+03  0.14420771408E+03  0.51100000000E-03 0. -1.
         11    1    3    3    0    0 -0.22512244963E+01 -0.41029521182E+02 -0.47211547701E+02  0.62589295065E+02  0.51100000000E-03 0.  1.
<mgrwt>
<rscale>  0 0.91524024E+02</rscale>
<asrwt>0</asrwt>
<pdfrwt beam="2">  1        1 0.30172150E-01 0.91524024E+02</pdfrwt>
<pdfrwt beam="1">  1       -1 0.16427718E-02 0.91524024E+02</pdfrwt>
<totfact> 0.11675953E+05</totfact>
</mgrwt>
</event>
<event>
 5   1  0.1357339E+00  0.8479129E+02  0.7818608E-02  0.1315979E+00
          1   -1    0    0  501    0  0.00000000000E+00  0.00000000000E+00  0.57756238117E+02  0.57756238306E+02  0.46700000000E-02 0. -1.
         -1   -1    0    0    0  501 -0.00000000000E+00 -0.00000000000E+00 -0.31120289294E+02  0.31120289645E+02  0.46700000000E-02 0.  1.
         23    2    1    2    0    0  0.00000000000E+00  0.00000000000E+00  0.26635948822E+02  0.88876527950E+02  0.84791293485E+02 0.  0.
        -11    1    3    3    0    0 -0.41830777952E+02 -0.49198686810E+01  0.82506159539E+01  0.42919596407E+02  0.51100000000E-03 0.  1.
         11    1    3    3    0    0  0.41830777952E+02  0.49198686810E+01  0.18385332869E+02  0.45956931543E+02  0.51100000000E-03 0. -1.
<mgrwt>
<rscale>  0 0.84791293E+02</rscale>
<asrwt>0</asrwt>
<pdfrwt beam="1">  1        1 0.88855749E-02 0.84791293E+02</pdfrwt>
<pdfrwt beam="2">  1       -1 0.47877370E-02 0.84791293E+02</pdfrwt>
<totfact> 0.11708529E+05</totfact>
</mgrwt>
</event>
<event>
 5   1  0.1357339E+00  0.9532956E+02  0.7818608E-02  0.1290436E+00
         -1   -1    0    0    0  501 -0.00000000000E+00  0.00000000000E+00  0.28748173524E+02  0.28748173903E+02  0.46700000000E-02 0.  1.
          1   -1    0    0  501    0  0.00000000000E+00 -0.00000000000E+00 -0.79028718795E+02  0.79028718933E+02  0.46700000000E-02 0. -1.
         23    2    1    2    0    0  0.00000000000E+00  0.00000000000E+00 -0.50280545271E+02  0.10777689284E+03  0.95329562029E+02 0.  0.
        -11    1    3    3    0    0 -0.36786283200E+02  0.27202528342E+02 -0.40254588339E+02  0.60939642783E+02  0.51100000000E-03 0. -1.
         11    1    3    3    0    0  0.36786283200E+02 -0.27202528342E+02 -0.10025956932E+02  0.46837250053E+02  0.51100000000E-03 0.  1.
<mgrwt>
<rscale>  0 0.95329562E+02</rscale>
<asrwt>0</asrwt>
<pdfrwt beam="2">  1        1 0.12158264E-01 0.95329562E+02</pdfrwt>
<pdfrwt beam="1">  1       -1 0.44227960E-02 0.95329562E+02</pdfrwt>
<totfact> 0.88931445E+04</totfact>
</mgrwt>
</event>
<event>
 5   1  0.1357339E+00  0.9496231E+02  0.7818608E-02  0.1291261E+00
          1   -1    0    0  501    0  0.00000000000E+00  0.00000000000E+00  0.22477262761E+02  0.22477263246E+02  0.46700000000E-02 0. -1.
         -1   -1    0    0    0  501 -0.00000000000E+00 -0.00000000000E+00 -0.10029957117E+03  0.10029957128E+03  0.46700000000E-02 0.  1.
         23    2    1    2    0    0  0.00000000000E+00  0.00000000000E+00 -0.77822308405E+02  0.12277683452E+03  0.94962305204E+02 0.  0.
        -11    1    3    3    0    0 -0.45886639521E+02  0.84813293062E+01 -0.27570180096E+02  0.54199921255E+02  0.51100000000E-03 0.  1.
         11    1    3    3    0    0  0.45886639521E+02 -0.84813293062E+01 -0.50252128309E+02  0.68576913266E+02  0.51100000000E-03 0. -1.
<mgrwt>
<rscale>  0 0.94962305E+02</rscale>
<asrwt>0</asrwt>
<pdfrwt beam="1">  1        1 0.34580405E-02 0.94962305E+02</pdfrwt>
<pdfrwt beam="2">  1       -1 0.15430703E-01 0.94962305E+02</pdfrwt>
<totfact> 0.73224884E+04</totfact>
</mgrwt>
</event>
<event>
 5   1  0.1357339E+00  0.9341882E+02  0.7818608E-02  0.1294778E+00
         -1   -1    0    0    0  501 -0.00000000000E+00  0.00000000000E+00  0.45637536105E+02  0.45637536344E+02  0.46700000000E-02 0.  1.
          1   -1    0    0  501    0  0.00000000000E+00 -0.00000000000E+00 -0.47806457515E+02  0.47806457743E+02  0.46700000000E-02 0. -1.
         23    2    1    2    0    0  0.00000000000E+00  0.00000000000E+00 -0.21689214092E+01  0.93443994087E+02  0.93418819361E+02 0.  0.
        -11    1    3    3    0    0 -0.45670674105E+02  0.59216280610E+01  0.67210260717E+01  0.46540824486E+02  0.51100000000E-03 0. -1.
         11    1    3    3    0    0  0.45670674105E+02 -0.59216280610E+01 -0.88899474810E+01  0.46903169601E+02  0.51100000000E-03 0.  1.
<mgrwt>
<rscale>  0 0.93418819E+02</rscale>
<asrwt>0</asrwt>
<pdfrwt beam="2">  1        1 0.73548397E-02 0.93418819E+02</pdfrwt>
<pdfrwt beam="1">  1       -1 0.70211594E-02 0.93418819E+02</pdfrwt>
<totfact> 0.86991558E+04</totfact>
</mgrwt>
</event>
<event>
 5   1  0.1357339E+00  0.9171993E+02  0.7818608E-02  0.1298739E+00
          1   -1    0    0  501    0  0.00000000000E+00  0.00000000000E+00  0.13081632421E+03  0.13081632430E+03  0.46700000000E-02 0. -1.
         -1   -1    0    0    0  501 -0.00000000000E+00 -0.00000000000E+00 -0.16077016906E+02  0.16077017584E+02  0.46700000000E-02 0.  1.
         23    2    1    2    0    0  0.00000000000E+00  0.00000000000E+00  0.11473930731E+03  0.14689334188E+03  0.91719928302E+02 0.  0.
        -11    1    3    3    0    0  0.16669106785E+02 -0.42638095811E+02  0.61687874998E+02  0.76819660618E+02  0.51100000000E-03 0. -1.
         11    1    3    3    0    0 -0.16669106785E+02  0.42638095811E+02  0.53051432309E+02  0.70073681263E+02  0.51100000000E-03 0.  1.
<mgrwt>
<rscale>  0 0.91719928E+02</rscale>
<asrwt>0</asrwt>
<pdfrwt beam="1">  1        1 0.20125588E-01 0.91719928E+02</pdfrwt>
<pdfrwt beam="2">  1       -1 0.24733873E-02 0.91719928E+02</pdfrwt>
<totfact> 0.10764272E+05</totfact>
</mgrwt>
</event>
<event>
 5   1  0.1357339E+00  0.9011617E+02  0.7818608E-02  0.1302571E+00
          1   -1    0    0  501    0  0.00000000000E+00  0.00000000000E+00  0.21178826328E+03  0.21178826333E+03  0.46700000000E-02 0. -1.
         -1   -1    0    0    0  501 -0.00000000000E+00 -0.00000000000E+00 -0.95861343501E+01  0.95861354876E+01  0.46700000000E-02 0.  1.
         23    2    1    2    0    0  0.00000000000E+00  0.00000000000E+00  0.20220212893E+03  0.22137439882E+03  0.90116166744E+02 0.  0.
        -11    1    3    3    0    0  0.30686613444E+02  0.32983083426E+02  0.10312505448E+03  0.11253590049E+03  0.51100000000E-03 0.  1.
         11    1    3    3    0    0 -0.30686613444E+02 -0.32983083426E+02  0.99077074450E+02  0.10883849833E+03  0.51100000000E-03 0. -1.
<mgrwt>
<rscale>  0 0.90116167E+02</rscale>
<asrwt>0</asrwt>
<pdfrwt beam="1">  1        1 0.32582808E-01 0.90116167E+02</pdfrwt>
<pdfrwt beam="2">  1       -1 0.14747901E-02 0.90116167E+02</pdfrwt>
<totfact> 0.12354006E+05</totfact>
</mgrwt>
</event>
<event>
 5   1  0.1357339E+00  0.9161314E+02  0.7818608E-02  0.1298992E+00
          1   -1    0    0  501    0  0.00000000000E+00  0.00000000000E+00  0.31325533173E+02  0.31325533521E+02  0.46700000000E-02 0. -1.
         -1   -1    0    0    0  501 -0.00000000000E+00 -0.00000000000E+00 -0.66981836769E+02  0.66981836932E+02  0.46700000000E-02 0.  1.
         23    2    1    2    0    0  0.00000000000E+00  0.00000000000E+00 -0.35656303596E+02  0.98307370453E+02  0.91613138246E+02 0.  0.
        -11    1    3    3    0    0 -0.19679235433E+02 -0.21341416640E+02  0.20194201769E+02  0.35362892370E+02  0.51100000000E-03 0. -1.
         11    1    3    3    0    0  0.19679235433E+02  0.21341416640E+02 -0.55850505365E+02  0.62944478084E+02  0.51100000000E-03 0.  1.
<mgrwt>
<rscale>  0 0.91613138E+02</rscale>
<asrwt>0</asrwt>
<pdfrwt beam="1">  1        1 0.48193128E-02 0.91613138E+02</pdfrwt>
<pdfrwt beam="2">  1       -1 0.10304898E-01 0.91613138E+02</pdfrwt>
<totfact> 0.86100781E+04</totfact>
</mgrwt>
</event>
<event>
 5   1  0.1357339E+00  0.9029426E+02  0.7818608E-02  0.1302141E+00
          1   -1    0    0  501    0  0.00000000000E+00  0.00000000000E+00  0.28524474714E+02  0.28524475096E+02  0.46700000000E-02 0. -1.
         -1   -1    0    0    0  501 -0.00000000000E+00 -0.00000000000E+00 -0.71456653974E+02  0.71456654127E+02  0.46700000000E-02 0.  1.
         23    2    1    2    0    0  0.00000000000E+00  0.00000000000E+00 -0.42932179260E+02  0.99981129223E+02  0.90294264407E+02 0.  0.
        -11    1    3    3    0    0 -0.16223857608E+02  0.26322057364E+02  0.14959911339E+02  0.34349136919E+02  0.51100000000E-03 0. -1.
         11    1    3    3    0    0  0.16223857608E+02 -0.26322057364E+02 -0.57892090599E+02  0.65631992304E+02  0.51100000000E-03 0.  1.
<mgrwt>
<rscale>  0 0.90294264E+02</rscale>
<asrwt>0</asrwt>
<pdfrwt beam="1">  1        1 0.43883808E-02 0.90294264E+02</pdfrwt>
<pdfrwt beam="2">  1       -1 0.10993331E-01 0.90294264E+02</pdfrwt>
<totfact> 0.88415809E+04</totfact>
</mgrwt>
</event>
<event>
 5   1  0.1357339E+00  0.9624985E+02  0.7818608E-02  0.1288386E+00
          1   -1    0    0  501    0  0.00000000000E+00  0.00000000000E+00  0.11572293374E+02  0.11572294317E+02  0.46700000000E-02 0. -1.
         -1   -1    0    0    0  501 -0.00000000000E+00 -0.00000000000E+00 -0.20013390305E+03  0.20013390310E+03  0.46700000000E-02 0.  1.
         23    2    1    2    0    0  0.00000000000E+00  0.00000000000E+00 -0.18856160967E+03  0.21170619742E+03  0.96249848742E+02 0.  0.
        -11    1    3    3    0    0  0.18928501974E+02  0.39830576425E+02 -0.13666110433E+03  0.14360021045E+03  0.51100000000E-03 0.  1.
         11    1    3    3    0    0 -0.18928501974E+02 -0.39830576425E+02 -0.51900505343E+02  0.68105986965E+02  0.51100000000E-03 0. -1.
<mgrwt>
<rscale>  0 0.96249849E+02</rscale>
<asrwt>0</asrwt>
<pdfrwt beam="1">  1        1 0.17803530E-02 0.96249849E+02</pdfrwt>
<pdfrwt beam="2">  1       -1 0.30789829E-01 0.96249849E+02</pdfrwt>
<totfact> 0.60259392E+04</totfact>
</mgrwt>
</event>
<event>
 5   1  0.1357339E+00  0.5583263E+02  0.7818608E-02  0.1416202E+00
         -1   -1    0    0    0  501 -0.00000000000E+00  0.00000000000E+00  0.10487229610E+02  0.10487230649E+02  0.46700000000E-02 0.  1.
          1   -1    0    0  501    0  0.00000000000E+00 -0.00000000000E+00 -0.74311400961E+02  0.74311401108E+02  0.46700000000E-02 0. -1.
         23    2    1    2    0    0  0.00000000000E+00  0.00000000000E+00 -0.63824171351E+02  0.84798631757E+02  0.55832634715E+02 0.  0.
        -11    1    3    3    0    0  0.23050419751E+02 -0.15208633572E+02 -0.38118088888E+02  0.47070299410E+02  0.51100000000E-03 0. -1.
         11    1    3    3    0    0 -0.23050419751E+02  0.15208633572E+02 -0.25706082464E+02  0.37728332347E+02  0.51100000000E-03 0.  1.
<mgrwt>
<rscale>  0 0.55832635E+02</rscale>
<asrwt>0</asrwt>
<pdfrwt beam="2">  1        1 0.11432523E-01 0.55832635E+02</pdfrwt>
<pdfrwt beam="1">  1       -1 0.16134201E-02 0.55832635E+02</pdfrwt>
<totfact> 0.36700852E+05</totfact>
</mgrwt>
</event>
<event>
 5   1  0.1357339E+00  0.9228813E+02  0.7818608E-02  0.1297403E+00
         -1   -1    0    0    0  501 -0.00000000000E+00  0.00000000000E+00  0.12223594491E+02  0.12223595383E+02  0.46700000000E-02 0.  1.
          1   -1    0    0  501    0  0.00000000000E+00 -0.00000000000E+00 -0.17419381301E+03  0.17419381308E+03  0.46700000000E-02 0. -1.
         23    2    1    2    0    0  0.00000000000E+00  0.00000000000E+00 -0.16197021852E+03  0.18641740846E+03  0.92288127560E+02 0.  0.
        -11    1    3    3    0    0 -0.31899501693E+02 -0.31232627599E+02 -0.10456056474E+03  0.11369242250E+03  0.51100000000E-03 0. -1.
         11    1    3    3    0    0  0.31899501693E+02  0.31232627599E+02 -0.57409653778E+02  0.72724985955E+02  0.51100000000E-03 0.  1.
<mgrwt>
<rscale>  0 0.92288128E+02</rscale>
<asrwt>0</asrwt>
<pdfrwt beam="2">  1        1 0.26799046E-01 0.92288128E+02</pdfrwt>
<pdfrwt beam="1">  1       -1 0.18805532E-02 0.92288128E+02</pdfrwt>
<totfact> 0.11160360E+05</totfact>
</mgrwt>
</event>
<event>
 5   1  0.1357339E+00  0.9466619E+02  0.7818608E-02  0.1291930E+00
         -1   -1    0    0    0  501 -0.00000000000E+00  0.00000000000E+00  0.18540561035E+02  0.18540561623E+02  0.46700000000E-02 0.  1.
          1   -1    0    0  501    0  0.00000000000E+00 -0.00000000000E+00 -0.12083894791E+03  0.12083894800E+03  0.46700000000E-02 0. -1.
         23    2    1    2    0    0  0.00000000000E+00  0.00000000000E+00 -0.10229838688E+03  0.13937950963E+03  0.94666191145E+02 0.  0.
        -11    1    3    3    0    0 -0.20858299387E+02 -0.13144043344E+02  0.83405710462E+01  0.26026902512E+02  0.51100000000E-03 0.  1.
         11    1    3    3    0    0  0.20858299387E+02  0.13144043344E+02 -0.11063895793E+03  0.11335260712E+03  0.51100000000E-03 0. -1.
<mgrwt>
<rscale>  0 0.94666191E+02</rscale>
<asrwt>0</asrwt>
<pdfrwt beam="2">  1        1 0.18590607E-01 0.94666191E+02</pdfrwt>
<pdfrwt beam="1">  1       -1 0.28523941E-02 0.94666191E+02</pdfrwt>
<totfact> 0.97393823E+04</totfact>
</mgrwt>
</event>
<event>
 5   1  0.1357339E+00  0.9097512E+02  0.7818608E-02  0.1300507E+00
          1   -1    0    0  501    0  0.00000000000E+00  0.00000000000E+00  0.73736269884E+02  0.73736270032E+02  0.46700000000E-02 0. -1.
         -1   -1    0    0    0  501 -0.00000000000E+00 -0.00000000000E+00 -0.28061063323E+02  0.28061063712E+02  0.46700000000E-02 0.  1.
         23    2    1    2    0    0  0.00000000000E+00  0.00000000000E+00  0.45675206561E+02  0.10179733374E+03  0.90975121120E+02 0.  0.
        -11    1    3    3    0    0 -0.13558676511E+02 -0.80844010935E+01 -0.24897762797E+02  0.29480397594E+02  0.51100000000E-03 0.  1.
         11    1    3    3    0    0  0.13558676511E+02  0.80844010935E+01  0.70572969358E+02  0.72316936149E+02  0.51100000000E-03 0. -1.
<mgrwt>
<rscale>  0 0.90975121E+02</rscale>
<asrwt>0</asrwt>
<pdfrwt beam="1">  1        1 0.11344042E-01 0.90975121E+02</pdfrwt>
<pdfrwt beam="2">  1       -1 0.43170867E-02 0.90975121E+02</pdfrwt>
<totfact> 0.10007390E+05</totfact>
</mgrwt>
</event>
<event>
 5   1  0.1357339E+00  0.9068835E+02  0.7818608E-02  0.1301193E+00
         -1   -1    0    0    0  501 -0.00000000000E+00  0.00000000000E+00  0.11331277595E+03  0.11331277605E+03  0.46700000000E-02 0.  1.
          1   -1    0    0  501    0  0.00000000000E+00 -0.00000000000E+00 -0.18145300121E+02  0.18145300722E+02  0.46700000000E-02 0. -1.
         23    2    1    2    0    0  0.00000000000E+00  0.00000000000E+00  0.95167475829E+02  0.13145807677E+03  0.90688353673E+02 0.  0.
        -11    1    3    3    0    0 -0.91766040671E+01  0.26198600366E+02  0.99556377957E+02  0.10335399903E+03  0.51100000000E-03 0.  1.
         11    1    3    3    0    0  0.91766040671E+01 -0.26198600366E+02 -0.43889021281E+01  0.28104077738E+02  0.51100000000E-03 0. -1.
<mgrwt>
<rscale>  0 0.90688354E+02</rscale>
<asrwt>0</asrwt>
<pdfrwt beam="2">  1        1 0.27915847E-02 0.90688354E+02</pdfrwt>
<pdfrwt beam="1">  1       -1 0.17432735E-01 0.90688354E+02</pdfrwt>
<totfact> 0.80551478E+04</totfact>
</mgrwt>
</event>
<event>
 5   1  0.1357339E+00  0.9110090E+02  0.7818608E-02  0.1300207E+00
         -1   -1    0    0    0  501 -0.00000000000E+00  0.00000000000E+00  0.77874251704E+01  0.77874265706E+01  0.46700000000E-02 0.  1.
          1   -1    0    0  501    0  0.00000000000E+00 -0.00000000000E+00 -0.26643506768E+03  0.26643506772E+03  0.46700000000E-02 0. -1.
         23    2    1    2    0    0  0.00000000000E+00  0.00000000000E+00 -0.25864764251E+03  0.27422249429E+03  0.91100896811E+02 0.  0.
        -11    1    3    3    0    0  0.15941315043E+02  0.32198382190E+02 -0.45042085201E+02  0.57616410687E+02  0.51100000000E-03 0.  1.
         11    1    3    3    0    0 -0.15941315043E+02 -0.32198382190E+02 -0.21360555731E+03  0.21660608361E+03  0.51100000000E-03 0. -1.
<mgrwt>
<rscale>  0 0.91100897E+02</rscale>
<asrwt>0</asrwt>
<pdfrwt beam="2">  1        1 0.40990003E-01 0.91100897E+02</pdfrwt>
<pdfrwt beam="1">  1       -1 0.11980657E-02 0.91100897E+02</pdfrwt>
<totfact> 0.12549607E+05</totfact>
</mgrwt>
</event>
<event>
 5   1  0.1357339E+00  0.5984217E+02  0.7818608E-02  0.1398495E+00
          1   -1    0    0  501    0  0.00000000000E+00  0.00000000000E+00  0.22775001706E+02  0.22775002184E+02  0.46700000000E-02 0.  1.
         -1   -1    0    0    0  501 -0.00000000000E+00 -0.00000000000E+00 -0.39309385225E+02  0.39309385502E+02  0.46700000000E-02 0. -1.
         23    2    1    2    0    0  0.00000000000E+00  0.00000000000E+00 -0.16534383519E+02  0.62084387687E+02  0.59842170382E+02 0.  0.
        -11    1    3    3    0    0  0.27243988918E+00 -0.18916866126E+02 -0.32316545259E+02  0.37447044547E+02  0.51100000000E-03 0.  1.
         11    1    3    3    0    0 -0.27243988918E+00  0.18916866126E+02  0.15782161740E+02  0.24637343140E+02  0.51100000000E-03 0. -1.
<mgrwt>
<rscale>  0 0.59842170E+02</rscale>
<asrwt>0</asrwt>
<pdfrwt beam="1">  1        1 0.35038465E-02 0.59842170E+02</pdfrwt>
<pdfrwt beam="2">  1       -1 0.60475978E-02 0.59842170E+02</pdfrwt>
<totfact> 0.26933528E+05</totfact>
</mgrwt>
</event>
<event>
 5   1  0.1357339E+00  0.1014610E+03  0.7818608E-02  0.1277253E+00
         -1   -1    0    0    0  501 -0.00000000000E+00  0.00000000000E+00  0.15378676293E+02  0.15378677002E+02  0.46700000000E-02 0.  1.
          1   -1    0    0  501    0  0.00000000000E+00 -0.00000000000E+00 -0.16734740353E+03  0.16734740359E+03  0.46700000000E-02 0. -1.
         23    2    1    2    0    0  0.00000000000E+00  0.00000000000E+00 -0.15196872723E+03  0.18272608059E+03  0.10146096033E+03 0.  0.
        -11    1    3    3    0    0 -0.25092108083E+02  0.39516450378E+02 -0.40765879051E+02  0.62072704417E+02  0.51100000000E-03 0.  1.
         11    1    3    3    0    0  0.25092108083E+02 -0.39516450378E+02 -0.11120284818E+03  0.12065337618E+03  0.51100000000E-03 0. -1.
<mgrwt>
<rscale>  0 0.10146096E+03</rscale>
<asrwt>0</asrwt>
<pdfrwt beam="2">  1        1 0.25745753E-01 0.10146096E+03</pdfrwt>
<pdfrwt beam="1">  1       -1 0.23659504E-02 0.10146096E+03</pdfrwt>
<totfact> 0.85665466E+04</totfact>
</mgrwt>
</event>
<event>
 5   1  0.1357339E+00  0.9121303E+02  0.7818608E-02  0.1299940E+00
          1   -1    0    0  501    0  0.00000000000E+00  0.00000000000E+00  0.21091669763E+03  0.21091669768E+03  0.46700000000E-02 0. -1.
         -1   -1    0    0    0  501 -0.00000000000E+00 -0.00000000000E+00 -0.98614964707E+01  0.98614975765E+01  0.46700000000E-02 0.  1.
         23    2    1    2    0    0  0.00000000000E+00  0.00000000000E+00  0.20105520116E+03  0.22077819525E+03  0.91213034091E+02 0.  0.
        -11    1    3    3    0    0 -0.31949283543E+02  0.27071299105E+02  0.14425322867E+03  0.15020854149E+03  0.51100000000E-03 0.  1.
         11    1    3    3    0    0  0.31949283543E+02 -0.27071299105E+02  0.56801972488E+02  0.70569653768E+02  0.51100000000E-03 0. -1.
<mgrwt>
<rscale>  0 0.91213034E+02</rscale>
<asrwt>0</asrwt>
<pdfrwt beam="1">  1        1 0.32448718E-01 0.91213034E+02</pdfrwt>
<pdfrwt beam="2">  1       -1 0.15171536E-02 0.91213034E+02</pdfrwt>
<totfact> 0.11950834E+05</totfact>
</mgrwt>
</event>
<event>
 5   1  0.1357339E+00  0.9252598E+02  0.7818608E-02  0.1296847E+00
         -1   -1    0    0    0  501 -0.00000000000E+00  0.00000000000E+00  0.25388792603E+03  0.25388792607E+03  0.46700000000E-02 0.  1.
          1   -1    0    0  501    0  0.00000000000E+00 -0.00000000000E+00 -0.84299556147E+01  0.84299569082E+01  0.46700000000E-02 0. -1.
         23    2    1    2    0    0  0.00000000000E+00  0.00000000000E+00  0.24545797041E+03  0.26231788298E+03  0.92525977386E+02 0.  0.
        -11    1    3    3    0    0 -0.26096277128E+02  0.37461388393E+02  0.10153355495E+03  0.11132580150E+03  0.51100000000E-03 0.  1.
         11    1    3    3    0    0  0.26096277128E+02 -0.37461388393E+02  0.14392441547E+03  0.15099208147E+03  0.51100000000E-03 0. -1.
<mgrwt>
<rscale>  0 0.92525977E+02</rscale>
<asrwt>0</asrwt>
<pdfrwt beam="2">  1        1 0.12969165E-02 0.92525977E+02</pdfrwt>
<pdfrwt beam="1">  1       -1 0.39059677E-01 0.92525977E+02</pdfrwt>
<totfact> 0.61997742E+04</totfact>
</mgrwt>
</event>
<event>
 5   1  0.1357339E+00  0.8970842E+02  0.7818608E-02  0.1303559E+00
          1   -1    0    0  501    0  0.00000000000E+00  0.00000000000E+00  0.36047259650E+02  0.36047259952E+02  0.46700000000E-02 0. -1.
         -1   -1    0    0    0  501 -0.00000000000E+00 -0.00000000000E+00 -0.55812850634E+02  0.55812850830E+02  0.46700000000E-02 0.  1.
         23    2    1    2    0    0  0.00000000000E+00  0.00000000000E+00 -0.19765590985E+02  0.91860110782E+02  0.89708424163E+02 0.  0.
        -11    1    3    3    0    0 -0.26977919722E+02 -0.29009430825E+02 -0.31424125351E+02  0.50565115284E+02  0.51100000000E-03 0.  1.
         11    1    3    3    0    0  0.26977919722E+02  0.29009430825E+02  0.11658534366E+02  0.41294995498E+02  0.51100000000E-03 0. -1.
<mgrwt>
<rscale>  0 0.89708424E+02</rscale>
<asrwt>0</asrwt>
<pdfrwt beam="1">  1        1 0.55457323E-02 0.89708424E+02</pdfrwt>
<pdfrwt beam="2">  1       -1 0.85865925E-02 0.89708424E+02</pdfrwt>
<totfact> 0.93432233E+04</totfact>
</mgrwt>
</event>
<event>
 5   1  0.1357339E+00  0.8970124E+02  0.7818608E-02  0.1303577E+00
          1   -1    0    0  501    0  0.00000000000E+00  0.00000000000E+00  0.13413341742E+02  0.13413342555E+02  0.46700000000E-02 0. -1.
         -1   -1    0    0    0  501 -0.00000000000E+00 -0.00000000000E+00 -0.14996844207E+03  0.14996844214E+03  0.46700000000E-02 0.  1.
         23    2    1    2    0    0  0.00000000000E+00  0.00000000000E+00 -0.13655510033E+03  0.16338178470E+03  0.89701238260E+02 0.  0.
        -11    1    3    3    0    0 -0.24872470287E+02 -0.23964601406E+02 -0.16164000762E+02  0.38134194886E+02  0.51100000000E-03 0. -1.
         11    1    3    3    0    0  0.24872470287E+02  0.23964601406E+02 -0.12039109956E+03  0.12524758981E+03  0.51100000000E-03 0.  1.
<mgrwt>
<rscale>  0 0.89701238E+02</rscale>
<asrwt>0</asrwt>
<pdfrwt beam="1">  1        1 0.20635912E-02 0.89701238E+02</pdfrwt>
<pdfrwt beam="2">  1       -1 0.23072067E-01 0.89701238E+02</pdfrwt>
<totfact> 0.78023781E+04</totfact>
</mgrwt>
</event>
<event>
 5   1  0.1357339E+00  0.8750124E+02  0.7818608E-02  0.1309018E+00
          1   -1    0    0  501    0  0.00000000000E+00  0.00000000000E+00  0.59736613493E+02  0.59736613675E+02  0.46700000000E-02 0. -1.
         -1   -1    0    0    0  501 -0.00000000000E+00 -0.00000000000E+00 -0.32042602507E+02  0.32042602847E+02  0.46700000000E-02 0.  1.
         23    2    1    2    0    0  0.00000000000E+00  0.00000000000E+00  0.27694010986E+02  0.91779216522E+02  0.87501236225E+02 0.  0.
        -11    1    3    3    0    0 -0.19033073298E+02 -0.26473546485E+02 -0.16751308692E+02  0.36656689510E+02  0.51100000000E-03 0.  1.
         11    1    3    3    0    0  0.19033073298E+02  0.26473546485E+02  0.44445319678E+02  0.55122527012E+02  0.51100000000E-03 0. -1.
<mgrwt>
<rscale>  0 0.87501236E+02</rscale>
<asrwt>0</asrwt>
<pdfrwt beam="1">  1        1 0.91902482E-02 0.87501236E+02</pdfrwt>
<pdfrwt beam="2">  1       -1 0.49296312E-02 0.87501236E+02</pdfrwt>
<totfact> 0.10790511E+05</totfact>
</mgrwt>
</event>
<event>
 5   1  0.1357339E+00  0.9211518E+02  0.7818608E-02  0.1297809E+00
          1   -1    0    0  501    0  0.00000000000E+00  0.00000000000E+00  0.16229830461E+02  0.16229831133E+02  0.46700000000E-02 0. -1.
         -1   -1    0    0    0  501 -0.00000000000E+00 -0.00000000000E+00 -0.13070386181E+03  0.13070386189E+03  0.46700000000E-02 0.  1.
         23    2    1    2    0    0  0.00000000000E+00  0.00000000000E+00 -0.11447403135E+03  0.14693369303E+03  0.92115179493E+02 0.  0.
        -11    1    3    3    0    0 -0.97449862161E+01 -0.42436986670E+02 -0.81186970361E+02  0.92125928764E+02  0.51100000000E-03 0.  1.
         11    1    3    3    0    0  0.97449862161E+01  0.42436986670E+02 -0.33287060989E+02  0.54807764263E+02  0.51100000000E-03 0. -1.
<mgrwt>
<rscale>  0 0.92115179E+02</rscale>
<asrwt>0</asrwt>
<pdfrwt beam="1">  1        1 0.24968971E-02 0.92115179E+02</pdfrwt>
<pdfrwt beam="2">  1       -1 0.20108286E-01 0.92115179E+02</pdfrwt>
<totfact> 0.75114747E+04</totfact>
</mgrwt>
</event>
<event>
 5   1  0.1357339E+00  0.9233568E+02  0.7818608E-02  0.1297292E+00
          1   -1    0    0  501    0  0.00000000000E+00  0.00000000000E+00  0.17765036220E+03  0.17765036226E+03  0.46700000000E-02 0. -1.
         -1   -1    0    0    0  501 -0.00000000000E+00 -0.00000000000E+00 -0.11998113551E+02  0.11998114460E+02  0.46700000000E-02 0.  1.
         23    2    1    2    0    0  0.00000000000E+00  0.00000000000E+00  0.16565224865E+03  0.18964847672E+03  0.92335676961E+02 0.  0.
        -11    1    3    3    0    0 -0.37104494061E+02  0.24917464185E+02  0.59064167125E+02  0.74068882396E+02  0.51100000000E-03 0. -1.
         11    1    3    3    0    0  0.37104494061E+02 -0.24917464185E+02  0.10658808152E+03  0.11557959432E+03  0.51100000000E-03 0.  1.
<mgrwt>
<rscale>  0 0.92335677E+02</rscale>
<asrwt>0</asrwt>
<pdfrwt beam="1">  1        1 0.27330822E-01 0.92335677E+02</pdfrwt>
<pdfrwt beam="2">  1       -1 0.18458639E-02 0.92335677E+02</pdfrwt>
<totfact> 0.11186658E+05</totfact>
</mgrwt>
</event>
<event>
 5   1  0.1357339E+00  0.8553551E+02  0.7818608E-02  0.1314038E+00
          1   -1    0    0  501    0  0.00000000000E+00  0.00000000000E+00  0.16766143629E+02  0.16766144280E+02  0.46700000000E-02 0. -1.
         -1   -1    0    0    0  501 -0.00000000000E+00 -0.00000000000E+00 -0.10909370271E+03  0.10909370281E+03  0.46700000000E-02 0.  1.
         23    2    1    2    0    0  0.00000000000E+00  0.00000000000E+00 -0.92327559079E+02  0.12585984709E+03  0.85535506917E+02 0.  0.
        -11    1    3    3    0    0  0.35948394638E+01  0.19243516377E+02  0.97864182720E+01  0.21886291969E+02  0.51100000000E-03 0. -1.
         11    1    3    3    0    0 -0.35948394638E+01 -0.19243516377E+02 -0.10211397735E+03  0.10397355512E+03  0.51100000000E-03 0.  1.
<mgrwt>
<rscale>  0 0.85535507E+02</rscale>
<asrwt>0</asrwt>
<pdfrwt beam="1">  1        1 0.25794068E-02 0.85535507E+02</pdfrwt>
<pdfrwt beam="2">  1       -1 0.16783646E-01 0.85535507E+02</pdfrwt>
<totfact> 0.94342314E+04</totfact>
</mgrwt>
</event>
<event>
 5   1  0.1357339E+00  0.9238413E+02  0.7818608E-02  0.1297179E+00
          1   -1    0    0  501    0  0.00000000000E+00  0.00000000000E+00  0.64929202845E+01  0.64929219639E+01  0.46700000000E-02 0. -1.
         -1   -1    0    0    0  501 -0.00000000000E+00 -0.00000000000E+00 -0.32862046355E+03  0.32862046358E+03  0.46700000000E-02 0.  1.
         23    2    1    2    0    0  0.00000000000E+00  0.00000000000E+00 -0.32212754326E+03  0.33511338555E+03  0.92384127655E+02 0.  0.
        -11    1    3    3    0    0  0.44489284676E+02 -0.95442001502E+01 -0.13219954648E+03  0.13981097345E+03  0.51100000000E-03 0. -1.
         11    1    3    3    0    0 -0.44489284676E+02  0.95442001502E+01 -0.18992799678E+03  0.19530241209E+03  0.51100000000E-03 0.  1.
<mgrwt>
<rscale>  0 0.92384128E+02</rscale>
<asrwt>0</asrwt>
<pdfrwt beam="1">  1        1 0.99891120E-03 0.92384128E+02</pdfrwt>
<pdfrwt beam="2">  1       -1 0.50556982E-01 0.92384128E+02</pdfrwt>
<totfact> 0.56393013E+04</totfact>
</mgrwt>
</event>
<event>
 5   1  0.1357339E+00  0.9249369E+02  0.7818608E-02  0.1296923E+00
          1   -1    0    0  501    0  0.00000000000E+00  0.00000000000E+00  0.16940966812E+03  0.16940966819E+03  0.46700000000E-02 0. -1.
         -1   -1    0    0    0  501 -0.00000000000E+00 -0.00000000000E+00 -0.12624844724E+02  0.12624845588E+02  0.46700000000E-02 0.  1.
         23    2    1    2    0    0  0.00000000000E+00  0.00000000000E+00  0.15678482340E+03  0.18203451378E+03  0.92493693608E+02 0.  0.
        -11    1    3    3    0    0  0.44994329557E+01 -0.33311070575E+02  0.14090469437E+03  0.14485856970E+03  0.51100000000E-03 0. -1.
         11    1    3    3    0    0 -0.44994329557E+01  0.33311070575E+02  0.15880129032E+02  0.37175944078E+02  0.51100000000E-03 0.  1.
<mgrwt>
<rscale>  0 0.92493694E+02</rscale>
<asrwt>0</asrwt>
<pdfrwt beam="1">  1        1 0.26063024E-01 0.92493694E+02</pdfrwt>
<pdfrwt beam="2">  1       -1 0.19422840E-02 0.92493694E+02</pdfrwt>
<totfact> 0.11035265E+05</totfact>
</mgrwt>
</event>
<event>
 5   1  0.1357339E+00  0.9172667E+02  0.7818608E-02  0.1298723E+00
         -1   -1    0    0    0  501 -0.00000000000E+00  0.00000000000E+00  0.72647217658E+02  0.72647217808E+02  0.46700000000E-02 0.  1.
          1   -1    0    0  501    0  0.00000000000E+00 -0.00000000000E+00 -0.28954244680E+02  0.28954245056E+02  0.46700000000E-02 0. -1.
         23    2    1    2    0    0  0.00000000000E+00  0.00000000000E+00  0.43692972978E+02  0.10160146286E+03  0.91726666616E+02 0.  0.
        -11    1    3    3    0    0 -0.28446021920E+01 -0.25307611385E+02  0.64095609224E+02  0.68969660560E+02  0.51100000000E-03 0.  1.
         11    1    3    3    0    0  0.28446021920E+01  0.25307611385E+02 -0.20402636246E+02  0.32631802305E+02  0.51100000000E-03 0. -1.
<mgrwt>
<rscale>  0 0.91726667E+02</rscale>
<asrwt>0</asrwt>
<pdfrwt beam="2">  1        1 0.44544992E-02 0.91726667E+02</pdfrwt>
<pdfrwt beam="1">  1       -1 0.11176495E-01 0.91726667E+02</pdfrwt>
<totfact> 0.84706962E+04</totfact>
</mgrwt>
</event>
<event>
 5   1  0.1357339E+00  0.7896750E+02  0.7818608E-02  0.1332007E+00
          1   -1    0    0  501    0  0.00000000000E+00  0.00000000000E+00  0.19271495312E+02  0.19271495878E+02  0.46700000000E-02 0. -1.
         -1   -1    0    0    0  501 -0.00000000000E+00 -0.00000000000E+00 -0.80894947625E+02  0.80894947760E+02  0.46700000000E-02 0.  1.
         23    2    1    2    0    0  0.00000000000E+00  0.00000000000E+00 -0.61623452313E+02  0.10016644364E+03  0.78967503165E+02 0.  0.
        -11    1    3    3    0    0  0.21907814328E+02 -0.10597499576E+02  0.86268611515E+01  0.25820187054E+02  0.51100000000E-03 0. -1.
         11    1    3    3    0    0 -0.21907814328E+02  0.10597499576E+02 -0.70250313465E+02  0.74346256584E+02  0.51100000000E-03 0.  1.
<mgrwt>
<rscale>  0 0.78967503E+02</rscale>
<asrwt>0</asrwt>
<pdfrwt beam="1">  1        1 0.29648455E-02 0.78967503E+02</pdfrwt>
<pdfrwt beam="2">  1       -1 0.12445376E-01 0.78967503E+02</pdfrwt>
<totfact> 0.12197999E+05</totfact>
</mgrwt>
</event>
<event>
 4   1  0.1357339E+00  0.2813147E+02  0.7818608E-02  0.1619711E+00
         -1   -1    0    0    0  501 -0.00000000000E+00  0.00000000000E+00  0.15100347276E+01  0.15100419489E+01  0.46700000000E-02 0. -1.
          1   -1    0    0  501    0  0.00000000000E+00 -0.00000000000E+00 -0.13101976230E+03  0.13101976238E+03  0.46700000000E-02 0.  1.
        -11    1    1    2    0    0 -0.13895265286E+02 -0.12495590191E+01 -0.73188999356E+02  0.74506841445E+02  0.51100000000E-03 0.  1.
         11    1    1    2    0    0  0.13895265286E+02  0.12495590191E+01 -0.56320728217E+02  0.58022962888E+02  0.51100000000E-03 0. -1.
<mgrwt>
<rscale>  0 0.28131468E+02</rscale>
<asrwt>0</asrwt>
<pdfrwt beam="2">  1        1 0.20156878E-01 0.28131468E+02</pdfrwt>
<pdfrwt beam="1">  1       -1 0.23231370E-03 0.28131468E+02</pdfrwt>
<totfact> 0.21151360E+06</totfact>
</mgrwt>
</event>
<event>
 5   1  0.1357339E+00  0.9425277E+02  0.7818608E-02  0.1292868E+00
          1   -1    0    0  501    0  0.00000000000E+00  0.00000000000E+00  0.55196011818E+02  0.55196012016E+02  0.46700000000E-02 0. -1.
         -1   -1    0    0    0  501 -0.00000000000E+00 -0.00000000000E+00 -0.40236529050E+02  0.40236529321E+02  0.46700000000E-02 0.  1.
         23    2    1    2    0    0  0.00000000000E+00  0.00000000000E+00  0.14959482769E+02  0.95432541337E+02  0.94252765590E+02 0.  0.
        -11    1    3    3    0    0  0.30996440157E+02  0.17282997124E+00  0.43421772423E+02  0.53350346702E+02  0.51100000000E-03 0. -1.
         11    1    3    3    0    0 -0.30996440157E+02 -0.17282997124E+00 -0.28462289655E+02  0.42082194635E+02  0.51100000000E-03 0.  1.
<mgrwt>
<rscale>  0 0.94252766E+02</rscale>
<asrwt>0</asrwt>
<pdfrwt beam="1">  1        1 0.84916942E-02 0.94252766E+02</pdfrwt>
<pdfrwt beam="2">  1       -1 0.61902352E-02 0.94252766E+02</pdfrwt>
<totfact> 0.86743878E+04</totfact>
</mgrwt>
</event>
<event>
 5   1  0.1357339E+00  0.9094130E+02  0.7818608E-02  0.1300588E+00
          1   -1    0    0  501    0  0.00000000000E+00  0.00000000000E+00  0.12905219892E+03  0.12905219900E+03  0.46700000000E-02 0. -1.
         -1   -1    0    0    0  501 -0.00000000000E+00 -0.00000000000E+00 -0.16021269794E+02  0.16021270474E+02  0.46700000000E-02 0.  1.
         23    2    1    2    0    0  0.00000000000E+00  0.00000000000E+00  0.11303092913E+03  0.14507346948E+03  0.90941303088E+02 0.  0.
        -11    1    3    3    0    0 -0.37254951751E+01 -0.43936791090E+02  0.38804731286E+02  0.58737791038E+02  0.51100000000E-03 0.  1.
         11    1    3    3    0    0  0.37254951751E+01  0.43936791090E+02  0.74226197841E+02  0.86335678441E+02  0.51100000000E-03 0. -1.
<mgrwt>
<rscale>  0 0.90941303E+02</rscale>
<asrwt>0</asrwt>
<pdfrwt beam="1">  1        1 0.19854184E-01 0.90941303E+02</pdfrwt>
<pdfrwt beam="2">  1       -1 0.24648108E-02 0.90941303E+02</pdfrwt>
<totfact> 0.10989205E+05</totfact>
</mgrwt>
</event>
<event>
 5   1  0.1357339E+00  0.8998962E+02  0.7818608E-02  0.1302877E+00
         -1   -1    0    0    0  501 -0.00000000000E+00  0.00000000000E+00  0.10007447492E+03  0.10007447503E+03  0.46700000000E-02 0.  1.
          1   -1    0    0  501    0  0.00000000000E+00 -0.00000000000E+00 -0.20230260484E+02  0.20230261023E+02  0.46700000000E-02 0. -1.
         23    2    1    2    0    0  0.00000000000E+00  0.00000000000E+00  0.79844214435E+02  0.12030473605E+03  0.89989615720E+02 0.  0.
        -11    1    3    3    0    0  0.33334941199E+02 -0.10027128214E+02  0.78035223645E+02  0.85447397471E+02  0.51100000000E-03 0.  1.
         11    1    3    3    0    0 -0.33334941199E+02  0.10027128214E+02  0.18089907897E+01  0.34857338580E+02  0.51100000000E-03 0. -1.
<mgrwt>
<rscale>  0 0.89989616E+02</rscale>
<asrwt>0</asrwt>
<pdfrwt beam="2">  1        1 0.31123478E-02 0.89989616E+02</pdfrwt>
<pdfrwt beam="1">  1       -1 0.15396073E-01 0.89989616E+02</pdfrwt>
<totfact> 0.84149401E+04</totfact>
</mgrwt>
</event>
<event>
 5   1  0.1357339E+00  0.9470253E+02  0.7818608E-02  0.1291847E+00
          1   -1    0    0  501    0  0.00000000000E+00  0.00000000000E+00  0.20139004582E+03  0.20139004587E+03  0.46700000000E-02 0. -1.
         -1   -1    0    0    0  501 -0.00000000000E+00 -0.00000000000E+00 -0.11133332557E+02  0.11133333536E+02  0.46700000000E-02 0.  1.
         23    2    1    2    0    0  0.00000000000E+00  0.00000000000E+00  0.19025671326E+03  0.21252337941E+03  0.94702533516E+02 0.  0.
        -11    1    3    3    0    0 -0.31878831815E+02  0.34294824775E+02  0.79300178961E+02  0.92091874276E+02  0.51100000000E-03 0. -1.
         11    1    3    3    0    0  0.31878831815E+02 -0.34294824775E+02  0.11095653430E+03  0.12043150513E+03  0.51100000000E-03 0.  1.
<mgrwt>
<rscale>  0 0.94702534E+02</rscale>
<asrwt>0</asrwt>
<pdfrwt beam="1">  1        1 0.30983081E-01 0.94702534E+02</pdfrwt>
<pdfrwt beam="2">  1       -1 0.17128206E-02 0.94702534E+02</pdfrwt>
<totfact> 0.10706575E+05</totfact>
</mgrwt>
</event>
<event>
 5   1  0.1357339E+00  0.7122907E+02  0.7818608E-02  0.1355963E+00
         -1   -1    0    0    0  501 -0.00000000000E+00  0.00000000000E+00  0.71236242255E+01  0.71236257562E+01  0.46700000000E-02 0. -1.
          1   -1    0    0  501    0  0.00000000000E+00 -0.00000000000E+00 -0.17805471199E+03  0.17805471205E+03  0.46700000000E-02 0.  1.
         23    2    1    2    0    0  0.00000000000E+00  0.00000000000E+00 -0.17093108776E+03  0.18517833780E+03  0.71229067302E+02 0.  0.
        -11    1    3    3    0    0  0.31664199542E+02 -0.21538630700E+01 -0.12747672813E+03  0.13136809687E+03  0.51100000000E-03 0.  1.
         11    1    3    3    0    0 -0.31664199542E+02  0.21538630700E+01 -0.43454359629E+02  0.53810240938E+02  0.51100000000E-03 0. -1.
<mgrwt>
<rscale>  0 0.71229067E+02</rscale>
<asrwt>0</asrwt>
<pdfrwt beam="2">  1        1 0.27393029E-01 0.71229067E+02</pdfrwt>
<pdfrwt beam="1">  1       -1 0.10959424E-02 0.71229067E+02</pdfrwt>
<totfact> 0.22271653E+05</totfact>
</mgrwt>
</event>
<event>
 5   1  0.1357339E+00  0.9135014E+02  0.7818608E-02  0.1299615E+00
          1   -1    0    0  501    0  0.00000000000E+00  0.00000000000E+00  0.20387670426E+02  0.20387670961E+02  0.46700000000E-02 0. -1.
         -1   -1    0    0    0  501 -0.00000000000E+00 -0.00000000000E+00 -0.10232714980E+03  0.10232714990E+03  0.46700000000E-02 0.  1.
         23    2    1    2    0    0  0.00000000000E+00  0.00000000000E+00 -0.81939479371E+02  0.12271482086E+03  0.91350144939E+02 0.  0.
        -11    1    3    3    0    0  0.24667442129E+02  0.11071096550E+02 -0.90421655648E+02  0.94377580444E+02  0.51100000000E-03 0.  1.
         11    1    3    3    0    0 -0.24667442129E+02 -0.11071096550E+02  0.84821762779E+01  0.28337240421E+02  0.51100000000E-03 0. -1.
<mgrwt>
<rscale>  0 0.91350145E+02</rscale>
<asrwt>0</asrwt>
<pdfrwt beam="1">  1        1 0.31365648E-02 0.91350145E+02</pdfrwt>
<pdfrwt beam="2">  1       -1 0.15742638E-01 0.91350145E+02</pdfrwt>
<totfact> 0.80625416E+04</totfact>
</mgrwt>
</event>
<event>
 5   1  0.1357339E+00  0.9164342E+02  0.7818608E-02  0.1298920E+00
         -1   -1    0    0    0  501 -0.00000000000E+00  0.00000000000E+00  0.99015309283E+01  0.99015320296E+01  0.46700000000E-02 0.  1.
          1   -1    0    0  501    0  0.00000000000E+00 -0.00000000000E+00 -0.21205092860E+03  0.21205092865E+03  0.46700000000E-02 0. -1.
         23    2    1    2    0    0  0.00000000000E+00  0.00000000000E+00 -0.20214939767E+03  0.22195246068E+03  0.91643416694E+02 0.  0.
        -11    1    3    3    0    0 -0.34780635445E+02  0.28187830611E+02 -0.77421320582E+02  0.89433255992E+02  0.51100000000E-03 0.  1.
         11    1    3    3    0    0  0.34780635445E+02 -0.28187830611E+02 -0.12472807709E+03  0.13251920469E+03  0.51100000000E-03 0. -1.
<mgrwt>
<rscale>  0 0.91643417E+02</rscale>
<asrwt>0</asrwt>
<pdfrwt beam="2">  1        1 0.32623217E-01 0.91643417E+02</pdfrwt>
<pdfrwt beam="1">  1       -1 0.15233127E-02 0.91643417E+02</pdfrwt>
<totfact> 0.11813244E+05</totfact>
</mgrwt>
</event>
<event>
 5   1  0.1357339E+00  0.9044714E+02  0.7818608E-02  0.1301772E+00
          1   -1    0    0  501    0  0.00000000000E+00  0.00000000000E+00  0.12148576268E+02  0.12148577166E+02  0.46700000000E-02 0. -1.
         -1   -1    0    0    0  501 -0.00000000000E+00 -0.00000000000E+00 -0.16834658944E+03  0.16834658950E+03  0.46700000000E-02 0.  1.
         23    2    1    2    0    0  0.00000000000E+00  0.00000000000E+00 -0.15619801317E+03  0.18049516667E+03  0.90447144082E+02 0.  0.
        -11    1    3    3    0    0 -0.12833019949E+02  0.32944021534E+02 -0.13437232034E+03  0.13894572836E+03  0.51100000000E-03 0.  1.
         11    1    3    3    0    0  0.12833019949E+02 -0.32944021534E+02 -0.21825692826E+02  0.41549438305E+02  0.51100000000E-03 0. -1.
<mgrwt>
<rscale>  0 0.90447144E+02</rscale>
<asrwt>0</asrwt>
<pdfrwt beam="1">  1        1 0.18690119E-02 0.90447144E+02</pdfrwt>
<pdfrwt beam="2">  1       -1 0.25899474E-01 0.90447144E+02</pdfrwt>
<totfact> 0.74252193E+04</totfact>
</mgrwt>
</event>
<event>
 5   1  0.1357339E+00  0.1005096E+03  0.7818608E-02  0.1279228E+00
         -1   -1    0    0    0  501 -0.00000000000E+00  0.00000000000E+00  0.10269878133E+02  0.10269879195E+02  0.46700000000E-02 0.  1.
          1   -1    0    0  501    0  0.00000000000E+00 -0.00000000000E+00 -0.24591780212E+03  0.24591780216E+03  0.46700000000E-02 0. -1.
         23    2    1    2    0    0  0.00000000000E+00  0.00000000000E+00 -0.23564792398E+03  0.25618768136E+03  0.10050962143E+03 0.  0.
        -11    1    3    3    0    0  0.49145638549E+02 -0.25043133946E+01 -0.14381519123E+03  0.15200123224E+03  0.51100000000E-03 0. -1.
         11    1    3    3    0    0 -0.49145638549E+02  0.25043133946E+01 -0.91832732756E+02  0.10418644912E+03  0.51100000000E-03 0.  1.
<mgrwt>
<rscale>  0 0.10050962E+03</rscale>
<asrwt>0</asrwt>
<pdfrwt beam="2">  1        1 0.37833504E-01 0.10050962E+03</pdfrwt>
<pdfrwt beam="1">  1       -1 0.15799815E-02 0.10050962E+03</pdfrwt>
<totfact> 0.94868829E+04</totfact>
</mgrwt>
</event>
<event>
 5   1  0.1357339E+00  0.9010248E+02  0.7818608E-02  0.1302604E+00
          1   -1    0    0  501    0  0.00000000000E+00  0.00000000000E+00  0.13906754496E+03  0.13906754504E+03  0.46700000000E-02 0. -1.
         -1   -1    0    0    0  501 -0.00000000000E+00 -0.00000000000E+00 -0.14594448809E+02  0.14594449557E+02  0.46700000000E-02 0.  1.
         23    2    1    2    0    0  0.00000000000E+00  0.00000000000E+00  0.12447309615E+03  0.15366199459E+03  0.90102480085E+02 0.  0.
        -11    1    3    3    0    0 -0.27446323534E+01  0.32767288910E+02  0.97168418470E+01  0.34287683576E+02  0.51100000000E-03 0.  1.
         11    1    3    3    0    0  0.27446323534E+01 -0.32767288910E+02  0.11475625430E+03  0.11937431102E+03  0.51100000000E-03 0. -1.
<mgrwt>
<rscale>  0 0.90102480E+02</rscale>
<asrwt>0</asrwt>
<pdfrwt beam="1">  1        1 0.21395007E-01 0.90102480E+02</pdfrwt>
<pdfrwt beam="2">  1       -1 0.22452999E-02 0.90102480E+02</pdfrwt>
<totfact> 0.11419130E+05</totfact>
</mgrwt>
</event>
<event>
 5   1  0.1357339E+00  0.9081503E+02  0.7818608E-02  0.1300890E+00
          1   -1    0    0  501    0  0.00000000000E+00  0.00000000000E+00  0.27290121268E+02  0.27290121668E+02  0.46700000000E-02 0. -1.
         -1   -1    0    0    0  501 -0.00000000000E+00 -0.00000000000E+00 -0.75552696235E+02  0.75552696379E+02  0.46700000000E-02 0.  1.
         23    2    1    2    0    0  0.00000000000E+00  0.00000000000E+00 -0.48262574966E+02  0.10284281805E+03  0.90815026738E+02 0.  0.
        -11    1    3    3    0    0 -0.30287850747E+02  0.15848882744E+02  0.97153267975E+01  0.35537706203E+02  0.51100000000E-03 0. -1.
         11    1    3    3    0    0  0.30287850747E+02 -0.15848882744E+02 -0.57977901764E+02  0.67305111844E+02  0.51100000000E-03 0.  1.
<mgrwt>
<rscale>  0 0.90815027E+02</rscale>
<asrwt>0</asrwt>
<pdfrwt beam="1">  1        1 0.41984803E-02 0.90815027E+02</pdfrwt>
<pdfrwt beam="2">  1       -1 0.11623492E-01 0.90815027E+02</pdfrwt>
<totfact> 0.86337543E+04</totfact>
</mgrwt>
</event>
<event>
 5   1  0.1357339E+00  0.9247952E+02  0.7818608E-02  0.1296956E+00
         -1   -1    0    0    0  501 -0.00000000000E+00  0.00000000000E+00  0.38225885470E+02  0.38225885755E+02  0.46700000000E-02 0.  1.
          1   -1    0    0  501    0  0.00000000000E+00 -0.00000000000E+00 -0.55933706044E+02  0.55933706239E+02  0.46700000000E-02 0. -1.
         23    2    1    2    0    0  0.00000000000E+00  0.00000000000E+00 -0.17707820574E+02  0.94159591994E+02  0.92479521274E+02 0.  0.
        -11    1    3    3    0    0  0.17200227604E+02  0.23547536098E+02 -0.45391511516E+02  0.53951122360E+02  0.51100000000E-03 0. -1.
         11    1    3    3    0    0 -0.17200227604E+02 -0.23547536098E+02  0.27683690942E+02  0.40208469634E+02  0.51100000000E-03 0.  1.
<mgrwt>
<rscale>  0 0.92479521E+02</rscale>
<asrwt>0</asrwt>
<pdfrwt beam="2">  1        1 0.86051856E-02 0.92479521E+02</pdfrwt>
<pdfrwt beam="1">  1       -1 0.58809055E-02 0.92479521E+02</pdfrwt>
<totfact> 0.91659302E+04</totfact>
</mgrwt>
</event>
<event>
 5   1  0.1357339E+00  0.8955401E+02  0.7818608E-02  0.1303935E+00
          1   -1    0    0  501    0  0.00000000000E+00  0.00000000000E+00  0.33485197674E+02  0.33485198000E+02  0.46700000000E-02 0. -1.
         -1   -1    0    0    0  501 -0.00000000000E+00 -0.00000000000E+00 -0.59876604347E+02  0.59876604530E+02  0.46700000000E-02 0.  1.
         23    2    1    2    0    0  0.00000000000E+00  0.00000000000E+00 -0.26391406673E+02  0.93361802529E+02  0.89554005077E+02 0.  0.
        -11    1    3    3    0    0 -0.22011558231E+02  0.34671561052E+01  0.27294474770E+02  0.35235184411E+02  0.51100000000E-03 0. -1.
         11    1    3    3    0    0  0.22011558231E+02 -0.34671561052E+01 -0.53685881444E+02  0.58126618118E+02  0.51100000000E-03 0.  1.
<mgrwt>
<rscale>  0 0.89554005E+02</rscale>
<asrwt>0</asrwt>
<pdfrwt beam="1">  1        1 0.51515689E-02 0.89554005E+02</pdfrwt>
<pdfrwt beam="2">  1       -1 0.92117853E-02 0.89554005E+02</pdfrwt>
<totfact> 0.92837188E+04</totfact>
</mgrwt>
</event>
<event>
 5   1  0.1357339E+00  0.9167101E+02  0.7818608E-02  0.1298855E+00
          1   -1    0    0  501    0  0.00000000000E+00  0.00000000000E+00  0.65141164838E+01  0.65141181578E+01  0.46700000000E-02 0.  1.
         -1   -1    0    0    0  501 -0.00000000000E+00 -0.00000000000E+00 -0.32251390681E+03  0.32251390684E+03  0.46700000000E-02 0. -1.
         23    2    1    2    0    0  0.00000000000E+00  0.00000000000E+00 -0.31599979033E+03  0.32902802500E+03  0.91671008232E+02 0.  0.
        -11    1    3    3    0    0 -0.44828105214E+02  0.91380502652E+01 -0.14795617845E+03  0.15486798805E+03  0.51100000000E-03 0.  1.
         11    1    3    3    0    0  0.44828105214E+02 -0.91380502652E+01 -0.16804361187E+03  0.17416003695E+03  0.51100000000E-03 0. -1.
<mgrwt>
<rscale>  0 0.91671008E+02</rscale>
<asrwt>0</asrwt>
<pdfrwt beam="1">  1        1 0.10021721E-02 0.91671008E+02</pdfrwt>
<pdfrwt beam="2">  1       -1 0.49617512E-01 0.91671008E+02</pdfrwt>
<totfact> 0.58006496E+04</totfact>
</mgrwt>
</event>
<event>
 5   1  0.1357339E+00  0.8981305E+02  0.7818608E-02  0.1303305E+00
          1   -1    0    0  501    0  0.00000000000E+00  0.00000000000E+00  0.11543750957E+02  0.11543751902E+02  0.46700000000E-02 0. -1.
         -1   -1    0    0    0  501 -0.00000000000E+00 -0.00000000000E+00 -0.17469157239E+03  0.17469157245E+03  0.46700000000E-02 0.  1.
         23    2    1    2    0    0  0.00000000000E+00  0.00000000000E+00 -0.16314782143E+03  0.18623532436E+03  0.89813052500E+02 0.  0.
        -11    1    3    3    0    0 -0.40985086519E+02 -0.18266767601E+02 -0.77897172012E+02  0.89896726989E+02  0.51100000000E-03 0.  1.
         11    1    3    3    0    0  0.40985086519E+02  0.18266767601E+02 -0.85250649423E+02  0.96338597368E+02  0.51100000000E-03 0. -1.
<mgrwt>
<rscale>  0 0.89813052E+02</rscale>
<asrwt>0</asrwt>
<pdfrwt beam="1">  1        1 0.17759619E-02 0.89813052E+02</pdfrwt>
<pdfrwt beam="2">  1       -1 0.26875625E-01 0.89813052E+02</pdfrwt>
<totfact> 0.74909232E+04</totfact>
</mgrwt>
</event>
<event>
 5   1  0.1357339E+00  0.7462125E+02  0.7818608E-02  0.1345048E+00
          1   -1    0    0  501    0  0.00000000000E+00  0.00000000000E+00  0.81351511013E+02  0.81351511147E+02  0.46700000000E-02 0. -1.
         -1   -1    0    0    0  501 -0.00000000000E+00 -0.00000000000E+00 -0.17111948583E+02  0.17111949220E+02  0.46700000000E-02 0.  1.
         23    2    1    2    0    0  0.00000000000E+00  0.00000000000E+00  0.64239562430E+02  0.98463460367E+02  0.74621254655E+02 0.  0.
        -11    1    3    3    0    0 -0.12687828102E+02 -0.14131917694E+02  0.74496193068E+02  0.76878962412E+02  0.51100000000E-03 0. -1.
         11    1    3    3    0    0  0.12687828102E+02  0.14131917694E+02 -0.10256630638E+02  0.21584497955E+02  0.51100000000E-03 0.  1.
<mgrwt>
<rscale>  0 0.74621255E+02</rscale>
<asrwt>0</asrwt>
<pdfrwt beam="1">  1        1 0.12515617E-01 0.74621255E+02</pdfrwt>
<pdfrwt beam="2">  1       -1 0.26326075E-02 0.74621255E+02</pdfrwt>
<totfact> 0.17369924E+05</totfact>
</mgrwt>
</event>
<event>
 5   1  0.1357339E+00  0.9127691E+02  0.7818608E-02  0.1299789E+00
         -1   -1    0    0    0  501 -0.00000000000E+00  0.00000000000E+00  0.61580807130E+02  0.61580807307E+02  0.46700000000E-02 0.  1.
          1   -1    0    0  501    0  0.00000000000E+00 -0.00000000000E+00 -0.33823338814E+02  0.33823339136E+02  0.46700000000E-02 0. -1.
         23    2    1    2    0    0  0.00000000000E+00  0.00000000000E+00  0.27757468317E+02  0.95404146444E+02  0.91276908971E+02 0.  0.
        -11    1    3    3    0    0 -0.20004248933E+02 -0.74122281919E+01 -0.28291029633E+02  0.35432943147E+02  0.51100000000E-03 0. -1.
         11    1    3    3    0    0  0.20004248933E+02  0.74122281919E+01  0.56048497949E+02  0.59971203296E+02  0.51100000000E-03 0.  1.
<mgrwt>
<rscale>  0 0.91276909E+02</rscale>
<asrwt>0</asrwt>
<pdfrwt beam="2">  1        1 0.52035906E-02 0.91276909E+02</pdfrwt>
<pdfrwt beam="1">  1       -1 0.94739703E-02 0.91276909E+02</pdfrwt>
<totfact> 0.88075311E+04</totfact>
</mgrwt>
</event>
<event>
 5   1  0.1357339E+00  0.9157470E+02  0.7818608E-02  0.1299083E+00
         -1   -1    0    0    0  501 -0.00000000000E+00  0.00000000000E+00  0.46060965714E+02  0.46060965951E+02  0.46700000000E-02 0.  1.
          1   -1    0    0  501    0  0.00000000000E+00 -0.00000000000E+00 -0.45515356819E+02  0.45515357058E+02  0.46700000000E-02 0. -1.
         23    2    1    2    0    0  0.00000000000E+00  0.00000000000E+00  0.54560889576E+00  0.91576323009E+02  0.91574697634E+02 0.  0.
        -11    1    3    3    0    0  0.32132635757E+02  0.30138421983E+02  0.12749024892E+02  0.45862494440E+02  0.51100000000E-03 0. -1.
         11    1    3    3    0    0 -0.32132635757E+02 -0.30138421983E+02 -0.12203415996E+02  0.45713828570E+02  0.51100000000E-03 0.  1.
<mgrwt>
<rscale>  0 0.91574698E+02</rscale>
<asrwt>0</asrwt>
<pdfrwt beam="2">  1        1 0.70023626E-02 0.91574698E+02</pdfrwt>
<pdfrwt beam="1">  1       -1 0.70863024E-02 0.91574698E+02</pdfrwt>
<totfact> 0.91325373E+04</totfact>
</mgrwt>
</event>
<event>
 5   1  0.1357339E+00  0.9604638E+02  0.7818608E-02  0.1288837E+00
         -1   -1    0    0    0  501 -0.00000000000E+00  0.00000000000E+00  0.10082501968E+03  0.10082501979E+03  0.46700000000E-02 0.  1.
          1   -1    0    0  501    0  0.00000000000E+00 -0.00000000000E+00 -0.22873554914E+02  0.22873555391E+02  0.46700000000E-02 0. -1.
         23    2    1    2    0    0  0.00000000000E+00  0.00000000000E+00  0.77951464767E+02  0.12369857518E+03  0.96046377559E+02 0.  0.
        -11    1    3    3    0    0  0.34132932839E+02  0.15713653660E+02  0.46220130404E+00  0.37579111829E+02  0.51100000000E-03 0.  1.
         11    1    3    3    0    0 -0.34132932839E+02 -0.15713653660E+02  0.77489263463E+02  0.86119463351E+02  0.51100000000E-03 0. -1.
<mgrwt>
<rscale>  0 0.96046378E+02</rscale>
<asrwt>0</asrwt>
<pdfrwt beam="2">  1        1 0.35190085E-02 0.96046378E+02</pdfrwt>
<pdfrwt beam="1">  1       -1 0.15511541E-01 0.96046378E+02</pdfrwt>
<totfact> 0.71040516E+04</totfact>
</mgrwt>
</event>
<event>
 5   1  0.1357339E+00  0.9151147E+02  0.7818608E-02  0.1299232E+00
         -1   -1    0    0    0  501 -0.00000000000E+00  0.00000000000E+00  0.69656913950E+02  0.69656914106E+02  0.46700000000E-02 0.  1.
          1   -1    0    0  501    0  0.00000000000E+00 -0.00000000000E+00 -0.30055696879E+02  0.30055697242E+02  0.46700000000E-02 0. -1.
         23    2    1    2    0    0  0.00000000000E+00  0.00000000000E+00  0.39601217070E+02  0.99712611348E+02  0.91511466322E+02 0.  0.
        -11    1    3    3    0    0  0.39184945461E+00 -0.35128195300E+02  0.51744162480E+02  0.62542801361E+02  0.51100000000E-03 0.  1.
         11    1    3    3    0    0 -0.39184945461E+00  0.35128195300E+02 -0.12142945410E+02  0.37169809988E+02  0.51100000000E-03 0. -1.
<mgrwt>
<rscale>  0 0.91511466E+02</rscale>
<asrwt>0</asrwt>
<pdfrwt beam="2">  1        1 0.46239535E-02 0.91511466E+02</pdfrwt>
<pdfrwt beam="1">  1       -1 0.10716448E-01 0.91511466E+02</pdfrwt>
<totfact> 0.85802197E+04</totfact>
</mgrwt>
</event>
<event>
 5   1  0.1357339E+00  0.8768226E+02  0.7818608E-02  0.1308564E+00
          1   -1    0    0  501    0  0.00000000000E+00  0.00000000000E+00  0.46713711982E+02  0.46713712216E+02  0.46700000000E-02 0. -1.
         -1   -1    0    0    0  501 -0.00000000000E+00 -0.00000000000E+00 -0.41145196259E+02  0.41145196524E+02  0.46700000000E-02 0.  1.
         23    2    1    2    0    0  0.00000000000E+00  0.00000000000E+00  0.55685157233E+01  0.87858908740E+02  0.87682264327E+02 0.  0.
        -11    1    3    3    0    0  0.26137829322E+02 -0.11810662527E+02  0.36007758920E+02  0.46035166707E+02  0.51100000000E-03 0. -1.
         11    1    3    3    0    0 -0.26137829322E+02  0.11810662527E+02 -0.30439243196E+02  0.41823742033E+02  0.51100000000E-03 0.  1.
<mgrwt>
<rscale>  0 0.87682264E+02</rscale>
<asrwt>0</asrwt>
<pdfrwt beam="1">  1        1 0.71867249E-02 0.87682264E+02</pdfrwt>
<pdfrwt beam="2">  1       -1 0.63300303E-02 0.87682264E+02</pdfrwt>
<totfact> 0.10351423E+05</totfact>
</mgrwt>
</event>
<event>
 5   1  0.1357339E+00  0.9011727E+02  0.7818608E-02  0.1302568E+00
         -1   -1    0    0    0  501 -0.00000000000E+00  0.00000000000E+00  0.25531578244E+02  0.25531578671E+02  0.46700000000E-02 0.  1.
          1   -1    0    0  501    0  0.00000000000E+00 -0.00000000000E+00 -0.79520371210E+02  0.79520371347E+02  0.46700000000E-02 0. -1.
         23    2    1    2    0    0  0.00000000000E+00  0.00000000000E+00 -0.53988792966E+02  0.10505195002E+03  0.90117270469E+02 0.  0.
        -11    1    3    3    0    0 -0.14799656279E+02  0.21285445208E+02 -0.69955442947E+02  0.74604718362E+02  0.51100000000E-03 0.  1.
         11    1    3    3    0    0  0.14799656279E+02 -0.21285445208E+02  0.15966649981E+02  0.30447231657E+02  0.51100000000E-03 0. -1.
<mgrwt>
<rscale>  0 0.90117270E+02</rscale>
<asrwt>0</asrwt>
<pdfrwt beam="2">  1        1 0.12233903E-01 0.90117270E+02</pdfrwt>
<pdfrwt beam="1">  1       -1 0.39279352E-02 0.90117270E+02</pdfrwt>
<totfact> 0.10392579E+05</totfact>
</mgrwt>
</event>
<event>
 5   1  0.1357339E+00  0.9246053E+02  0.7818608E-02  0.1297000E+00
          1   -1    0    0  501    0  0.00000000000E+00  0.00000000000E+00  0.25267390845E+02  0.25267391277E+02  0.46700000000E-02 0. -1.
         -1   -1    0    0    0  501 -0.00000000000E+00 -0.00000000000E+00 -0.84584804062E+02  0.84584804191E+02  0.46700000000E-02 0.  1.
         23    2    1    2    0    0  0.00000000000E+00  0.00000000000E+00 -0.59317413217E+02  0.10985219547E+03  0.92460528543E+02 0.  0.
        -11    1    3    3    0    0  0.33746928173E+00  0.16839904815E+02  0.21492216318E+02  0.27305890248E+02  0.51100000000E-03 0. -1.
         11    1    3    3    0    0 -0.33746928173E+00 -0.16839904815E+02 -0.80809629535E+02  0.82546305220E+02  0.51100000000E-03 0.  1.
<mgrwt>
<rscale>  0 0.92460529E+02</rscale>
<asrwt>0</asrwt>
<pdfrwt beam="1">  1        1 0.38872910E-02 0.92460529E+02</pdfrwt>
<pdfrwt beam="2">  1       -1 0.13013047E-01 0.92460529E+02</pdfrwt>
<totfact> 0.80892432E+04</totfact>
</mgrwt>
</event>
<event>
 5   1  0.1357339E+00  0.9182862E+02  0.7818608E-02  0.1298483E+00
         -1   -1    0    0    0  501 -0.00000000000E+00  0.00000000000E+00  0.72135481074E+01  0.72135496190E+01  0.46700000000E-02 0.  1.
          1   -1    0    0  501    0  0.00000000000E+00 -0.00000000000E+00 -0.29224502887E+03  0.29224502890E+03  0.46700000000E-02 0. -1.
         23    2    1    2    0    0  0.00000000000E+00  0.00000000000E+00 -0.28503148076E+03  0.29945857852E+03  0.91828618781E+02 0.  0.
        -11    1    3    3    0    0 -0.14324901489E+02  0.38758395407E+02 -0.77236874728E+02  0.87595381358E+02  0.51100000000E-03 0. -1.
         11    1    3    3    0    0  0.14324901489E+02 -0.38758395407E+02 -0.20779460603E+03  0.21186319717E+03  0.51100000000E-03 0.  1.
<mgrwt>
<rscale>  0 0.91828619E+02</rscale>
<asrwt>0</asrwt>
<pdfrwt beam="2">  1        1 0.44960765E-01 0.91828619E+02</pdfrwt>
<pdfrwt beam="1">  1       -1 0.11097770E-02 0.91828619E+02</pdfrwt>
<totfact> 0.12508152E+05</totfact>
</mgrwt>
</event>
<event>
 4   1  0.1357339E+00  0.5400355E+02  0.7818608E-02  0.1424871E+00
         -1   -1    0    0    0  501 -0.00000000000E+00  0.00000000000E+00  0.32441390558E+02  0.32441390894E+02  0.46700000000E-02 0. -1.
          1   -1    0    0  501    0  0.00000000000E+00 -0.00000000000E+00 -0.22474244051E+02  0.22474244536E+02  0.46700000000E-02 0.  1.
        -11    1    1    2    0    0 -0.24732629472E+02  0.82428448214E+01  0.12134287367E+02  0.28755666946E+02  0.51100000000E-03 0.  1.
         11    1    1    2    0    0  0.24732629472E+02 -0.82428448214E+01 -0.21671408596E+01  0.26159968484E+02  0.51100000000E-03 0. -1.
<mgrwt>
<rscale>  0 0.54003546E+02</rscale>
<asrwt>0</asrwt>
<pdfrwt beam="2">  1        1 0.34575761E-02 0.54003546E+02</pdfrwt>
<pdfrwt beam="1">  1       -1 0.49909832E-02 0.54003546E+02</pdfrwt>
<totfact> 0.35376055E+05</totfact>
</mgrwt>
</event>
<event>
 5   1  0.1357339E+00  0.9162389E+02  0.7818608E-02  0.1298966E+00
          1   -1    0    0  501    0  0.00000000000E+00  0.00000000000E+00  0.20499435233E+02  0.20499435765E+02  0.46700000000E-02 0. -1.
         -1   -1    0    0    0  501 -0.00000000000E+00 -0.00000000000E+00 -0.10238010645E+03  0.10238010655E+03  0.46700000000E-02 0.  1.
         23    2    1    2    0    0  0.00000000000E+00  0.00000000000E+00 -0.81880671214E+02  0.12287954232E+03  0.91623892092E+02 0.  0.
        -11    1    3    3    0    0  0.12498372946E+02 -0.43535128016E+02 -0.31724742841E+02  0.55298969305E+02  0.51100000000E-03 0. -1.
         11    1    3    3    0    0 -0.12498372946E+02  0.43535128016E+02 -0.50155928373E+02  0.67580573014E+02  0.51100000000E-03 0.  1.
<mgrwt>
<rscale>  0 0.91623892E+02</rscale>
<asrwt>0</asrwt>
<pdfrwt beam="1">  1        1 0.31537594E-02 0.91623892E+02</pdfrwt>
<pdfrwt beam="2">  1       -1 0.15750785E-01 0.91623892E+02</pdfrwt>
<totfact> 0.79997717E+04</totfact>
</mgrwt>
</event>
<event>
 5   1  0.1357339E+00  0.9114019E+02  0.7818608E-02  0.1300114E+00
          1   -1    0    0  501    0  0.00000000000E+00  0.00000000000E+00  0.83698617352E+02  0.83698617483E+02  0.46700000000E-02 0. -1.
         -1   -1    0    0    0  501 -0.00000000000E+00 -0.00000000000E+00 -0.24810847131E+02  0.24810847571E+02  0.46700000000E-02 0.  1.
         23    2    1    2    0    0  0.00000000000E+00  0.00000000000E+00  0.58887770221E+02  0.10850946505E+03  0.91140191599E+02 0.  0.
        -11    1    3    3    0    0 -0.24962914000E+02  0.64456738482E+01 -0.15293004113E+02  0.29976153219E+02  0.51100000000E-03 0.  1.
         11    1    3    3    0    0  0.24962914000E+02 -0.64456738482E+01  0.74180774334E+02  0.78533311835E+02  0.51100000000E-03 0. -1.
<mgrwt>
<rscale>  0 0.91140192E+02</rscale>
<asrwt>0</asrwt>
<pdfrwt beam="1">  1        1 0.12876710E-01 0.91140192E+02</pdfrwt>
<pdfrwt beam="2">  1       -1 0.38170535E-02 0.91140192E+02</pdfrwt>
<totfact> 0.10158077E+05</totfact>
</mgrwt>
</event>
<event>
 5   1  0.1357339E+00  0.9091731E+02  0.7818608E-02  0.1300645E+00
         -1   -1    0    0    0  501 -0.00000000000E+00  0.00000000000E+00  0.33702412369E+02  0.33702412692E+02  0.46700000000E-02 0.  1.
          1   -1    0    0  501    0  0.00000000000E+00 -0.00000000000E+00 -0.61315761569E+02  0.61315761747E+02  0.46700000000E-02 0. -1.
         23    2    1    2    0    0  0.00000000000E+00  0.00000000000E+00 -0.27613349201E+02  0.95018174439E+02  0.90917305392E+02 0.  0.
        -11    1    3    3    0    0  0.36653631883E+02 -0.26246637113E+02 -0.77024699022E+01  0.45735136742E+02  0.51100000000E-03 0.  1.
         11    1    3    3    0    0 -0.36653631883E+02  0.26246637113E+02 -0.19910879298E+02  0.49283037697E+02  0.51100000000E-03 0. -1.
<mgrwt>
<rscale>  0 0.90917305E+02</rscale>
<asrwt>0</asrwt>
<pdfrwt beam="2">  1        1 0.94331941E-02 0.90917305E+02</pdfrwt>
<pdfrwt beam="1">  1       -1 0.51849866E-02 0.90917305E+02</pdfrwt>
<totfact> 0.97455331E+04</totfact>
</mgrwt>
</event>
<event>
 5   1  0.1357339E+00  0.9092211E+02  0.7818608E-02  0.1300634E+00
         -1   -1    0    0    0  501 -0.00000000000E+00  0.00000000000E+00  0.62436317588E+01  0.62436335053E+01  0.46700000000E-02 0.  1.
          1   -1    0    0  501    0  0.00000000000E+00 -0.00000000000E+00 -0.33101045961E+03  0.33101045964E+03  0.46700000000E-02 0. -1.
         23    2    1    2    0    0  0.00000000000E+00  0.00000000000E+00 -0.32476682785E+03  0.33725409315E+03  0.90922114321E+02 0.  0.
        -11    1    3    3    0    0 -0.42608864009E+02  0.29419526719E+01 -0.10461678713E+03  0.11299930321E+03  0.51100000000E-03 0. -1.
         11    1    3    3    0    0  0.42608864009E+02 -0.29419526719E+01 -0.22015004073E+03  0.22425478994E+03  0.51100000000E-03 0.  1.
<mgrwt>
<rscale>  0 0.90922114E+02</rscale>
<asrwt>0</asrwt>
<pdfrwt beam="2">  1        1 0.50924673E-01 0.90922114E+02</pdfrwt>
<pdfrwt beam="1">  1       -1 0.96055913E-03 0.90922114E+02</pdfrwt>
<totfact> 0.13148155E+05</totfact>
</mgrwt>
</event>
<event>
 5   1  0.1357339E+00  0.9081613E+02  0.7818608E-02  0.1300887E+00
          1   -1    0    0  501    0  0.00000000000E+00  0.00000000000E+00  0.45550012527E+02  0.45550012766E+02  0.46700000000E-02 0. -1.
         -1   -1    0    0    0  501 -0.00000000000E+00 -0.00000000000E+00 -0.45266559970E+02  0.45266560211E+02  0.46700000000E-02 0.  1.
         23    2    1    2    0    0  0.00000000000E+00  0.00000000000E+00  0.28345255627E+00  0.90816572977E+02  0.90816130626E+02 0.  0.
        -11    1    3    3    0    0  0.20271049378E+02  0.84695858225E+01  0.39881611190E+02  0.45532320810E+02  0.51100000000E-03 0. -1.
         11    1    3    3    0    0 -0.20271049378E+02 -0.84695858225E+01 -0.39598158634E+02  0.45284252168E+02  0.51100000000E-03 0.  1.
<mgrwt>
<rscale>  0 0.90816131E+02</rscale>
<asrwt>0</asrwt>
<pdfrwt beam="1">  1        1 0.70076943E-02 0.90816131E+02</pdfrwt>
<pdfrwt beam="2">  1       -1 0.69640862E-02 0.90816131E+02</pdfrwt>
<totfact> 0.93494578E+04</totfact>
</mgrwt>
</event>
<event>
 5   1  0.1357339E+00  0.9300329E+02  0.7818608E-02  0.1295738E+00
         -1   -1    0    0    0  501 -0.00000000000E+00  0.00000000000E+00  0.68243355025E+02  0.68243355184E+02  0.46700000000E-02 0.  1.
          1   -1    0    0  501    0  0.00000000000E+00 -0.00000000000E+00 -0.31686646652E+02  0.31686646997E+02  0.46700000000E-02 0. -1.
         23    2    1    2    0    0  0.00000000000E+00  0.00000000000E+00  0.36556708372E+02  0.99930002181E+02  0.93003292463E+02 0.  0.
        -11    1    3    3    0    0  0.29849715901E+01 -0.34830775921E+02  0.51226662614E+02  0.62018255131E+02  0.51100000000E-03 0.  1.
         11    1    3    3    0    0 -0.29849715901E+01  0.34830775921E+02 -0.14669954242E+02  0.37911747050E+02  0.51100000000E-03 0. -1.
<mgrwt>
<rscale>  0 0.93003292E+02</rscale>
<asrwt>0</asrwt>
<pdfrwt beam="2">  1        1 0.48748688E-02 0.93003292E+02</pdfrwt>
<pdfrwt beam="1">  1       -1 0.10498978E-01 0.93003292E+02</pdfrwt>
<totfact> 0.82608866E+04</totfact>
</mgrwt>
</event>
<event>
 5   1  0.1357339E+00  0.8900792E+02  0.7818608E-02  0.1305272E+00
         -1   -1    0    0    0  501 -0.00000000000E+00  0.00000000000E+00  0.29079921432E+02  0.29079921807E+02  0.46700000000E-02 0.  1.
          1   -1    0    0  501    0  0.00000000000E+00 -0.00000000000E+00 -0.68108938232E+02  0.68108938392E+02  0.46700000000E-02 0. -1.
         23    2    1    2    0    0  0.00000000000E+00  0.00000000000E+00 -0.39029016801E+02  0.97188860199E+02  0.89007923211E+02 0.  0.
        -11    1    3    3    0    0 -0.34983897286E+02  0.26291425474E+02 -0.10678077350E+02  0.45045903908E+02  0.51100000000E-03 0.  1.
         11    1    3    3    0    0  0.34983897286E+02 -0.26291425474E+02 -0.28350939450E+02  0.52142956291E+02  0.51100000000E-03 0. -1.
<mgrwt>
<rscale>  0 0.89007923E+02</rscale>
<asrwt>0</asrwt>
<pdfrwt beam="2">  1        1 0.10478298E-01 0.89007923E+02</pdfrwt>
<pdfrwt beam="1">  1       -1 0.44738341E-02 0.89007923E+02</pdfrwt>
<totfact> 0.10498571E+05</totfact>
</mgrwt>
</event>
<event>
 5   1  0.1357339E+00  0.8851113E+02  0.7818608E-02  0.1306498E+00
         -1   -1    0    0    0  501 -0.00000000000E+00  0.00000000000E+00  0.38536754071E+02  0.38536754354E+02  0.46700000000E-02 0.  1.
          1   -1    0    0  501    0  0.00000000000E+00 -0.00000000000E+00 -0.50823039441E+02  0.50823039656E+02  0.46700000000E-02 0. -1.
         23    2    1    2    0    0  0.00000000000E+00  0.00000000000E+00 -0.12286285370E+02  0.89359794010E+02  0.88511129115E+02 0.  0.
        -11    1    3    3    0    0 -0.11954613126E+02 -0.73911078681E+01  0.36223656152E+02  0.38854787553E+02  0.51100000000E-03 0.  1.
         11    1    3    3    0    0  0.11954613126E+02  0.73911078681E+01 -0.48509941522E+02  0.50505006457E+02  0.51100000000E-03 0. -1.
<mgrwt>
<rscale>  0 0.88511129E+02</rscale>
<asrwt>0</asrwt>
<pdfrwt beam="2">  1        1 0.78189292E-02 0.88511129E+02</pdfrwt>
<pdfrwt beam="1">  1       -1 0.59287314E-02 0.88511129E+02</pdfrwt>
<totfact> 0.10208867E+05</totfact>
</mgrwt>
</event>
<event>
 5   1  0.1357339E+00  0.9137333E+02  0.7818608E-02  0.1299560E+00
         -1   -1    0    0    0  501 -0.00000000000E+00  0.00000000000E+00  0.21648689880E+02  0.21648690384E+02  0.46700000000E-02 0.  1.
          1   -1    0    0  501    0  0.00000000000E+00 -0.00000000000E+00 -0.96415603765E+02  0.96415603879E+02  0.46700000000E-02 0. -1.
         23    2    1    2    0    0  0.00000000000E+00  0.00000000000E+00 -0.74766913885E+02  0.11806429426E+03  0.91373334009E+02 0.  0.
        -11    1    3    3    0    0 -0.38648778343E+02 -0.12578800981E+02 -0.64342348850E+02  0.76104481847E+02  0.51100000000E-03 0. -1.
         11    1    3    3    0    0  0.38648778343E+02  0.12578800981E+02 -0.10424565035E+02  0.41959812415E+02  0.51100000000E-03 0.  1.
<mgrwt>
<rscale>  0 0.91373334E+02</rscale>
<asrwt>0</asrwt>
<pdfrwt beam="2">  1        1 0.14833170E-01 0.91373334E+02</pdfrwt>
<pdfrwt beam="1">  1       -1 0.33305678E-02 0.91373334E+02</pdfrwt>
<totfact> 0.10321369E+05</totfact>
</mgrwt>
</event>
<event>
 5   1  0.1357339E+00  0.9204205E+02  0.7818608E-02  0.1297981E+00
         -1   -1    0    0    0  501 -0.00000000000E+00  0.00000000000E+00  0.74828417058E+02  0.74828417203E+02  0.46700000000E-02 0.  1.
          1   -1    0    0  501    0  0.00000000000E+00 -0.00000000000E+00 -0.28303882646E+02  0.28303883032E+02  0.46700000000E-02 0. -1.
         23    2    1    2    0    0  0.00000000000E+00  0.00000000000E+00  0.46524534411E+02  0.10313230023E+03  0.92042050442E+02 0.  0.
        -11    1    3    3    0    0 -0.37880767484E+02 -0.14789263456E+02 -0.88060900564E+00  0.40674934926E+02  0.51100000000E-03 0. -1.
         11    1    3    3    0    0  0.37880767484E+02  0.14789263456E+02  0.47405143417E+02  0.62457365309E+02  0.51100000000E-03 0.  1.
<mgrwt>
<rscale>  0 0.92042050E+02</rscale>
<asrwt>0</asrwt>
<pdfrwt beam="2">  1        1 0.43544436E-02 0.92042050E+02</pdfrwt>
<pdfrwt beam="1">  1       -1 0.11512064E-01 0.92042050E+02</pdfrwt>
<totfact> 0.83558119E+04</totfact>
</mgrwt>
</event>
<event>
 5   1  0.1357339E+00  0.1017479E+03  0.7818608E-02  0.1276663E+00
          1   -1    0    0  501    0  0.00000000000E+00  0.00000000000E+00  0.31771627054E+03  0.31771627058E+03  0.46700000000E-02 0. -1.
         -1   -1    0    0    0  501 -0.00000000000E+00 -0.00000000000E+00 -0.81461251624E+01  0.81461265010E+01  0.46700000000E-02 0.  1.
         23    2    1    2    0    0  0.00000000000E+00  0.00000000000E+00  0.30957014538E+03  0.32586239708E+03  0.10174785953E+03 0.  0.
        -11    1    3    3    0    0  0.28732867985E+02  0.38893629189E+02  0.20540964444E+03  0.21102467657E+03  0.51100000000E-03 0.  1.
         11    1    3    3    0    0 -0.28732867985E+02 -0.38893629189E+02  0.10416050094E+03  0.11483772051E+03  0.51100000000E-03 0. -1.
<mgrwt>
<rscale>  0 0.10174786E+03</rscale>
<asrwt>0</asrwt>
<pdfrwt beam="1">  1        1 0.48879428E-01 0.10174786E+03</pdfrwt>
<pdfrwt beam="2">  1       -1 0.12532501E-02 0.10174786E+03</pdfrwt>
<totfact> 0.96543112E+04</totfact>
</mgrwt>
</event>
<event>
 5   1  0.1357339E+00  0.9167760E+02  0.7818608E-02  0.1298839E+00
         -1   -1    0    0    0  501 -0.00000000000E+00  0.00000000000E+00  0.68613470409E+02  0.68613470568E+02  0.46700000000E-02 0. -1.
          1   -1    0    0  501    0  0.00000000000E+00 -0.00000000000E+00 -0.30623662709E+02  0.30623663065E+02  0.46700000000E-02 0.  1.
         23    2    1    2    0    0  0.00000000000E+00  0.00000000000E+00  0.37989807700E+02  0.99237133633E+02  0.91677604695E+02 0.  0.
        -11    1    3    3    0    0  0.13673019313E+02 -0.41183874137E+02  0.34982070238E+02  0.55738749399E+02  0.51100000000E-03 0.  1.
         11    1    3    3    0    0 -0.13673019313E+02  0.41183874137E+02  0.30077374617E+01  0.43498384235E+02  0.51100000000E-03 0. -1.
<mgrwt>
<rscale>  0 0.91677605E+02</rscale>
<asrwt>0</asrwt>
<pdfrwt beam="2">  1        1 0.47113328E-02 0.91677605E+02</pdfrwt>
<pdfrwt beam="1">  1       -1 0.10555918E-01 0.91677605E+02</pdfrwt>
<totfact> 0.85614608E+04</totfact>
</mgrwt>
</event>
<event>
 5   1  0.1357339E+00  0.9131339E+02  0.7818608E-02  0.1299702E+00
         -1   -1    0    0    0  501 -0.00000000000E+00  0.00000000000E+00  0.11594256173E+02  0.11594257113E+02  0.46700000000E-02 0.  1.
          1   -1    0    0  501    0  0.00000000000E+00 -0.00000000000E+00 -0.17979019479E+03  0.17979019486E+03  0.46700000000E-02 0. -1.
         23    2    1    2    0    0  0.00000000000E+00  0.00000000000E+00 -0.16819593862E+03  0.19138445197E+03  0.91313387225E+02 0.  0.
        -11    1    3    3    0    0  0.36302828029E+02  0.22475138424E+02 -0.11799123726E+03  0.12547891951E+03  0.51100000000E-03 0. -1.
         11    1    3    3    0    0 -0.36302828029E+02 -0.22475138424E+02 -0.50204701362E+02  0.65905532462E+02  0.51100000000E-03 0.  1.
<mgrwt>
<rscale>  0 0.91313387E+02</rscale>
<asrwt>0</asrwt>
<pdfrwt beam="2">  1        1 0.27660028E-01 0.91313387E+02</pdfrwt>
<pdfrwt beam="1">  1       -1 0.17837319E-02 0.91313387E+02</pdfrwt>
<totfact> 0.11553430E+05</totfact>
</mgrwt>
</event>
<event>
 5   1  0.1357339E+00  0.9374788E+02  0.7818608E-02  0.1294021E+00
         -1   -1    0    0    0  501 -0.00000000000E+00  0.00000000000E+00  0.37030014479E+02  0.37030014774E+02  0.46700000000E-02 0.  1.
          1   -1    0    0  501    0  0.00000000000E+00 -0.00000000000E+00 -0.59334738382E+02  0.59334738566E+02  0.46700000000E-02 0. -1.
         23    2    1    2    0    0  0.00000000000E+00  0.00000000000E+00 -0.22304723903E+02  0.96364753339E+02  0.93747879857E+02 0.  0.
        -11    1    3    3    0    0 -0.11252999535E+02  0.16187749503E+02 -0.54865821319E+02  0.58300356618E+02  0.51100000000E-03 0. -1.
         11    1    3    3    0    0  0.11252999535E+02 -0.16187749503E+02  0.32561097417E+02  0.38064396721E+02  0.51100000000E-03 0.  1.
<mgrwt>
<rscale>  0 0.93747880E+02</rscale>
<asrwt>0</asrwt>
<pdfrwt beam="2">  1        1 0.91284213E-02 0.93747880E+02</pdfrwt>
<pdfrwt beam="1">  1       -1 0.56969253E-02 0.93747880E+02</pdfrwt>
<totfact> 0.89043108E+04</totfact>
</mgrwt>
</event>
<event>
 5   1  0.1357339E+00  0.9499633E+02  0.7818608E-02  0.1291184E+00
         -1   -1    0    0    0  501 -0.00000000000E+00  0.00000000000E+00  0.11053311841E+03  0.11053311851E+03  0.46700000000E-02 0.  1.
          1   -1    0    0  501    0  0.00000000000E+00 -0.00000000000E+00 -0.20410854969E+02  0.20410855503E+02  0.46700000000E-02 0. -1.
         23    2    1    2    0    0  0.00000000000E+00  0.00000000000E+00  0.90122263444E+02  0.13094397401E+03  0.94996326047E+02 0.  0.
        -11    1    3    3    0    0  0.26700899679E+02  0.20868722589E+02 -0.81394677015E+00  0.33898438545E+02  0.51100000000E-03 0. -1.
         11    1    3    3    0    0 -0.26700899679E+02 -0.20868722589E+02  0.90936210214E+02  0.97045535469E+02  0.51100000000E-03 0.  1.
<mgrwt>
<rscale>  0 0.94996326E+02</rscale>
<asrwt>0</asrwt>
<pdfrwt beam="2">  1        1 0.31401316E-02 0.94996326E+02</pdfrwt>
<pdfrwt beam="1">  1       -1 0.17005095E-01 0.94996326E+02</pdfrwt>
<totfact> 0.71796521E+04</totfact>
</mgrwt>
</event>
<event>
 5   1  0.1357339E+00  0.9143515E+02  0.7818608E-02  0.1299413E+00
         -1   -1    0    0    0  501 -0.00000000000E+00  0.00000000000E+00  0.67657551517E+02  0.67657551678E+02  0.46700000000E-02 0.  1.
          1   -1    0    0  501    0  0.00000000000E+00 -0.00000000000E+00 -0.30892291826E+02  0.30892292179E+02  0.46700000000E-02 0. -1.
         23    2    1    2    0    0  0.00000000000E+00  0.00000000000E+00  0.36765259691E+02  0.98549843857E+02  0.91435154093E+02 0.  0.
        -11    1    3    3    0    0  0.42839085233E+02  0.10692717642E+02  0.31161646288E+02  0.54042294861E+02  0.51100000000E-03 0.  1.
         11    1    3    3    0    0 -0.42839085233E+02 -0.10692717642E+02  0.56036134030E+01  0.44507548996E+02  0.51100000000E-03 0. -1.
<mgrwt>
<rscale>  0 0.91435154E+02</rscale>
<asrwt>0</asrwt>
<pdfrwt beam="2">  1        1 0.47526603E-02 0.91435154E+02</pdfrwt>
<pdfrwt beam="1">  1       -1 0.10408854E-01 0.91435154E+02</pdfrwt>
<totfact> 0.86389456E+04</totfact>
</mgrwt>
</event>
<event>
 5   1  0.1357339E+00  0.7904851E+02  0.7818608E-02  0.1331774E+00
          1   -1    0    0  501    0  0.00000000000E+00  0.00000000000E+00  0.28009661919E+02  0.28009662309E+02  0.46700000000E-02 0. -1.
         -1   -1    0    0    0  501 -0.00000000000E+00 -0.00000000000E+00 -0.55772424764E+02  0.55772424959E+02  0.46700000000E-02 0.  1.
         23    2    1    2    0    0  0.00000000000E+00  0.00000000000E+00 -0.27762762844E+02  0.83782087268E+02  0.79048511347E+02 0.  0.
        -11    1    3    3    0    0 -0.32156832695E+02  0.15996081976E+02  0.36060360552E+01  0.36096260524E+02  0.51100000000E-03 0. -1.
         11    1    3    3    0    0  0.32156832695E+02 -0.15996081976E+02 -0.31368798900E+02  0.47685826743E+02  0.51100000000E-03 0.  1.
<mgrwt>
<rscale>  0 0.79048511E+02</rscale>
<asrwt>0</asrwt>
<pdfrwt beam="1">  1        1 0.43091788E-02 0.79048511E+02</pdfrwt>
<pdfrwt beam="2">  1       -1 0.85803731E-02 0.79048511E+02</pdfrwt>
<totfact> 0.12861499E+05</totfact>
</mgrwt>
</event>
<event>
 5   1  0.1357339E+00  0.9410600E+02  0.7818608E-02  0.1293202E+00
          1   -1    0    0  501    0  0.00000000000E+00  0.00000000000E+00  0.12917302201E+03  0.12917302210E+03  0.46700000000E-02 0. -1.
         -1   -1    0    0    0  501 -0.00000000000E+00 -0.00000000000E+00 -0.17139685044E+02  0.17139685680E+02  0.46700000000E-02 0.  1.
         23    2    1    2    0    0  0.00000000000E+00  0.00000000000E+00  0.11203333697E+03  0.14631270778E+03  0.94106003341E+02 0.  0.
        -11    1    3    3    0    0 -0.23948408743E+02  0.11919901385E+02 -0.41664828505E+01  0.27073417035E+02  0.51100000000E-03 0.  1.
         11    1    3    3    0    0  0.23948408743E+02 -0.11919901385E+02  0.11619981982E+03  0.11923929074E+03  0.51100000000E-03 0. -1.
<mgrwt>
<rscale>  0 0.94106003E+02</rscale>
<asrwt>0</asrwt>
<pdfrwt beam="1">  1        1 0.19872773E-01 0.94106003E+02</pdfrwt>
<pdfrwt beam="2">  1       -1 0.26368747E-02 0.94106003E+02</pdfrwt>
<totfact> 0.10016552E+05</totfact>
</mgrwt>
</event>
<event>
 5   1  0.1357339E+00  0.9023437E+02  0.7818608E-02  0.1302285E+00
         -1   -1    0    0    0  501 -0.00000000000E+00  0.00000000000E+00  0.12139327842E+02  0.12139328741E+02  0.46700000000E-02 0.  1.
          1   -1    0    0  501    0  0.00000000000E+00 -0.00000000000E+00 -0.16768311728E+03  0.16768311735E+03  0.46700000000E-02 0. -1.
         23    2    1    2    0    0  0.00000000000E+00  0.00000000000E+00 -0.15554378944E+03  0.17982244609E+03  0.90234370857E+02 0.  0.
        -11    1    3    3    0    0 -0.41075295661E+00 -0.45044369716E+02 -0.72731764745E+02  0.85551584230E+02  0.51100000000E-03 0.  1.
         11    1    3    3    0    0  0.41075295661E+00  0.45044369716E+02 -0.82812024697E+02  0.94270861860E+02  0.51100000000E-03 0. -1.
<mgrwt>
<rscale>  0 0.90234371E+02</rscale>
<asrwt>0</asrwt>
<pdfrwt beam="2">  1        1 0.25797401E-01 0.90234371E+02</pdfrwt>
<pdfrwt beam="1">  1       -1 0.18675891E-02 0.90234371E+02</pdfrwt>
<totfact> 0.11772191E+05</totfact>
</mgrwt>
</event>
<event>
 5   1  0.1357339E+00  0.9050966E+02  0.7818608E-02  0.1301622E+00
          1   -1    0    0  501    0  0.00000000000E+00  0.00000000000E+00  0.18788748747E+03  0.18788748753E+03  0.46700000000E-02 0. -1.
         -1   -1    0    0    0  501 -0.00000000000E+00 -0.00000000000E+00 -0.10900137495E+02  0.10900138495E+02  0.46700000000E-02 0.  1.
         23    2    1    2    0    0  0.00000000000E+00  0.00000000000E+00  0.17698734997E+03  0.19878762602E+03  0.90509658097E+02 0.  0.
        -11    1    3    3    0    0  0.74306537224E+01  0.37011000580E+02  0.33675034716E+02  0.50586922638E+02  0.51100000000E-03 0.  1.
         11    1    3    3    0    0 -0.74306537224E+01 -0.37011000580E+02  0.14331231526E+03  0.14820070338E+03  0.51100000000E-03 0. -1.
<mgrwt>
<rscale>  0 0.90509658E+02</rscale>
<asrwt>0</asrwt>
<pdfrwt beam="1">  1        1 0.28905770E-01 0.90509658E+02</pdfrwt>
<pdfrwt beam="2">  1       -1 0.16769442E-02 0.90509658E+02</pdfrwt>
<totfact> 0.11931271E+05</totfact>
</mgrwt>
</event>
<event>
 5   1  0.1357339E+00  0.9049814E+02  0.7818608E-02  0.1301650E+00
         -1   -1    0    0    0  501 -0.00000000000E+00  0.00000000000E+00  0.32828893785E+03  0.32828893788E+03  0.46700000000E-02 0.  1.
          1   -1    0    0  501    0  0.00000000000E+00 -0.00000000000E+00 -0.62368172105E+01  0.62368189589E+01  0.46700000000E-02 0. -1.
         23    2    1    2    0    0  0.00000000000E+00  0.00000000000E+00  0.32205212063E+03  0.33452575684E+03  0.90498141319E+02 0.  0.
        -11    1    3    3    0    0 -0.39091951820E+02 -0.12736057475E+02  0.91174023580E+02  0.10001545097E+03  0.51100000000E-03 0. -1.
         11    1    3    3    0    0  0.39091951820E+02  0.12736057475E+02  0.23087809705E+03  0.23451030586E+03  0.51100000000E-03 0.  1.
<mgrwt>
<rscale>  0 0.90498141E+02</rscale>
<asrwt>0</asrwt>
<pdfrwt beam="2">  1        1 0.95951037E-03 0.90498141E+02</pdfrwt>
<pdfrwt beam="1">  1       -1 0.50505996E-01 0.90498141E+02</pdfrwt>
<totfact> 0.59547577E+04</totfact>
</mgrwt>
</event>
<event>
 5   1  0.1357339E+00  0.8671635E+02  0.7818608E-02  0.1311004E+00
          1   -1    0    0  501    0  0.00000000000E+00  0.00000000000E+00  0.36988908043E+02  0.36988908338E+02  0.46700000000E-02 0. -1.
         -1   -1    0    0    0  501 -0.00000000000E+00 -0.00000000000E+00 -0.50824189203E+02  0.50824189417E+02  0.46700000000E-02 0.  1.
         23    2    1    2    0    0  0.00000000000E+00  0.00000000000E+00 -0.13835281160E+02  0.87813097755E+02  0.86716348704E+02 0.  0.
        -11    1    3    3    0    0 -0.28035068044E+02  0.32781076219E+01  0.26410930983E+02  0.38655508087E+02  0.51100000000E-03 0. -1.
         11    1    3    3    0    0  0.28035068044E+02 -0.32781076219E+01 -0.40246212143E+02  0.49157589668E+02  0.51100000000E-03 0.  1.
<mgrwt>
<rscale>  0 0.86716349E+02</rscale>
<asrwt>0</asrwt>
<pdfrwt beam="1">  1        1 0.56906013E-02 0.86716349E+02</pdfrwt>
<pdfrwt beam="2">  1       -1 0.78191061E-02 0.86716349E+02</pdfrwt>
<totfact> 0.10320513E+05</totfact>
</mgrwt>
</event>
<event>
 5   1  0.1357339E+00  0.1058145E+03  0.7818608E-02  0.1268523E+00
          1   -1    0    0  501    0  0.00000000000E+00  0.00000000000E+00  0.15368991633E+03  0.15368991640E+03  0.46700000000E-02 0. -1.
         -1   -1    0    0    0  501 -0.00000000000E+00 -0.00000000000E+00 -0.18213157378E+02  0.18213157977E+02  0.46700000000E-02 0.  1.
         23    2    1    2    0    0  0.00000000000E+00  0.00000000000E+00  0.13547675895E+03  0.17190307438E+03  0.10581453002E+03 0.  0.
        -11    1    3    3    0    0  0.37084759129E+02 -0.35047675884E+02  0.90456796592E+02  0.10385591459E+03  0.51100000000E-03 0. -1.
         11    1    3    3    0    0 -0.37084759129E+02  0.35047675884E+02  0.45019962358E+02  0.68047159790E+02  0.51100000000E-03 0.  1.
<mgrwt>
<rscale>  0 0.10581453E+03</rscale>
<asrwt>0</asrwt>
<pdfrwt beam="1">  1        1 0.23644602E-01 0.10581453E+03</pdfrwt>
<pdfrwt beam="2">  1       -1 0.28020243E-02 0.10581453E+03</pdfrwt>
<totfact> 0.75113321E+04</totfact>
</mgrwt>
</event>
<event>
 5   1  0.1357339E+00  0.7210531E+02  0.7818608E-02  0.1353077E+00
         -1   -1    0    0    0  501 -0.00000000000E+00  0.00000000000E+00  0.19996256767E+02  0.19996257313E+02  0.46700000000E-02 0.  1.
          1   -1    0    0  501    0  0.00000000000E+00 -0.00000000000E+00 -0.65001866414E+02  0.65001866582E+02  0.46700000000E-02 0. -1.
         23    2    1    2    0    0  0.00000000000E+00  0.00000000000E+00 -0.45005609647E+02  0.84998123895E+02  0.72105313021E+02 0.  0.
        -11    1    3    3    0    0 -0.15527727824E+02 -0.19940778519E+02  0.78053097276E+01  0.26451235123E+02  0.51100000000E-03 0.  1.
         11    1    3    3    0    0  0.15527727824E+02  0.19940778519E+02 -0.52810919374E+02  0.58546888771E+02  0.51100000000E-03 0. -1.
<mgrwt>
<rscale>  0 0.72105313E+02</rscale>
<asrwt>0</asrwt>
<pdfrwt beam="2">  1        1 0.10000287E-01 0.72105313E+02</pdfrwt>
<pdfrwt beam="1">  1       -1 0.30763473E-02 0.72105313E+02</pdfrwt>
<totfact> 0.18458620E+05</totfact>
</mgrwt>
</event>
<event>
 5   1  0.1357339E+00  0.8882358E+02  0.7818608E-02  0.1305726E+00
         -1   -1    0    0    0  501 -0.00000000000E+00  0.00000000000E+00  0.43815395373E+02  0.43815395622E+02  0.46700000000E-02 0.  1.
          1   -1    0    0  501    0  0.00000000000E+00 -0.00000000000E+00 -0.45016300112E+02  0.45016300354E+02  0.46700000000E-02 0. -1.
         23    2    1    2    0    0  0.00000000000E+00  0.00000000000E+00 -0.12009047388E+01  0.88831695976E+02  0.88823578163E+02 0.  0.
        -11    1    3    3    0    0  0.20672182260E+02 -0.37735068566E+02 -0.11607478866E+02  0.44564650621E+02  0.51100000000E-03 0.  1.
         11    1    3    3    0    0 -0.20672182260E+02  0.37735068566E+02  0.10406574128E+02  0.44267045355E+02  0.51100000000E-03 0. -1.
<mgrwt>
<rscale>  0 0.88823578E+02</rscale>
<asrwt>0</asrwt>
<pdfrwt beam="2">  1        1 0.69255847E-02 0.88823578E+02</pdfrwt>
<pdfrwt beam="1">  1       -1 0.67408300E-02 0.88823578E+02</pdfrwt>
<totfact> 0.99308420E+04</totfact>
</mgrwt>
</event>
<event>
 5   1  0.1357339E+00  0.9017941E+02  0.7818608E-02  0.1302418E+00
         -1   -1    0    0    0  501 -0.00000000000E+00  0.00000000000E+00  0.15373239781E+02  0.15373240490E+02  0.46700000000E-02 0.  1.
          1   -1    0    0  501    0  0.00000000000E+00 -0.00000000000E+00 -0.13224807329E+03  0.13224807337E+03  0.46700000000E-02 0. -1.
         23    2    1    2    0    0  0.00000000000E+00  0.00000000000E+00 -0.11687483351E+03  0.14762131386E+03  0.90179407841E+02 0.  0.
        -11    1    3    3    0    0 -0.34946862966E+01  0.33662589294E+02 -0.96649786109E+01  0.35196513494E+02  0.51100000000E-03 0.  1.
         11    1    3    3    0    0  0.34946862966E+01 -0.33662589294E+02 -0.10720985490E+03  0.11242480037E+03  0.51100000000E-03 0. -1.
<mgrwt>
<rscale>  0 0.90179408E+02</rscale>
<asrwt>0</asrwt>
<pdfrwt beam="2">  1        1 0.20345857E-01 0.90179408E+02</pdfrwt>
<pdfrwt beam="1">  1       -1 0.23651140E-02 0.90179408E+02</pdfrwt>
<totfact> 0.11290808E+05</totfact>
</mgrwt>
</event>
<event>
 5   1  0.1357339E+00  0.8794867E+02  0.7818608E-02  0.1307897E+00
          1   -1    0    0  501    0  0.00000000000E+00  0.00000000000E+00  0.24287078057E+02  0.24287078506E+02  0.46700000000E-02 0. -1.
         -1   -1    0    0    0  501 -0.00000000000E+00 -0.00000000000E+00 -0.79620205185E+02  0.79620205322E+02  0.46700000000E-02 0.  1.
         23    2    1    2    0    0  0.00000000000E+00  0.00000000000E+00 -0.55333127128E+02  0.10390728383E+03  0.87948670683E+02 0.  0.
        -11    1    3    3    0    0 -0.12953895393E+02 -0.35789485692E+02 -0.16463636920E+01  0.38097259817E+02  0.51100000000E-03 0. -1.
         11    1    3    3    0    0  0.12953895393E+02  0.35789485692E+02 -0.53686763436E+02  0.65810024011E+02  0.51100000000E-03 0.  1.
<mgrwt>
<rscale>  0 0.87948671E+02</rscale>
<asrwt>0</asrwt>
<pdfrwt beam="1">  1        1 0.37364736E-02 0.87948671E+02</pdfrwt>
<pdfrwt beam="2">  1       -1 0.12249262E-01 0.87948671E+02</pdfrwt>
<totfact> 0.92895809E+04</totfact>
</mgrwt>
</event>
<event>
 5   1  0.1357339E+00  0.9125426E+02  0.7818608E-02  0.1299842E+00
         -1   -1    0    0    0  501 -0.00000000000E+00  0.00000000000E+00  0.35416014730E+02  0.35416015037E+02  0.46700000000E-02 0.  1.
          1   -1    0    0  501    0  0.00000000000E+00 -0.00000000000E+00 -0.58782302658E+02  0.58782302844E+02  0.46700000000E-02 0. -1.
         23    2    1    2    0    0  0.00000000000E+00  0.00000000000E+00 -0.23366287929E+02  0.94198317881E+02  0.91254258422E+02 0.  0.
        -11    1    3    3    0    0 -0.32091253045E+01 -0.28671379245E+02 -0.48171654000E+02  0.56150286931E+02  0.51100000000E-03 0. -1.
         11    1    3    3    0    0  0.32091253045E+01  0.28671379245E+02  0.24805366071E+02  0.38048030951E+02  0.51100000000E-03 0.  1.
<mgrwt>
<rscale>  0 0.91254258E+02</rscale>
<asrwt>0</asrwt>
<pdfrwt beam="2">  1        1 0.90434312E-02 0.91254258E+02</pdfrwt>
<pdfrwt beam="1">  1       -1 0.54486177E-02 0.91254258E+02</pdfrwt>
<totfact> 0.95846616E+04</totfact>
</mgrwt>
</event>
<event>
 5   1  0.1357339E+00  0.9971174E+02  0.7818608E-02  0.1280903E+00
         -1   -1    0    0    0  501 -0.00000000000E+00  0.00000000000E+00  0.29471806782E+02  0.29471807152E+02  0.46700000000E-02 0.  1.
          1   -1    0    0  501    0  0.00000000000E+00 -0.00000000000E+00 -0.84338492492E+02  0.84338492621E+02  0.46700000000E-02 0. -1.
         23    2    1    2    0    0  0.00000000000E+00  0.00000000000E+00 -0.54866685710E+02  0.11381029977E+03  0.99711740200E+02 0.  0.
        -11    1    3    3    0    0 -0.16366698534E+02  0.26149280590E+02  0.17270149420E+02  0.35354091101E+02  0.51100000000E-03 0.  1.
         11    1    3    3    0    0  0.16366698534E+02 -0.26149280590E+02 -0.72136835130E+02  0.78456208672E+02  0.51100000000E-03 0. -1.
<mgrwt>
<rscale>  0 0.99711740E+02</rscale>
<asrwt>0</asrwt>
<pdfrwt beam="2">  1        1 0.12975153E-01 0.99711740E+02</pdfrwt>
<pdfrwt beam="1">  1       -1 0.45341242E-02 0.99711740E+02</pdfrwt>
<totfact> 0.79366795E+04</totfact>
</mgrwt>
</event>
<event>
 5   1  0.1357339E+00  0.8663419E+02  0.7818608E-02  0.1311213E+00
         -1   -1    0    0    0  501 -0.00000000000E+00  0.00000000000E+00  0.47630073342E+02  0.47630073571E+02  0.46700000000E-02 0.  1.
          1   -1    0    0  501    0  0.00000000000E+00 -0.00000000000E+00 -0.39394664153E+02  0.39394664429E+02  0.46700000000E-02 0. -1.
         23    2    1    2    0    0  0.00000000000E+00  0.00000000000E+00  0.82354091898E+01  0.87024738001E+02  0.86634191054E+02 0.  0.
        -11    1    3    3    0    0  0.10588670036E+02  0.92009301268E+01 -0.37049892695E+02  0.39616557110E+02  0.51100000000E-03 0. -1.
         11    1    3    3    0    0 -0.10588670036E+02 -0.92009301268E+01  0.45285301884E+02  0.47408180891E+02  0.51100000000E-03 0.  1.
<mgrwt>
<rscale>  0 0.86634191E+02</rscale>
<asrwt>0</asrwt>
<pdfrwt beam="2">  1        1 0.60607176E-02 0.86634191E+02</pdfrwt>
<pdfrwt beam="1">  1       -1 0.73277036E-02 0.86634191E+02</pdfrwt>
<totfact> 0.10443471E+05</totfact>
</mgrwt>
</event>
<event>
 5   1  0.1357339E+00  0.9212891E+02  0.7818608E-02  0.1297777E+00
          1   -1    0    0  501    0  0.00000000000E+00  0.00000000000E+00  0.59506280364E+02  0.59506280547E+02  0.46700000000E-02 0. -1.
         -1   -1    0    0    0  501 -0.00000000000E+00 -0.00000000000E+00 -0.35658989152E+02  0.35658989458E+02  0.46700000000E-02 0.  1.
         23    2    1    2    0    0  0.00000000000E+00  0.00000000000E+00  0.23847291212E+02  0.95165270005E+02  0.92128905979E+02 0.  0.
        -11    1    3    3    0    0 -0.22623019040E+02  0.99206889684E+01 -0.28238528161E+02  0.37518469226E+02  0.51100000000E-03 0.  1.
         11    1    3    3    0    0  0.22623019040E+02 -0.99206889684E+01  0.52085819373E+02  0.57646800780E+02  0.51100000000E-03 0. -1.
<mgrwt>
<rscale>  0 0.92128906E+02</rscale>
<asrwt>0</asrwt>
<pdfrwt beam="1">  1        1 0.91548123E-02 0.92128906E+02</pdfrwt>
<pdfrwt beam="2">  1       -1 0.54859984E-02 0.92128906E+02</pdfrwt>
<totfact> 0.93511474E+04</totfact>
</mgrwt>
</event>
<event>
 5   1  0.1357339E+00  0.8753098E+02  0.7818608E-02  0.1308943E+00
          1   -1    0    0  501    0  0.00000000000E+00  0.00000000000E+00  0.77733001784E+01  0.77733015812E+01  0.46700000000E-02 0. -1.
         -1   -1    0    0    0  501 -0.00000000000E+00 -0.00000000000E+00 -0.24640989827E+03  0.24640989831E+03  0.46700000000E-02 0.  1.
         23    2    1    2    0    0  0.00000000000E+00  0.00000000000E+00 -0.23863659809E+03  0.25418319990E+03  0.87530984002E+02 0.  0.
        -11    1    3    3    0    0  0.43139486172E+02  0.20003504331E+00 -0.97907307796E+02  0.10699016871E+03  0.51100000000E-03 0. -1.
         11    1    3    3    0    0 -0.43139486172E+02 -0.20003504331E+00 -0.14072929030E+03  0.14719303118E+03  0.51100000000E-03 0.  1.
<mgrwt>
<rscale>  0 0.87530984E+02</rscale>
<asrwt>0</asrwt>
<pdfrwt beam="1">  1        1 0.11958926E-02 0.87530984E+02</pdfrwt>
<pdfrwt beam="2">  1       -1 0.37909209E-01 0.87530984E+02</pdfrwt>
<totfact> 0.72383243E+04</totfact>
</mgrwt>
</event>
<event>
 5   1  0.1357339E+00  0.9033640E+02  0.7818608E-02  0.1302039E+00
         -1   -1    0    0    0  501 -0.00000000000E+00  0.00000000000E+00  0.44851349886E+01  0.44851374199E+01  0.46700000000E-02 0.  1.
          1   -1    0    0  501    0  0.00000000000E+00 -0.00000000000E+00 -0.45487279828E+03  0.45487279831E+03  0.46700000000E-02 0. -1.
         23    2    1    2    0    0  0.00000000000E+00  0.00000000000E+00 -0.45038766329E+03  0.45935793573E+03  0.90336403888E+02 0.  0.
        -11    1    3    3    0    0 -0.31727967576E+02 -0.31525381471E+02 -0.19317350919E+03  0.19828393343E+03  0.51100000000E-03 0.  1.
         11    1    3    3    0    0  0.31727967576E+02  0.31525381471E+02 -0.25721415410E+03  0.26107400230E+03  0.51100000000E-03 0. -1.
<mgrwt>
<rscale>  0 0.90336404E+02</rscale>
<asrwt>0</asrwt>
<pdfrwt beam="2">  1        1 0.69980394E-01 0.90336404E+02</pdfrwt>
<pdfrwt beam="1">  1       -1 0.69002132E-03 0.90336404E+02</pdfrwt>
<totfact> 0.14098495E+05</totfact>
</mgrwt>
</event>
<event>
 5   1  0.1357339E+00  0.9336882E+02  0.7818608E-02  0.1294893E+00
          1   -1    0    0  501    0  0.00000000000E+00  0.00000000000E+00  0.44533057672E+03  0.44533057675E+03  0.46700000000E-02 0. -1.
         -1   -1    0    0    0  501 -0.00000000000E+00 -0.00000000000E+00 -0.48939682921E+01  0.48939705202E+01  0.46700000000E-02 0.  1.
         23    2    1    2    0    0  0.00000000000E+00  0.00000000000E+00  0.44043660843E+03  0.45022454727E+03  0.93368821971E+02 0.  0.
        -11    1    3    3    0    0 -0.22302565763E+02  0.40218120877E+02  0.25895447422E+03  0.26300631438E+03  0.51100000000E-03 0.  1.
         11    1    3    3    0    0  0.22302565763E+02 -0.40218120877E+02  0.18148213422E+03  0.18721823289E+03  0.51100000000E-03 0. -1.
<mgrwt>
<rscale>  0 0.93368822E+02</rscale>
<asrwt>0</asrwt>
<pdfrwt beam="1">  1        1 0.68512396E-01 0.93368822E+02</pdfrwt>
<pdfrwt beam="2">  1       -1 0.75291838E-03 0.93368822E+02</pdfrwt>
<totfact> 0.12876235E+05</totfact>
</mgrwt>
</event>
<event>
 5   1  0.1357339E+00  0.8090556E+02  0.7818608E-02  0.1326501E+00
         -1   -1    0    0    0  501 -0.00000000000E+00  0.00000000000E+00  0.96872737432E+02  0.96872737544E+02  0.46700000000E-02 0.  1.
          1   -1    0    0  501    0  0.00000000000E+00 -0.00000000000E+00 -0.16892546140E+02  0.16892546786E+02  0.46700000000E-02 0. -1.
         23    2    1    2    0    0  0.00000000000E+00  0.00000000000E+00  0.79980191291E+02  0.11376528433E+03  0.80905555556E+02 0.  0.
        -11    1    3    3    0    0 -0.25736351344E+02 -0.44477780692E+01  0.83428153261E+02  0.87420817126E+02  0.51100000000E-03 0.  1.
         11    1    3    3    0    0  0.25736351344E+02  0.44477780692E+01 -0.34479619694E+01  0.26344467204E+02  0.51100000000E-03 0. -1.
<mgrwt>
<rscale>  0 0.80905556E+02</rscale>
<asrwt>0</asrwt>
<pdfrwt beam="2">  1        1 0.25988533E-02 0.80905556E+02</pdfrwt>
<pdfrwt beam="1">  1       -1 0.14903498E-01 0.80905556E+02</pdfrwt>
<totfact> 0.11122621E+05</totfact>
</mgrwt>
</event>
<event>
 5   1  0.1357339E+00  0.9205551E+02  0.7818608E-02  0.1297949E+00
          1   -1    0    0  501    0  0.00000000000E+00  0.00000000000E+00  0.64713769106E+02  0.64713769274E+02  0.46700000000E-02 0. -1.
         -1   -1    0    0    0  501 -0.00000000000E+00 -0.00000000000E+00 -0.32737304686E+02  0.32737305019E+02  0.46700000000E-02 0.  1.
         23    2    1    2    0    0  0.00000000000E+00  0.00000000000E+00  0.31976464420E+02  0.97451074293E+02  0.92055513708E+02 0.  0.
        -11    1    3    3    0    0 -0.33754308310E+02  0.22711079036E+02 -0.68004163059E+01  0.41247934526E+02  0.51100000000E-03 0.  1.
         11    1    3    3    0    0  0.33754308310E+02 -0.22711079036E+02  0.38776880726E+02  0.56203139767E+02  0.51100000000E-03 0. -1.
<mgrwt>
<rscale>  0 0.92055514E+02</rscale>
<asrwt>0</asrwt>
<pdfrwt beam="1">  1        1 0.99559645E-02 0.92055514E+02</pdfrwt>
<pdfrwt beam="2">  1       -1 0.50365085E-02 0.92055514E+02</pdfrwt>
<totfact> 0.94929008E+04</totfact>
</mgrwt>
</event>
<event>
 5   1  0.1357339E+00  0.9066428E+02  0.7818608E-02  0.1301251E+00
          1   -1    0    0  501    0  0.00000000000E+00  0.00000000000E+00  0.16010625781E+03  0.16010625788E+03  0.46700000000E-02 0.  1.
         -1   -1    0    0    0  501 -0.00000000000E+00 -0.00000000000E+00 -0.12835243996E+02  0.12835244846E+02  0.46700000000E-02 0. -1.
         23    2    1    2    0    0  0.00000000000E+00  0.00000000000E+00  0.14727101382E+03  0.17294150273E+03  0.90664281029E+02 0.  0.
        -11    1    3    3    0    0 -0.20555693608E+02 -0.38415552686E+02  0.97514376650E+02  0.10680517254E+03  0.51100000000E-03 0.  1.
         11    1    3    3    0    0  0.20555693608E+02  0.38415552686E+02  0.49756637166E+02  0.66136330184E+02  0.51100000000E-03 0. -1.
<mgrwt>
<rscale>  0 0.90664281E+02</rscale>
<asrwt>0</asrwt>
<pdfrwt beam="1">  1        1 0.24631732E-01 0.90664281E+02</pdfrwt>
<pdfrwt beam="2">  1       -1 0.19746530E-02 0.90664281E+02</pdfrwt>
<totfact> 0.11522947E+05</totfact>
</mgrwt>
</event>
<event>
 5   1  0.1357339E+00  0.9144256E+02  0.7818608E-02  0.1299395E+00
          1   -1    0    0  501    0  0.00000000000E+00  0.00000000000E+00  0.82576070944E+02  0.82576071076E+02  0.46700000000E-02 0. -1.
         -1   -1    0    0    0  501 -0.00000000000E+00 -0.00000000000E+00 -0.25315267555E+02  0.25315267985E+02  0.46700000000E-02 0.  1.
         23    2    1    2    0    0  0.00000000000E+00  0.00000000000E+00  0.57260803389E+02  0.10789133906E+03  0.91442558143E+02 0.  0.
        -11    1    3    3    0    0 -0.28094419869E+02 -0.75361834669E+01 -0.12990223261E+02  0.31856496820E+02  0.51100000000E-03 0.  1.
         11    1    3    3    0    0  0.28094419869E+02  0.75361834669E+01  0.70251026650E+02  0.76034842242E+02  0.51100000000E-03 0. -1.
<mgrwt>
<rscale>  0 0.91442558E+02</rscale>
<asrwt>0</asrwt>
<pdfrwt beam="1">  1        1 0.12704011E-01 0.91442558E+02</pdfrwt>
<pdfrwt beam="2">  1       -1 0.38946567E-02 0.91442558E+02</pdfrwt>
<totfact> 0.10044540E+05</totfact>
</mgrwt>
</event>
<event>
 5   1  0.1357339E+00  0.9250652E+02  0.7818608E-02  0.1296893E+00
         -1   -1    0    0    0  501 -0.00000000000E+00  0.00000000000E+00  0.12911696142E+02  0.12911696986E+02  0.46700000000E-02 0.  1.
          1   -1    0    0  501    0  0.00000000000E+00 -0.00000000000E+00 -0.16569195471E+03  0.16569195477E+03  0.46700000000E-02 0. -1.
         23    2    1    2    0    0  0.00000000000E+00  0.00000000000E+00 -0.15278025856E+03  0.17860365176E+03  0.92506524172E+02 0.  0.
        -11    1    3    3    0    0 -0.28307705695E+02  0.30438066755E+02 -0.37221742789E+02  0.55796597083E+02  0.51100000000E-03 0.  1.
         11    1    3    3    0    0  0.28307705695E+02 -0.30438066755E+02 -0.11555851578E+03  0.12280705467E+03  0.51100000000E-03 0. -1.
<mgrwt>
<rscale>  0 0.92506524E+02</rscale>
<asrwt>0</asrwt>
<pdfrwt beam="2">  1        1 0.25491069E-01 0.92506524E+02</pdfrwt>
<pdfrwt beam="1">  1       -1 0.19864150E-02 0.92506524E+02</pdfrwt>
<totfact> 0.10985068E+05</totfact>
</mgrwt>
</event>
<event>
 5   1  0.1357339E+00  0.9040310E+02  0.7818608E-02  0.1301878E+00
         -1   -1    0    0    0  501 -0.00000000000E+00  0.00000000000E+00  0.27412410999E+02  0.27412411397E+02  0.46700000000E-02 0.  1.
          1   -1    0    0  501    0  0.00000000000E+00 -0.00000000000E+00 -0.74534861911E+02  0.74534862057E+02  0.46700000000E-02 0. -1.
         23    2    1    2    0    0  0.00000000000E+00  0.00000000000E+00 -0.47122450911E+02  0.10194727345E+03  0.90403103845E+02 0.  0.
        -11    1    3    3    0    0  0.14509720024E+02  0.23915107765E+02 -0.63601854885E+02  0.69481366564E+02  0.51100000000E-03 0. -1.
         11    1    3    3    0    0 -0.14509720024E+02 -0.23915107765E+02  0.16479403974E+02  0.32465906890E+02  0.51100000000E-03 0.  1.
<mgrwt>
<rscale>  0 0.90403104E+02</rscale>
<asrwt>0</asrwt>
<pdfrwt beam="2">  1        1 0.11466902E-01 0.90403104E+02</pdfrwt>
<pdfrwt beam="1">  1       -1 0.42172941E-02 0.90403104E+02</pdfrwt>
<totfact> 0.10199366E+05</totfact>
</mgrwt>
</event>
<event>
 5   1  0.1357339E+00  0.9105616E+02  0.7818608E-02  0.1300314E+00
         -1   -1    0    0    0  501 -0.00000000000E+00  0.00000000000E+00  0.38133299305E+02  0.38133299591E+02  0.46700000000E-02 0.  1.
          1   -1    0    0  501    0  0.00000000000E+00 -0.00000000000E+00 -0.54356851664E+02  0.54356851864E+02  0.46700000000E-02 0. -1.
         23    2    1    2    0    0  0.00000000000E+00  0.00000000000E+00 -0.16223552359E+02  0.92490151455E+02  0.91056161049E+02 0.  0.
        -11    1    3    3    0    0 -0.14946620523E+02 -0.11833775996E+02  0.33883818484E+02  0.38878694355E+02  0.51100000000E-03 0.  1.
         11    1    3    3    0    0  0.14946620523E+02  0.11833775996E+02 -0.50107370843E+02  0.53611457101E+02  0.51100000000E-03 0. -1.
<mgrwt>
<rscale>  0 0.91056161E+02</rscale>
<asrwt>0</asrwt>
<pdfrwt beam="2">  1        1 0.83625926E-02 0.91056161E+02</pdfrwt>
<pdfrwt beam="1">  1       -1 0.58666615E-02 0.91056161E+02</pdfrwt>
<totfact> 0.95298379E+04</totfact>
</mgrwt>
</event>
<event>
 5   1  0.1357339E+00  0.8967714E+02  0.7818608E-02  0.1303635E+00
         -1   -1    0    0    0  501 -0.00000000000E+00  0.00000000000E+00  0.12897124748E+03  0.12897124756E+03  0.46700000000E-02 0.  1.
          1   -1    0    0  501    0  0.00000000000E+00 -0.00000000000E+00 -0.15588725388E+02  0.15588726088E+02  0.46700000000E-02 0. -1.
         23    2    1    2    0    0  0.00000000000E+00  0.00000000000E+00  0.11338252209E+03  0.14455997365E+03  0.89677141271E+02 0.  0.
        -11    1    3    3    0    0 -0.19039702417E+02 -0.22158678277E+02  0.18598711991E+01  0.29274159463E+02  0.51100000000E-03 0. -1.
         11    1    3    3    0    0  0.19039702417E+02  0.22158678277E+02  0.11152265089E+03  0.11528581419E+03  0.51100000000E-03 0.  1.
<mgrwt>
<rscale>  0 0.89677141E+02</rscale>
<asrwt>0</asrwt>
<pdfrwt beam="2">  1        1 0.23982656E-02 0.89677141E+02</pdfrwt>
<pdfrwt beam="1">  1       -1 0.19841730E-01 0.89677141E+02</pdfrwt>
<totfact> 0.80745804E+04</totfact>
</mgrwt>
</event>
<event>
 5   1  0.1357339E+00  0.8919480E+02  0.7818608E-02  0.1304813E+00
          1   -1    0    0  501    0  0.00000000000E+00  0.00000000000E+00  0.58364469713E+02  0.58364469899E+02  0.46700000000E-02 0. -1.
         -1   -1    0    0    0  501 -0.00000000000E+00 -0.00000000000E+00 -0.34077717020E+02  0.34077717340E+02  0.46700000000E-02 0.  1.
         23    2    1    2    0    0  0.00000000000E+00  0.00000000000E+00  0.24286752693E+02  0.92442187239E+02  0.89194795953E+02 0.  0.
        -11    1    3    3    0    0  0.44564447395E+02 -0.18632008320E+00  0.13909294656E+02  0.46685042197E+02  0.51100000000E-03 0.  1.
         11    1    3    3    0    0 -0.44564447395E+02  0.18632008320E+00  0.10377458037E+02  0.45757145042E+02  0.51100000000E-03 0. -1.
<mgrwt>
<rscale>  0 0.89194796E+02</rscale>
<asrwt>0</asrwt>
<pdfrwt beam="1">  1        1 0.89791491E-02 0.89194796E+02</pdfrwt>
<pdfrwt beam="2">  1       -1 0.52427258E-02 0.89194796E+02</pdfrwt>
<totfact> 0.10199338E+05</totfact>
</mgrwt>
</event>
<event>
 5   1  0.1357339E+00  0.9140234E+02  0.7818608E-02  0.1299491E+00
         -1   -1    0    0    0  501 -0.00000000000E+00  0.00000000000E+00  0.70334448226E+01  0.70334463730E+01  0.46700000000E-02 0.  1.
          1   -1    0    0  501    0  0.00000000000E+00 -0.00000000000E+00 -0.29695213985E+03  0.29695213989E+03  0.46700000000E-02 0. -1.
         23    2    1    2    0    0  0.00000000000E+00  0.00000000000E+00 -0.28991869503E+03  0.30398558626E+03  0.91402335459E+02 0.  0.
        -11    1    3    3    0    0 -0.34778069780E+02  0.23567421515E+02 -0.20479219917E+03  0.20905688780E+03  0.51100000000E-03 0.  1.
         11    1    3    3    0    0  0.34778069780E+02 -0.23567421515E+02 -0.85126495856E+02  0.94928698461E+02  0.51100000000E-03 0. -1.
<mgrwt>
<rscale>  0 0.91402335E+02</rscale>
<asrwt>0</asrwt>
<pdfrwt beam="2">  1        1 0.45684935E-01 0.91402335E+02</pdfrwt>
<pdfrwt beam="1">  1       -1 0.10820688E-02 0.91402335E+02</pdfrwt>
<totfact> 0.12703275E+05</totfact>
</mgrwt>
</event>
<event>
 5   1  0.1357339E+00  0.9259720E+02  0.7818608E-02  0.1296681E+00
          1   -1    0    0  501    0  0.00000000000E+00  0.00000000000E+00  0.11525968079E+03  0.11525968089E+03  0.46700000000E-02 0. -1.
         -1   -1    0    0    0  501 -0.00000000000E+00 -0.00000000000E+00 -0.18597658683E+02  0.18597659269E+02  0.46700000000E-02 0.  1.
         23    2    1    2    0    0  0.00000000000E+00  0.00000000000E+00  0.96662022108E+02  0.13385734015E+03  0.92597197556E+02 0.  0.
        -11    1    3    3    0    0  0.23010464401E+02  0.39660230104E+02  0.39058390591E+02  0.60232658912E+02  0.51100000000E-03 0.  1.
         11    1    3    3    0    0 -0.23010464401E+02 -0.39660230104E+02  0.57603631517E+02  0.73624681242E+02  0.51100000000E-03 0. -1.
<mgrwt>
<rscale>  0 0.92597198E+02</rscale>
<asrwt>0</asrwt>
<pdfrwt beam="1">  1        1 0.17732259E-01 0.92597198E+02</pdfrwt>
<pdfrwt beam="2">  1       -1 0.28611782E-02 0.92597198E+02</pdfrwt>
<totfact> 0.10258552E+05</totfact>
</mgrwt>
</event>
<event>
 5   1  0.1357339E+00  0.9141898E+02  0.7818608E-02  0.1299451E+00
         -1   -1    0    0    0  501 -0.00000000000E+00  0.00000000000E+00  0.22260985498E+03  0.22260985503E+03  0.46700000000E-02 0.  1.
          1   -1    0    0  501    0  0.00000000000E+00 -0.00000000000E+00 -0.93857368767E+01  0.93857380385E+01  0.46700000000E-02 0. -1.
         23    2    1    2    0    0  0.00000000000E+00  0.00000000000E+00  0.21322411810E+03  0.23199559307E+03  0.91418984143E+02 0.  0.
        -11    1    3    3    0    0 -0.33148867987E+02  0.19891907853E+02  0.16850440371E+03  0.17288224176E+03  0.51100000000E-03 0.  1.
         11    1    3    3    0    0  0.33148867987E+02 -0.19891907853E+02  0.44719714391E+02  0.59113351303E+02  0.51100000000E-03 0. -1.
<mgrwt>
<rscale>  0 0.91418984E+02</rscale>
<asrwt>0</asrwt>
<pdfrwt beam="2">  1        1 0.14439596E-02 0.91418984E+02</pdfrwt>
<pdfrwt beam="1">  1       -1 0.34247670E-01 0.91418984E+02</pdfrwt>
<totfact> 0.66782187E+04</totfact>
</mgrwt>
</event>
<event>
 5   1  0.1357339E+00  0.9434943E+02  0.7818608E-02  0.1292648E+00
          1   -1    0    0  501    0  0.00000000000E+00  0.00000000000E+00  0.19528935140E+02  0.19528935698E+02  0.46700000000E-02 0. -1.
         -1   -1    0    0    0  501 -0.00000000000E+00 -0.00000000000E+00 -0.11395672556E+03  0.11395672566E+03  0.46700000000E-02 0.  1.
         23    2    1    2    0    0  0.00000000000E+00  0.00000000000E+00 -0.94427790424E+02  0.13348566136E+03  0.94349425984E+02 0.  0.
        -11    1    3    3    0    0  0.34466705714E+02  0.28241370488E+02 -0.69128460891E+02  0.82245199953E+02  0.51100000000E-03 0.  1.
         11    1    3    3    0    0 -0.34466705714E+02 -0.28241370488E+02 -0.25299329533E+02  0.51240461404E+02  0.51100000000E-03 0. -1.
<mgrwt>
<rscale>  0 0.94349426E+02</rscale>
<asrwt>0</asrwt>
<pdfrwt beam="1">  1        1 0.30044517E-02 0.94349426E+02</pdfrwt>
<pdfrwt beam="2">  1       -1 0.17531804E-01 0.94349426E+02</pdfrwt>
<totfact> 0.72634386E+04</totfact>
</mgrwt>
</event>
<event>
 5   1  0.1357339E+00  0.8364214E+02  0.7818608E-02  0.1319022E+00
         -1   -1    0    0    0  501 -0.00000000000E+00  0.00000000000E+00  0.22125826795E+03  0.22125826800E+03  0.46700000000E-02 0.  1.
          1   -1    0    0  501    0  0.00000000000E+00 -0.00000000000E+00 -0.79047962882E+01  0.79047976677E+01  0.46700000000E-02 0. -1.
         23    2    1    2    0    0  0.00000000000E+00  0.00000000000E+00  0.21335347166E+03  0.22916306567E+03  0.83642135289E+02 0.  0.
        -11    1    3    3    0    0 -0.29406810043E+02  0.16886167456E+02  0.17373752405E+03  0.17701590435E+03  0.51100000000E-03 0.  1.
         11    1    3    3    0    0  0.29406810043E+02 -0.16886167456E+02  0.39615947608E+02  0.52147161317E+02  0.51100000000E-03 0. -1.
<mgrwt>
<rscale>  0 0.83642135E+02</rscale>
<asrwt>0</asrwt>
<pdfrwt beam="2">  1        1 0.12161227E-02 0.83642135E+02</pdfrwt>
<pdfrwt beam="1">  1       -1 0.34039733E-01 0.83642135E+02</pdfrwt>
<totfact> 0.84307296E+04</totfact>
</mgrwt>
</event>
<event>
 5   1  0.1357339E+00  0.9028519E+02  0.7818608E-02  0.1302163E+00
          1   -1    0    0  501    0  0.00000000000E+00  0.00000000000E+00  0.73661219307E+02  0.73661219455E+02  0.46700000000E-02 0. -1.
         -1   -1    0    0    0  501 -0.00000000000E+00 -0.00000000000E+00 -0.27665219289E+02  0.27665219683E+02  0.46700000000E-02 0.  1.
         23    2    1    2    0    0  0.00000000000E+00  0.00000000000E+00  0.45996000018E+02  0.10132643914E+03  0.90285188434E+02 0.  0.
        -11    1    3    3    0    0  0.37109280868E+02 -0.47003334733E+01 -0.53643226666E+01  0.37788461456E+02  0.51100000000E-03 0.  1.
         11    1    3    3    0    0 -0.37109280868E+02  0.47003334733E+01  0.51360322685E+02  0.63537977681E+02  0.51100000000E-03 0. -1.
<mgrwt>
<rscale>  0 0.90285188E+02</rscale>
<asrwt>0</asrwt>
<pdfrwt beam="1">  1        1 0.11332495E-01 0.90285188E+02</pdfrwt>
<pdfrwt beam="2">  1       -1 0.42561876E-02 0.90285188E+02</pdfrwt>
<totfact> 0.10217312E+05</totfact>
</mgrwt>
</event>
<event>
 5   1  0.1357339E+00  0.9627384E+02  0.7818608E-02  0.1288333E+00
         -1   -1    0    0    0  501 -0.00000000000E+00  0.00000000000E+00  0.97441687581E+02  0.97441687693E+02  0.46700000000E-02 0.  1.
          1   -1    0    0  501    0  0.00000000000E+00 -0.00000000000E+00 -0.23779996583E+02  0.23779997042E+02  0.46700000000E-02 0. -1.
         23    2    1    2    0    0  0.00000000000E+00  0.00000000000E+00  0.73661690998E+02  0.12122168473E+03  0.96273839278E+02 0.  0.
        -11    1    3    3    0    0 -0.32363688807E+02 -0.32096806402E+02  0.17342730319E+02  0.48768674676E+02  0.51100000000E-03 0.  1.
         11    1    3    3    0    0  0.32363688807E+02  0.32096806402E+02  0.56318960679E+02  0.72453010059E+02  0.51100000000E-03 0. -1.
<mgrwt>
<rscale>  0 0.96273839E+02</rscale>
<asrwt>0</asrwt>
<pdfrwt beam="2">  1        1 0.36584610E-02 0.96273839E+02</pdfrwt>
<pdfrwt beam="1">  1       -1 0.14991029E-01 0.96273839E+02</pdfrwt>
<totfact> 0.71064474E+04</totfact>
</mgrwt>
</event>
<event>
 5   1  0.1357339E+00  0.8916676E+02  0.7818608E-02  0.1304882E+00
         -1   -1    0    0    0  501 -0.00000000000E+00  0.00000000000E+00  0.60762344601E+01  0.60762362547E+01  0.46700000000E-02 0.  1.
          1   -1    0    0  501    0  0.00000000000E+00 -0.00000000000E+00 -0.32712320473E+03  0.32712320477E+03  0.46700000000E-02 0. -1.
         23    2    1    2    0    0  0.00000000000E+00  0.00000000000E+00 -0.32104697027E+03  0.33319944102E+03  0.89166755999E+02 0.  0.
        -11    1    3    3    0    0  0.36683366533E+02 -0.25196225290E+02 -0.17052142748E+03  0.17623301728E+03  0.51100000000E-03 0. -1.
         11    1    3    3    0    0 -0.36683366533E+02  0.25196225290E+02 -0.15052554279E+03  0.15696642374E+03  0.51100000000E-03 0.  1.
<mgrwt>
<rscale>  0 0.89166756E+02</rscale>
<asrwt>0</asrwt>
<pdfrwt beam="2">  1        1 0.50326633E-01 0.89166756E+02</pdfrwt>
<pdfrwt beam="1">  1       -1 0.93480570E-03 0.89166756E+02</pdfrwt>
<totfact> 0.13816913E+05</totfact>
</mgrwt>
</event>
<event>
 5   1  0.1357339E+00  0.9123855E+02  0.7818608E-02  0.1299880E+00
          1   -1    0    0  501    0  0.00000000000E+00  0.00000000000E+00  0.10552930987E+03  0.10552930997E+03  0.46700000000E-02 0. -1.
         -1   -1    0    0    0  501 -0.00000000000E+00 -0.00000000000E+00 -0.19720761161E+02  0.19720761714E+02  0.46700000000E-02 0.  1.
         23    2    1    2    0    0  0.00000000000E+00  0.00000000000E+00  0.85808548704E+02  0.12525007168E+03  0.91238552300E+02 0.  0.
        -11    1    3    3    0    0 -0.23203366034E+01  0.44703175296E+02  0.30830049279E+02  0.54353010793E+02  0.51100000000E-03 0. -1.
         11    1    3    3    0    0  0.23203366034E+01 -0.44703175296E+02  0.54978499425E+02  0.70897060890E+02  0.51100000000E-03 0.  1.
<mgrwt>
<rscale>  0 0.91238552E+02</rscale>
<asrwt>0</asrwt>
<pdfrwt beam="1">  1        1 0.16235278E-01 0.91238552E+02</pdfrwt>
<pdfrwt beam="2">  1       -1 0.30339634E-02 0.91238552E+02</pdfrwt>
<totfact> 0.10520263E+05</totfact>
</mgrwt>
</event>
<event>
 5   1  0.1357339E+00  0.9125375E+02  0.7818608E-02  0.1299844E+00
         -1   -1    0    0    0  501 -0.00000000000E+00  0.00000000000E+00  0.89914031792E+01  0.89914043920E+01  0.46700000000E-02 0.  1.
          1   -1    0    0  501    0  0.00000000000E+00 -0.00000000000E+00 -0.23153356644E+03  0.23153356648E+03  0.46700000000E-02 0. -1.
         23    2    1    2    0    0  0.00000000000E+00  0.00000000000E+00 -0.22254216326E+03  0.24052497088E+03  0.91253751635E+02 0.  0.
        -11    1    3    3    0    0  0.44295347594E+02  0.17455976314E+01 -0.82798920534E+02  0.93919040516E+02  0.51100000000E-03 0. -1.
         11    1    3    3    0    0 -0.44295347594E+02 -0.17455976314E+01 -0.13974324272E+03  0.14660593036E+03  0.51100000000E-03 0.  1.
<mgrwt>
<rscale>  0 0.91253752E+02</rscale>
<asrwt>0</asrwt>
<pdfrwt beam="2">  1        1 0.35620544E-01 0.91253752E+02</pdfrwt>
<pdfrwt beam="1">  1       -1 0.13832931E-02 0.91253752E+02</pdfrwt>
<totfact> 0.12155826E+05</totfact>
</mgrwt>
</event>
<event>
 5   1  0.1357339E+00  0.9132389E+02  0.7818608E-02  0.1299677E+00
          1   -1    0    0  501    0  0.00000000000E+00  0.00000000000E+00  0.10842145154E+03  0.10842145164E+03  0.46700000000E-02 0. -1.
         -1   -1    0    0    0  501 -0.00000000000E+00 -0.00000000000E+00 -0.19230633436E+02  0.19230634003E+02  0.46700000000E-02 0.  1.
         23    2    1    2    0    0  0.00000000000E+00  0.00000000000E+00  0.89190818108E+02  0.12765208565E+03  0.91323890276E+02 0.  0.
        -11    1    3    3    0    0 -0.28492842693E+00  0.36326297311E+02  0.83264903710E+02  0.90844511395E+02  0.51100000000E-03 0. -1.
         11    1    3    3    0    0  0.28492842693E+00 -0.36326297311E+02  0.59259143980E+01  0.36807574252E+02  0.51100000000E-03 0.  1.
<mgrwt>
<rscale>  0 0.91323890E+02</rscale>
<asrwt>0</asrwt>
<pdfrwt beam="1">  1        1 0.16680223E-01 0.91323890E+02</pdfrwt>
<pdfrwt beam="2">  1       -1 0.29585590E-02 0.91323890E+02</pdfrwt>
<totfact> 0.10541597E+05</totfact>
</mgrwt>
</event>
<event>
 4   1  0.1357339E+00  0.4084128E+02  0.7818608E-02  0.1502110E+00
         -1   -1    0    0    0  501 -0.00000000000E+00  0.00000000000E+00  0.11270560807E+02  0.11270561775E+02  0.46700000000E-02 0. -1.
          1   -1    0    0  501    0  0.00000000000E+00 -0.00000000000E+00 -0.36999274685E+02  0.36999274980E+02  0.46700000000E-02 0.  1.
        -11    1    1    2    0    0 -0.10349838823E+02 -0.54538773899E+01 -0.32646028001E+02  0.34678914152E+02  0.51100000000E-03 0.  1.
         11    1    1    2    0    0  0.10349838823E+02  0.54538773899E+01  0.69173141237E+01  0.13590922603E+02  0.51100000000E-03 0. -1.
<mgrwt>
<rscale>  0 0.40841283E+02</rscale>
<asrwt>0</asrwt>
<pdfrwt beam="2">  1        1 0.56921962E-02 0.40841283E+02</pdfrwt>
<pdfrwt beam="1">  1       -1 0.17339325E-02 0.40841283E+02</pdfrwt>
<totfact> 0.75650040E+05</totfact>
</mgrwt>
</event>
<event>
 5   1  0.1357339E+00  0.9259321E+02  0.7818608E-02  0.1296691E+00
         -1   -1    0    0    0  501 -0.00000000000E+00  0.00000000000E+00  0.34160715113E+02  0.34160715432E+02  0.46700000000E-02 0.  1.
          1   -1    0    0  501    0  0.00000000000E+00 -0.00000000000E+00 -0.62743880466E+02  0.62743880640E+02  0.46700000000E-02 0. -1.
         23    2    1    2    0    0  0.00000000000E+00  0.00000000000E+00 -0.28583165353E+02  0.96904596072E+02  0.92593214645E+02 0.  0.
        -11    1    3    3    0    0  0.18834465369E+02 -0.11690408818E+02  0.28245401898E+02  0.35905507554E+02  0.51100000000E-03 0.  1.
         11    1    3    3    0    0 -0.18834465369E+02  0.11690408818E+02 -0.56828567251E+02  0.60999088519E+02  0.51100000000E-03 0. -1.
<mgrwt>
<rscale>  0 0.92593215E+02</rscale>
<asrwt>0</asrwt>
<pdfrwt beam="2">  1        1 0.96529047E-02 0.92593215E+02</pdfrwt>
<pdfrwt beam="1">  1       -1 0.52554947E-02 0.92593215E+02</pdfrwt>
<totfact> 0.92964441E+04</totfact>
</mgrwt>
</event>
<event>
 5   1  0.1357339E+00  0.7612061E+02  0.7818608E-02  0.1340436E+00
          1   -1    0    0  501    0  0.00000000000E+00  0.00000000000E+00  0.45081329705E+02  0.45081329947E+02  0.46700000000E-02 0. -1.
         -1   -1    0    0    0  501 -0.00000000000E+00 -0.00000000000E+00 -0.32132746524E+02  0.32132746863E+02  0.46700000000E-02 0.  1.
         23    2    1    2    0    0  0.00000000000E+00  0.00000000000E+00  0.12948583181E+02  0.77214076810E+02  0.76120613839E+02 0.  0.
        -11    1    3    3    0    0  0.17797875912E+02 -0.32354538899E+02 -0.28780418720E+01  0.37038678427E+02  0.51100000000E-03 0. -1.
         11    1    3    3    0    0 -0.17797875912E+02  0.32354538899E+02  0.15826625053E+02  0.40175398382E+02  0.51100000000E-03 0.  1.
<mgrwt>
<rscale>  0 0.76120614E+02</rscale>
<asrwt>0</asrwt>
<pdfrwt beam="1">  1        1 0.69355893E-02 0.76120614E+02</pdfrwt>
<pdfrwt beam="2">  1       -1 0.49434995E-02 0.76120614E+02</pdfrwt>
<totfact> 0.15210528E+05</totfact>
</mgrwt>
</event>
<event>
 5   1  0.1357339E+00  0.9180806E+02  0.7818608E-02  0.1298531E+00
          1   -1    0    0  501    0  0.00000000000E+00  0.00000000000E+00  0.57311684023E+02  0.57311684213E+02  0.46700000000E-02 0. -1.
         -1   -1    0    0    0  501 -0.00000000000E+00 -0.00000000000E+00 -0.36767024054E+02  0.36767024351E+02  0.46700000000E-02 0.  1.
         23    2    1    2    0    0  0.00000000000E+00  0.00000000000E+00  0.20544659969E+02  0.94078708563E+02  0.91808062564E+02 0.  0.
        -11    1    3    3    0    0  0.19154323576E+02  0.18880931640E+01 -0.32432432691E+02  0.37713600967E+02  0.51100000000E-03 0.  1.
         11    1    3    3    0    0 -0.19154323576E+02 -0.18880931640E+01  0.52977092659E+02  0.56365107596E+02  0.51100000000E-03 0. -1.
<mgrwt>
<rscale>  0 0.91808063E+02</rscale>
<asrwt>0</asrwt>
<pdfrwt beam="1">  1        1 0.88171822E-02 0.91808063E+02</pdfrwt>
<pdfrwt beam="2">  1       -1 0.56564653E-02 0.91808063E+02</pdfrwt>
<totfact> 0.93886252E+04</totfact>
</mgrwt>
</event>
<event>
 5   1  0.1357339E+00  0.9189584E+02  0.7818608E-02  0.1298325E+00
         -1   -1    0    0    0  501 -0.00000000000E+00  0.00000000000E+00  0.54612475171E+02  0.54612475371E+02  0.46700000000E-02 0.  1.
          1   -1    0    0  501    0  0.00000000000E+00 -0.00000000000E+00 -0.38658042779E+02  0.38658043061E+02  0.46700000000E-02 0. -1.
         23    2    1    2    0    0  0.00000000000E+00  0.00000000000E+00  0.15954432392E+02  0.93270518432E+02  0.91895841557E+02 0.  0.
        -11    1    3    3    0    0  0.16223160965E+02  0.91793754286E+01 -0.34648159438E+02  0.39343955542E+02  0.51100000000E-03 0. -1.
         11    1    3    3    0    0 -0.16223160965E+02 -0.91793754286E+01  0.50602591830E+02  0.53926562890E+02  0.51100000000E-03 0.  1.
<mgrwt>
<rscale>  0 0.91895842E+02</rscale>
<asrwt>0</asrwt>
<pdfrwt beam="2">  1        1 0.59473913E-02 0.91895842E+02</pdfrwt>
<pdfrwt beam="1">  1       -1 0.84019193E-02 0.91895842E+02</pdfrwt>
<totfact> 0.88207740E+04</totfact>
</mgrwt>
</event>
<event>
 5   1  0.1357339E+00  0.9043598E+02  0.7818608E-02  0.1301799E+00
         -1   -1    0    0    0  501 -0.00000000000E+00  0.00000000000E+00  0.96460776661E+01  0.96460787965E+01  0.46700000000E-02 0.  1.
          1   -1    0    0  501    0  0.00000000000E+00 -0.00000000000E+00 -0.21196870422E+03  0.21196870427E+03  0.46700000000E-02 0. -1.
         23    2    1    2    0    0  0.00000000000E+00  0.00000000000E+00 -0.20232262656E+03  0.22161478307E+03  0.90435982102E+02 0.  0.
        -11    1    3    3    0    0 -0.22465302208E+02 -0.25400040634E+02 -0.17446470312E+03  0.17772952625E+03  0.51100000000E-03 0. -1.
         11    1    3    3    0    0  0.22465302208E+02  0.25400040634E+02 -0.27857923439E+02  0.43885256819E+02  0.51100000000E-03 0.  1.
<mgrwt>
<rscale>  0 0.90435982E+02</rscale>
<asrwt>0</asrwt>
<pdfrwt beam="2">  1        1 0.32610567E-01 0.90435982E+02</pdfrwt>
<pdfrwt beam="1">  1       -1 0.14840122E-02 0.90435982E+02</pdfrwt>
<totfact> 0.12239547E+05</totfact>
</mgrwt>
</event>
<event>
 5   1  0.1357339E+00  0.9105258E+02  0.7818608E-02  0.1300323E+00
          1   -1    0    0  501    0  0.00000000000E+00  0.00000000000E+00  0.15314870981E+02  0.15314871693E+02  0.46700000000E-02 0. -1.
         -1   -1    0    0    0  501 -0.00000000000E+00 -0.00000000000E+00 -0.13533532434E+03  0.13533532442E+03  0.46700000000E-02 0.  1.
         23    2    1    2    0    0  0.00000000000E+00  0.00000000000E+00 -0.12002045336E+03  0.15065019611E+03  0.91052580218E+02 0.  0.
        -11    1    3    3    0    0 -0.26104096038E+01  0.24605302729E+02 -0.12323896784E+03  0.12569836258E+03  0.51100000000E-03 0.  1.
         11    1    3    3    0    0  0.26104096038E+01 -0.24605302729E+02  0.32185144855E+01  0.24951833529E+02  0.51100000000E-03 0. -1.
<mgrwt>
<rscale>  0 0.91052580E+02</rscale>
<asrwt>0</asrwt>
<pdfrwt beam="1">  1        1 0.23561341E-02 0.91052580E+02</pdfrwt>
<pdfrwt beam="2">  1       -1 0.20820818E-01 0.91052580E+02</pdfrwt>
<totfact> 0.76824877E+04</totfact>
</mgrwt>
</event>
<event>
 5   1  0.1357339E+00  0.9181278E+02  0.7818608E-02  0.1298520E+00
          1   -1    0    0  501    0  0.00000000000E+00  0.00000000000E+00  0.14450870182E+03  0.14450870190E+03  0.46700000000E-02 0. -1.
         -1   -1    0    0    0  501 -0.00000000000E+00 -0.00000000000E+00 -0.14583180463E+02  0.14583181211E+02  0.46700000000E-02 0.  1.
         23    2    1    2    0    0  0.00000000000E+00  0.00000000000E+00  0.12992552136E+03  0.15909188311E+03  0.91812777816E+02 0.  0.
        -11    1    3    3    0    0  0.42436510856E+02  0.16987485727E+01  0.95157683771E+02  0.10420522051E+03  0.51100000000E-03 0. -1.
         11    1    3    3    0    0 -0.42436510856E+02 -0.16987485727E+01  0.34767837585E+02  0.54886662597E+02  0.51100000000E-03 0.  1.
<mgrwt>
<rscale>  0 0.91812778E+02</rscale>
<asrwt>0</asrwt>
<pdfrwt beam="1">  1        1 0.22232108E-01 0.91812778E+02</pdfrwt>
<pdfrwt beam="2">  1       -1 0.22435663E-02 0.91812778E+02</pdfrwt>
<totfact> 0.10929638E+05</totfact>
</mgrwt>
</event>
<event>
 5   1  0.1357339E+00  0.9122607E+02  0.7818608E-02  0.1299909E+00
         -1   -1    0    0    0  501 -0.00000000000E+00  0.00000000000E+00  0.76422923282E+01  0.76422937550E+01  0.46700000000E-02 0.  1.
          1   -1    0    0  501    0  0.00000000000E+00 -0.00000000000E+00 -0.27224143802E+03  0.27224143806E+03  0.46700000000E-02 0. -1.
         23    2    1    2    0    0  0.00000000000E+00  0.00000000000E+00 -0.26459914569E+03  0.27988373181E+03  0.91226067732E+02 0.  0.
        -11    1    3    3    0    0 -0.16264213990E+02 -0.32846829911E+02 -0.49003439363E+02  0.61194574609E+02  0.51100000000E-03 0.  1.
         11    1    3    3    0    0  0.16264213990E+02  0.32846829911E+02 -0.21559570633E+03  0.21868915721E+03  0.51100000000E-03 0. -1.
<mgrwt>
<rscale>  0 0.91226068E+02</rscale>
<asrwt>0</asrwt>
<pdfrwt beam="2">  1        1 0.41883291E-01 0.91226068E+02</pdfrwt>
<pdfrwt beam="1">  1       -1 0.11757376E-02 0.91226068E+02</pdfrwt>
<totfact> 0.12556363E+05</totfact>
</mgrwt>
</event>
<event>
 5   1  0.1357339E+00  0.9152852E+02  0.7818608E-02  0.1299192E+00
          1   -1    0    0  501    0  0.00000000000E+00  0.00000000000E+00  0.40303624534E+02  0.40303624805E+02  0.46700000000E-02 0. -1.
         -1   -1    0    0    0  501 -0.00000000000E+00 -0.00000000000E+00 -0.51964745635E+02  0.51964745845E+02  0.46700000000E-02 0.  1.
         23    2    1    2    0    0  0.00000000000E+00  0.00000000000E+00 -0.11661121100E+02  0.92268370650E+02  0.91528522751E+02 0.  0.
        -11    1    3    3    0    0 -0.23662418919E+02  0.30155955842E+02 -0.31034171555E+02  0.49319484448E+02  0.51100000000E-03 0.  1.
         11    1    3    3    0    0  0.23662418919E+02 -0.30155955842E+02  0.19373050454E+02  0.42948886202E+02  0.51100000000E-03 0. -1.
<mgrwt>
<rscale>  0 0.91528523E+02</rscale>
<asrwt>0</asrwt>
<pdfrwt beam="1">  1        1 0.62005576E-02 0.91528523E+02</pdfrwt>
<pdfrwt beam="2">  1       -1 0.79945763E-02 0.91528523E+02</pdfrwt>
<totfact> 0.89785284E+04</totfact>
</mgrwt>
</event>
<event>
 5   1  0.1357339E+00  0.9089643E+02  0.7818608E-02  0.1300695E+00
         -1   -1    0    0    0  501 -0.00000000000E+00  0.00000000000E+00  0.33041216585E+02  0.33041216915E+02  0.46700000000E-02 0.  1.
          1   -1    0    0  501    0  0.00000000000E+00 -0.00000000000E+00 -0.62514045330E+02  0.62514045504E+02  0.46700000000E-02 0. -1.
         23    2    1    2    0    0  0.00000000000E+00  0.00000000000E+00 -0.29472828745E+02  0.95555262420E+02  0.90896427553E+02 0.  0.
        -11    1    3    3    0    0  0.10135387313E+02  0.42631495742E+02 -0.20615115796E+01  0.43868215549E+02  0.51100000000E-03 0.  1.
         11    1    3    3    0    0 -0.10135387313E+02 -0.42631495742E+02 -0.27411317165E+02  0.51687046871E+02  0.51100000000E-03 0. -1.
<mgrwt>
<rscale>  0 0.90896428E+02</rscale>
<asrwt>0</asrwt>
<pdfrwt beam="2">  1        1 0.96175455E-02 0.90896428E+02</pdfrwt>
<pdfrwt beam="1">  1       -1 0.50832641E-02 0.90896428E+02</pdfrwt>
<totfact> 0.97803662E+04</totfact>
</mgrwt>
</event>
<event>
 5   1  0.1357339E+00  0.9189541E+02  0.7818608E-02  0.1298326E+00
         -1   -1    0    0    0  501 -0.00000000000E+00  0.00000000000E+00  0.18797944382E+03  0.18797944387E+03  0.46700000000E-02 0.  1.
          1   -1    0    0  501    0  0.00000000000E+00 -0.00000000000E+00 -0.11230969474E+02  0.11230970444E+02  0.46700000000E-02 0. -1.
         23    2    1    2    0    0  0.00000000000E+00  0.00000000000E+00  0.17674847434E+03  0.19921041432E+03  0.91895407886E+02 0.  0.
        -11    1    3    3    0    0 -0.78306178822E+00 -0.28793046668E+02  0.16597823672E+03  0.16845897954E+03  0.51100000000E-03 0.  1.
         11    1    3    3    0    0  0.78306178822E+00  0.28793046668E+02  0.10770237620E+02  0.30751434777E+02  0.51100000000E-03 0. -1.
<mgrwt>
<rscale>  0 0.91895408E+02</rscale>
<asrwt>0</asrwt>
<pdfrwt beam="2">  1        1 0.17278415E-02 0.91895408E+02</pdfrwt>
<pdfrwt beam="1">  1       -1 0.28919916E-01 0.91895408E+02</pdfrwt>
<totfact> 0.69208373E+04</totfact>
</mgrwt>
</event>
<event>
 5   1  0.1357339E+00  0.1233922E+03  0.7818608E-02  0.1237604E+00
          1   -1    0    0  501    0  0.00000000000E+00  0.00000000000E+00  0.11231158343E+02  0.11231159313E+02  0.46700000000E-02 0. -1.
         -1   -1    0    0    0  501 -0.00000000000E+00 -0.00000000000E+00 -0.33891505427E+03  0.33891505430E+03  0.46700000000E-02 0.  1.
         23    2    1    2    0    0  0.00000000000E+00  0.00000000000E+00 -0.32768389593E+03  0.35014621362E+03  0.12339220097E+03 0.  0.
        -11    1    3    3    0    0 -0.46357342000E+02 -0.31579552377E+02 -0.23675057754E+03  0.24330455657E+03  0.51100000000E-03 0.  1.
         11    1    3    3    0    0  0.46357342000E+02  0.31579552377E+02 -0.90933318392E+02  0.10684165704E+03  0.51100000000E-03 0. -1.
<mgrwt>
<rscale>  0 0.12339220E+03</rscale>
<asrwt>0</asrwt>
<pdfrwt beam="1">  1        1 0.17278709E-02 0.12339220E+03</pdfrwt>
<pdfrwt beam="2">  1       -1 0.52140770E-01 0.12339220E+03</pdfrwt>
<totfact> 0.25882083E+04</totfact>
</mgrwt>
</event>
<event>
 5   1  0.1357339E+00  0.9113013E+02  0.7818608E-02  0.1300138E+00
         -1   -1    0    0    0  501 -0.00000000000E+00  0.00000000000E+00  0.29786723277E+02  0.29786723643E+02  0.46700000000E-02 0.  1.
          1   -1    0    0  501    0  0.00000000000E+00 -0.00000000000E+00 -0.69701359066E+02  0.69701359222E+02  0.46700000000E-02 0. -1.
         23    2    1    2    0    0  0.00000000000E+00  0.00000000000E+00 -0.39914635788E+02  0.99488082865E+02  0.91130129387E+02 0.  0.
        -11    1    3    3    0    0  0.18533300096E+01 -0.31037789108E+02 -0.56319702865E+02  0.64332636476E+02  0.51100000000E-03 0. -1.
         11    1    3    3    0    0 -0.18533300096E+01  0.31037789108E+02  0.16405067077E+02  0.35155446390E+02  0.51100000000E-03 0.  1.
<mgrwt>
<rscale>  0 0.91130129E+02</rscale>
<asrwt>0</asrwt>
<pdfrwt beam="2">  1        1 0.10723286E-01 0.91130129E+02</pdfrwt>
<pdfrwt beam="1">  1       -1 0.45825729E-02 0.91130129E+02</pdfrwt>
<totfact> 0.98741502E+04</totfact>
</mgrwt>
</event>
<event>
 5   1  0.1357339E+00  0.9043748E+02  0.7818608E-02  0.1301796E+00
          1   -1    0    0  501    0  0.00000000000E+00  0.00000000000E+00  0.19360016948E+02  0.19360017511E+02  0.46700000000E-02 0.  1.
         -1   -1    0    0    0  501 -0.00000000000E+00 -0.00000000000E+00 -0.10561636329E+03  0.10561636340E+03  0.46700000000E-02 0. -1.
         23    2    1    2    0    0  0.00000000000E+00  0.00000000000E+00 -0.86256346344E+02  0.12497638091E+03  0.90437483931E+02 0.  0.
        -11    1    3    3    0    0 -0.34478535261E+02 -0.42862133506E+01 -0.83122293556E+02  0.90091379748E+02  0.51100000000E-03 0. -1.
         11    1    3    3    0    0  0.34478535261E+02  0.42862133506E+01 -0.31340527883E+01  0.34885001158E+02  0.51100000000E-03 0.  1.
<mgrwt>
<rscale>  0 0.90437484E+02</rscale>
<asrwt>0</asrwt>
<pdfrwt beam="1">  1        1 0.29784643E-02 0.90437484E+02</pdfrwt>
<pdfrwt beam="2">  1       -1 0.16248671E-01 0.90437484E+02</pdfrwt>
<totfact> 0.82244281E+04</totfact>
</mgrwt>
</event>
<event>
 4   1  0.1357339E+00  0.5169069E+02  0.7818608E-02  0.1436430E+00
         -1   -1    0    0    0  501 -0.00000000000E+00  0.00000000000E+00  0.13051123243E+02  0.13051124078E+02  0.46700000000E-02 0.  1.
          1   -1    0    0  501    0  0.00000000000E+00 -0.00000000000E+00 -0.51181937097E+02  0.51181937310E+02  0.46700000000E-02 0. -1.
        -11    1    1    2    0    0  0.70141765343E+01 -0.24556798086E+02 -0.23996491286E+02  0.35043781174E+02  0.51100000000E-03 0. -1.
         11    1    1    2    0    0 -0.70141765343E+01  0.24556798086E+02 -0.14134322569E+02  0.29189280214E+02  0.51100000000E-03 0.  1.
<mgrwt>
<rscale>  0 0.51690688E+02</rscale>
<asrwt>0</asrwt>
<pdfrwt beam="2">  1        1 0.78741441E-02 0.51690688E+02</pdfrwt>
<pdfrwt beam="1">  1       -1 0.20078652E-02 0.51690688E+02</pdfrwt>
<totfact> 0.42925312E+05</totfact>
</mgrwt>
</event>
<event>
 5   1  0.1357339E+00  0.9086079E+02  0.7818608E-02  0.1300780E+00
          1   -1    0    0  501    0  0.00000000000E+00  0.00000000000E+00  0.10554897559E+02  0.10554898592E+02  0.46700000000E-02 0. -1.
         -1   -1    0    0    0  501 -0.00000000000E+00 -0.00000000000E+00 -0.19554150051E+03  0.19554150056E+03  0.46700000000E-02 0.  1.
         23    2    1    2    0    0  0.00000000000E+00  0.00000000000E+00 -0.18498660295E+03  0.20609639916E+03  0.90860786230E+02 0.  0.
        -11    1    3    3    0    0  0.45581841507E+01 -0.37126327895E+02 -0.15097670979E+03  0.15554133908E+03  0.51100000000E-03 0.  1.
         11    1    3    3    0    0 -0.45581841507E+01  0.37126327895E+02 -0.34009893163E+02  0.50555060073E+02  0.51100000000E-03 0. -1.
<mgrwt>
<rscale>  0 0.90860786E+02</rscale>
<asrwt>0</asrwt>
<pdfrwt beam="1">  1        1 0.16238306E-02 0.90860786E+02</pdfrwt>
<pdfrwt beam="2">  1       -1 0.30083305E-01 0.90860786E+02</pdfrwt>
<totfact> 0.70504820E+04</totfact>
</mgrwt>
</event>
<event>
 5   1  0.1357339E+00  0.8894477E+02  0.7818608E-02  0.1305427E+00
          1   -1    0    0  501    0  0.00000000000E+00  0.00000000000E+00  0.17818736320E+02  0.17818736932E+02  0.46700000000E-02 0. -1.
         -1   -1    0    0    0  501 -0.00000000000E+00 -0.00000000000E+00 -0.11099512486E+03  0.11099512496E+03  0.46700000000E-02 0.  1.
         23    2    1    2    0    0  0.00000000000E+00  0.00000000000E+00 -0.93176388545E+02  0.12881386190E+03  0.88944767323E+02 0.  0.
        -11    1    3    3    0    0 -0.30878911953E+02  0.30264808069E+02 -0.61661577843E+02  0.75310132075E+02  0.51100000000E-03 0.  1.
         11    1    3    3    0    0  0.30878911953E+02 -0.30264808069E+02 -0.31514810701E+02  0.53503729820E+02  0.51100000000E-03 0. -1.
<mgrwt>
<rscale>  0 0.88944767E+02</rscale>
<asrwt>0</asrwt>
<pdfrwt beam="1">  1        1 0.27413442E-02 0.88944767E+02</pdfrwt>
<pdfrwt beam="2">  1       -1 0.17076173E-01 0.88944767E+02</pdfrwt>
<totfact> 0.85028995E+04</totfact>
</mgrwt>
</event>
<event>
 5   1  0.1357339E+00  0.9128894E+02  0.7818608E-02  0.1299760E+00
          1   -1    0    0  501    0  0.00000000000E+00  0.00000000000E+00  0.88181459564E+02  0.88181459688E+02  0.46700000000E-02 0. -1.
         -1   -1    0    0    0  501 -0.00000000000E+00 -0.00000000000E+00 -0.23626479960E+02  0.23626480421E+02  0.46700000000E-02 0.  1.
         23    2    1    2    0    0  0.00000000000E+00  0.00000000000E+00  0.64554979604E+02  0.11180794011E+03  0.91288937335E+02 0.  0.
        -11    1    3    3    0    0  0.36958672776E+02 -0.25338702805E+02  0.42914259459E+02  0.62045362585E+02  0.51100000000E-03 0. -1.
         11    1    3    3    0    0 -0.36958672776E+02  0.25338702805E+02  0.21640720146E+02  0.49762577524E+02  0.51100000000E-03 0.  1.
<mgrwt>
<rscale>  0 0.91288937E+02</rscale>
<asrwt>0</asrwt>
<pdfrwt beam="1">  1        1 0.13566378E-01 0.91288937E+02</pdfrwt>
<pdfrwt beam="2">  1       -1 0.36348432E-02 0.91288937E+02</pdfrwt>
<totfact> 0.10197809E+05</totfact>
</mgrwt>
</event>
<event>
 5   1  0.1357339E+00  0.9273480E+02  0.7818608E-02  0.1296361E+00
         -1   -1    0    0    0  501 -0.00000000000E+00  0.00000000000E+00  0.15336923222E+02  0.15336923933E+02  0.46700000000E-02 0.  1.
          1   -1    0    0  501    0  0.00000000000E+00 -0.00000000000E+00 -0.14018037876E+03  0.14018037883E+03  0.46700000000E-02 0. -1.
         23    2    1    2    0    0  0.00000000000E+00  0.00000000000E+00 -0.12484345553E+03  0.15551730277E+03  0.92734799672E+02 0.  0.
        -11    1    3    3    0    0 -0.28861283988E+02 -0.20956264515E+02 -0.11210761292E+03  0.11764461573E+03  0.51100000000E-03 0. -1.
         11    1    3    3    0    0  0.28861283988E+02  0.20956264515E+02 -0.12735842613E+02  0.37872687034E+02  0.51100000000E-03 0.  1.
<mgrwt>
<rscale>  0 0.92734800E+02</rscale>
<asrwt>0</asrwt>
<pdfrwt beam="2">  1        1 0.21566211E-01 0.92734800E+02</pdfrwt>
<pdfrwt beam="1">  1       -1 0.23595268E-02 0.92734800E+02</pdfrwt>
<totfact> 0.10579092E+05</totfact>
</mgrwt>
</event>
<event>
 5   1  0.1357339E+00  0.9229852E+02  0.7818608E-02  0.1297379E+00
         -1   -1    0    0    0  501 -0.00000000000E+00  0.00000000000E+00  0.23564726324E+03  0.23564726329E+03  0.46700000000E-02 0.  1.
          1   -1    0    0  501    0  0.00000000000E+00 -0.00000000000E+00 -0.90378902629E+01  0.90378914695E+01  0.46700000000E-02 0. -1.
         23    2    1    2    0    0  0.00000000000E+00  0.00000000000E+00  0.22660937298E+03  0.24468515476E+03  0.92298521314E+02 0.  0.
        -11    1    3    3    0    0  0.24066625073E+02 -0.26803459741E+02  0.36831793796E+02  0.51519015237E+02  0.51100000000E-03 0. -1.
         11    1    3    3    0    0 -0.24066625073E+02  0.26803459741E+02  0.18977757918E+03  0.19316613952E+03  0.51100000000E-03 0.  1.
<mgrwt>
<rscale>  0 0.92298521E+02</rscale>
<asrwt>0</asrwt>
<pdfrwt beam="2">  1        1 0.13904446E-02 0.92298521E+02</pdfrwt>
<pdfrwt beam="1">  1       -1 0.36253428E-01 0.92298521E+02</pdfrwt>
<totfact> 0.63968877E+04</totfact>
</mgrwt>
</event>
<event>
 5   1  0.1357339E+00  0.9374127E+02  0.7818608E-02  0.1294036E+00
          1   -1    0    0  501    0  0.00000000000E+00  0.00000000000E+00  0.13552269795E+02  0.13552270600E+02  0.46700000000E-02 0. -1.
         -1   -1    0    0    0  501 -0.00000000000E+00 -0.00000000000E+00 -0.16210247237E+03  0.16210247244E+03  0.46700000000E-02 0.  1.
         23    2    1    2    0    0  0.00000000000E+00  0.00000000000E+00 -0.14855020258E+03  0.17565474304E+03  0.93741271950E+02 0.  0.
        -11    1    3    3    0    0 -0.41414587972E+02  0.86382315633E+01 -0.11208132103E+03  0.11979987340E+03  0.51100000000E-03 0. -1.
         11    1    3    3    0    0  0.41414587972E+02 -0.86382315633E+01 -0.36468881545E+02  0.55854869643E+02  0.51100000000E-03 0.  1.
<mgrwt>
<rscale>  0 0.93741272E+02</rscale>
<asrwt>0</asrwt>
<pdfrwt beam="1">  1        1 0.20849648E-02 0.93741272E+02</pdfrwt>
<pdfrwt beam="2">  1       -1 0.24938841E-01 0.93741272E+02</pdfrwt>
<totfact> 0.68295359E+04</totfact>
</mgrwt>
</event>
<event>
 5   1  0.1357339E+00  0.8263183E+02  0.7818608E-02  0.1321744E+00
         -1   -1    0    0    0  501 -0.00000000000E+00  0.00000000000E+00  0.68121252351E+01  0.68121268358E+01  0.46700000000E-02 0.  1.
          1   -1    0    0  501    0  0.00000000000E+00 -0.00000000000E+00 -0.25058327858E+03  0.25058327862E+03  0.46700000000E-02 0. -1.
         23    2    1    2    0    0  0.00000000000E+00  0.00000000000E+00 -0.24377115334E+03  0.25739540546E+03  0.82631831327E+02 0.  0.
        -11    1    3    3    0    0 -0.78412332773E+01 -0.39186372374E+02 -0.89223228003E+02  0.97764211932E+02  0.51100000000E-03 0.  1.
         11    1    3    3    0    0  0.78412332773E+01  0.39186372374E+02 -0.15454792534E+03  0.15963119352E+03  0.51100000000E-03 0. -1.
<mgrwt>
<rscale>  0 0.82631831E+02</rscale>
<asrwt>0</asrwt>
<pdfrwt beam="2">  1        1 0.38551267E-01 0.82631831E+02</pdfrwt>
<pdfrwt beam="1">  1       -1 0.10480196E-02 0.82631831E+02</pdfrwt>
<totfact> 0.16068868E+05</totfact>
</mgrwt>
</event>
<event>
 5   1  0.1357339E+00  0.8877711E+02  0.7818608E-02  0.1305840E+00
          1   -1    0    0  501    0  0.00000000000E+00  0.00000000000E+00  0.56310847305E+02  0.56310847499E+02  0.46700000000E-02 0. -1.
         -1   -1    0    0    0  501 -0.00000000000E+00 -0.00000000000E+00 -0.34990481793E+02  0.34990482105E+02  0.46700000000E-02 0.  1.
         23    2    1    2    0    0  0.00000000000E+00  0.00000000000E+00  0.21320365512E+02  0.91301329603E+02  0.88777107419E+02 0.  0.
        -11    1    3    3    0    0  0.40031780858E+01 -0.26439743405E+02 -0.25776820468E+02  0.37142023906E+02  0.51100000000E-03 0.  1.
         11    1    3    3    0    0 -0.40031780858E+01  0.26439743405E+02  0.47097185980E+02  0.54159305697E+02  0.51100000000E-03 0. -1.
<mgrwt>
<rscale>  0 0.88777107E+02</rscale>
<asrwt>0</asrwt>
<pdfrwt beam="1">  1        1 0.86632072E-02 0.88777107E+02</pdfrwt>
<pdfrwt beam="2">  1       -1 0.53831511E-02 0.88777107E+02</pdfrwt>
<totfact> 0.10277973E+05</totfact>
</mgrwt>
</event>
<event>
 5   1  0.1357339E+00  0.9070451E+02  0.7818608E-02  0.1301155E+00
         -1   -1    0    0    0  501 -0.00000000000E+00  0.00000000000E+00  0.16523797255E+02  0.16523797914E+02  0.46700000000E-02 0.  1.
          1   -1    0    0  501    0  0.00000000000E+00 -0.00000000000E+00 -0.12447664888E+03  0.12447664897E+03  0.46700000000E-02 0. -1.
         23    2    1    2    0    0  0.00000000000E+00  0.00000000000E+00 -0.10795285163E+03  0.14100044689E+03  0.90704508417E+02 0.  0.
        -11    1    3    3    0    0  0.18787309590E+02  0.33299524389E+02 -0.16057838009E+02  0.41468970182E+02  0.51100000000E-03 0.  1.
         11    1    3    3    0    0 -0.18787309590E+02 -0.33299524389E+02 -0.91895013620E+02  0.99531476703E+02  0.51100000000E-03 0. -1.
<mgrwt>
<rscale>  0 0.90704508E+02</rscale>
<asrwt>0</asrwt>
<pdfrwt beam="2">  1        1 0.19150253E-01 0.90704508E+02</pdfrwt>
<pdfrwt beam="1">  1       -1 0.25421228E-02 0.90704508E+02</pdfrwt>
<totfact> 0.10996686E+05</totfact>
</mgrwt>
</event>
<event>
 5   1  0.1357339E+00  0.8924169E+02  0.7818608E-02  0.1304699E+00
          1   -1    0    0  501    0  0.00000000000E+00  0.00000000000E+00  0.27074106775E+02  0.27074107178E+02  0.46700000000E-02 0. -1.
         -1   -1    0    0    0  501 -0.00000000000E+00 -0.00000000000E+00 -0.73539625411E+02  0.73539625559E+02  0.46700000000E-02 0.  1.
         23    2    1    2    0    0  0.00000000000E+00  0.00000000000E+00 -0.46465518635E+02  0.10061373274E+03  0.89241687530E+02 0.  0.
        -11    1    3    3    0    0  0.29849007776E+02  0.29810258070E+02 -0.39625329812E+02  0.57877297055E+02  0.51100000000E-03 0. -1.
         11    1    3    3    0    0 -0.29849007776E+02 -0.29810258070E+02 -0.68401888234E+01  0.42736435682E+02  0.51100000000E-03 0.  1.
<mgrwt>
<rscale>  0 0.89241688E+02</rscale>
<asrwt>0</asrwt>
<pdfrwt beam="1">  1        1 0.41652473E-02 0.89241688E+02</pdfrwt>
<pdfrwt beam="2">  1       -1 0.11313788E-01 0.89241688E+02</pdfrwt>
<totfact> 0.90674550E+04</totfact>
</mgrwt>
</event>
<event>
 5   1  0.1357339E+00  0.9198375E+02  0.7818608E-02  0.1298118E+00
          1   -1    0    0  501    0  0.00000000000E+00  0.00000000000E+00  0.84534623708E+02  0.84534623837E+02  0.46700000000E-02 0. -1.
         -1   -1    0    0    0  501 -0.00000000000E+00 -0.00000000000E+00 -0.25022323096E+02  0.25022323532E+02  0.46700000000E-02 0.  1.
         23    2    1    2    0    0  0.00000000000E+00  0.00000000000E+00  0.59512300612E+02  0.10955694737E+03  0.91983752873E+02 0.  0.
        -11    1    3    3    0    0  0.32713728283E+02 -0.27122810548E+02  0.88053091226E+01  0.43397791870E+02  0.51100000000E-03 0.  1.
         11    1    3    3    0    0 -0.32713728283E+02  0.27122810548E+02  0.50706991490E+02  0.66159155499E+02  0.51100000000E-03 0. -1.
<mgrwt>
<rscale>  0 0.91983753E+02</rscale>
<asrwt>0</asrwt>
<pdfrwt beam="1">  1        1 0.13005327E-01 0.91983753E+02</pdfrwt>
<pdfrwt beam="2">  1       -1 0.38495881E-02 0.91983753E+02</pdfrwt>
<totfact> 0.99202104E+04</totfact>
</mgrwt>
</event>
<event>
 5   1  0.1357339E+00  0.8592066E+02  0.7818608E-02  0.1313042E+00
         -1   -1    0    0    0  501 -0.00000000000E+00  0.00000000000E+00  0.50133425362E+02  0.50133425580E+02  0.46700000000E-02 0.  1.
          1   -1    0    0  501    0  0.00000000000E+00 -0.00000000000E+00 -0.36813563078E+02  0.36813563374E+02  0.46700000000E-02 0. -1.
         23    2    1    2    0    0  0.00000000000E+00  0.00000000000E+00  0.13319862285E+02  0.86946988954E+02  0.85920661990E+02 0.  0.
        -11    1    3    3    0    0  0.28668051262E+02 -0.26223617284E+02  0.25210702205E+02  0.46315383757E+02  0.51100000000E-03 0.  1.
         11    1    3    3    0    0 -0.28668051262E+02  0.26223617284E+02 -0.11890839921E+02  0.40631605197E+02  0.51100000000E-03 0. -1.
<mgrwt>
<rscale>  0 0.85920662E+02</rscale>
<asrwt>0</asrwt>
<pdfrwt beam="2">  1        1 0.56636252E-02 0.85920662E+02</pdfrwt>
<pdfrwt beam="1">  1       -1 0.77128347E-02 0.85920662E+02</pdfrwt>
<totfact> 0.10583771E+05</totfact>
</mgrwt>
</event>
<event>
 5   1  0.1357339E+00  0.9015088E+02  0.7818608E-02  0.1302487E+00
         -1   -1    0    0    0  501 -0.00000000000E+00  0.00000000000E+00  0.18314712931E+03  0.18314712937E+03  0.46700000000E-02 0.  1.
          1   -1    0    0  501    0  0.00000000000E+00 -0.00000000000E+00 -0.11093786772E+02  0.11093787755E+02  0.46700000000E-02 0. -1.
         23    2    1    2    0    0  0.00000000000E+00  0.00000000000E+00  0.17205334254E+03  0.19424091712E+03  0.90150880233E+02 0.  0.
        -11    1    3    3    0    0  0.29413300947E+02 -0.47302608898E+01  0.15891138598E+03  0.16167976445E+03  0.51100000000E-03 0.  1.
         11    1    3    3    0    0 -0.29413300947E+02  0.47302608898E+01  0.13141956561E+02  0.32561152670E+02  0.51100000000E-03 0. -1.
<mgrwt>
<rscale>  0 0.90150880E+02</rscale>
<asrwt>0</asrwt>
<pdfrwt beam="2">  1        1 0.17067367E-02 0.90150880E+02</pdfrwt>
<pdfrwt beam="1">  1       -1 0.28176479E-01 0.90150880E+02</pdfrwt>
<totfact> 0.73263684E+04</totfact>
</mgrwt>
</event>
<event>
 5   1  0.1357339E+00  0.8990170E+02  0.7818608E-02  0.1303090E+00
         -1   -1    0    0    0  501 -0.00000000000E+00  0.00000000000E+00  0.92737454735E+02  0.92737454853E+02  0.46700000000E-02 0.  1.
          1   -1    0    0  501    0  0.00000000000E+00 -0.00000000000E+00 -0.21788166021E+02  0.21788166522E+02  0.46700000000E-02 0. -1.
         23    2    1    2    0    0  0.00000000000E+00  0.00000000000E+00  0.70949288714E+02  0.11452562137E+03  0.89901704001E+02 0.  0.
        -11    1    3    3    0    0 -0.41471921113E+02 -0.82695253682E+01  0.54889530600E+02  0.69290445664E+02  0.51100000000E-03 0.  1.
         11    1    3    3    0    0  0.41471921113E+02  0.82695253682E+01  0.16059758114E+02  0.45235175710E+02  0.51100000000E-03 0. -1.
<mgrwt>
<rscale>  0 0.89901704E+02</rscale>
<asrwt>0</asrwt>
<pdfrwt beam="2">  1        1 0.33520256E-02 0.89901704E+02</pdfrwt>
<pdfrwt beam="1">  1       -1 0.14267301E-01 0.89901704E+02</pdfrwt>
<totfact> 0.85537731E+04</totfact>
</mgrwt>
</event>
<event>
 5   1  0.1357339E+00  0.9156325E+02  0.7818608E-02  0.1299110E+00
         -1   -1    0    0    0  501 -0.00000000000E+00  0.00000000000E+00  0.28941910485E+02  0.28941910862E+02  0.46700000000E-02 0.  1.
          1   -1    0    0  501    0  0.00000000000E+00 -0.00000000000E+00 -0.72419454763E+02  0.72419454913E+02  0.46700000000E-02 0. -1.
         23    2    1    2    0    0  0.00000000000E+00  0.00000000000E+00 -0.43477544278E+02  0.10136136578E+03  0.91563254722E+02 0.  0.
        -11    1    3    3    0    0 -0.40064184424E+02  0.14493191414E+02 -0.40287897541E+02  0.58637071545E+02  0.51100000000E-03 0. -1.
         11    1    3    3    0    0  0.40064184424E+02 -0.14493191414E+02 -0.31896467372E+01  0.42724294230E+02  0.51100000000E-03 0.  1.
<mgrwt>
<rscale>  0 0.91563255E+02</rscale>
<asrwt>0</asrwt>
<pdfrwt beam="2">  1        1 0.11141455E-01 0.91563255E+02</pdfrwt>
<pdfrwt beam="1">  1       -1 0.44526017E-02 0.91563255E+02</pdfrwt>
<totfact> 0.98036968E+04</totfact>
</mgrwt>
</event>
<event>
 5   1  0.1357339E+00  0.9277797E+02  0.7818608E-02  0.1296261E+00
          1   -1    0    0  501    0  0.00000000000E+00  0.00000000000E+00  0.19644443588E+02  0.19644444143E+02  0.46700000000E-02 0. -1.
         -1   -1    0    0    0  501 -0.00000000000E+00 -0.00000000000E+00 -0.10954436317E+03  0.10954436327E+03  0.46700000000E-02 0.  1.
         23    2    1    2    0    0  0.00000000000E+00  0.00000000000E+00 -0.89899919586E+02  0.12918880742E+03  0.92777973788E+02 0.  0.
        -11    1    3    3    0    0  0.43243591679E+02  0.13158943045E+02 -0.30427547408E+02  0.54488545997E+02  0.51100000000E-03 0. -1.
         11    1    3    3    0    0 -0.43243591679E+02 -0.13158943045E+02 -0.59472372178E+02  0.74700261419E+02  0.51100000000E-03 0.  1.
<mgrwt>
<rscale>  0 0.92777974E+02</rscale>
<asrwt>0</asrwt>
<pdfrwt beam="1">  1        1 0.30222222E-02 0.92777974E+02</pdfrwt>
<pdfrwt beam="2">  1       -1 0.16852979E-01 0.92777974E+02</pdfrwt>
<totfact> 0.76454566E+04</totfact>
</mgrwt>
</event>
<event>
 5   1  0.1357339E+00  0.9314063E+02  0.7818608E-02  0.1295420E+00
         -1   -1    0    0    0  501 -0.00000000000E+00  0.00000000000E+00  0.44804436919E+02  0.44804437163E+02  0.46700000000E-02 0.  1.
          1   -1    0    0  501    0  0.00000000000E+00 -0.00000000000E+00 -0.48405790762E+02  0.48405790987E+02  0.46700000000E-02 0. -1.
         23    2    1    2    0    0  0.00000000000E+00  0.00000000000E+00 -0.36013538424E+01  0.93210228150E+02  0.93140629600E+02 0.  0.
        -11    1    3    3    0    0  0.17305966817E+02  0.39109004218E+02 -0.20247668881E+02  0.47317848575E+02  0.51100000000E-03 0. -1.
         11    1    3    3    0    0 -0.17305966817E+02 -0.39109004218E+02  0.16646315039E+02  0.45892379575E+02  0.51100000000E-03 0.  1.
<mgrwt>
<rscale>  0 0.93140630E+02</rscale>
<asrwt>0</asrwt>
<pdfrwt beam="2">  1        1 0.74470448E-02 0.93140630E+02</pdfrwt>
<pdfrwt beam="1">  1       -1 0.68929903E-02 0.93140630E+02</pdfrwt>
<totfact> 0.87891793E+04</totfact>
</mgrwt>
</event>
<event>
 5   1  0.1357339E+00  0.9260183E+02  0.7818608E-02  0.1296671E+00
         -1   -1    0    0    0  501 -0.00000000000E+00  0.00000000000E+00  0.91970370264E+01  0.91970382121E+01  0.46700000000E-02 0.  1.
          1   -1    0    0  501    0  0.00000000000E+00 -0.00000000000E+00 -0.23309406397E+03  0.23309406401E+03  0.46700000000E-02 0. -1.
         23    2    1    2    0    0  0.00000000000E+00  0.00000000000E+00 -0.22389702694E+03  0.24229110223E+03  0.92601833378E+02 0.  0.
        -11    1    3    3    0    0 -0.36544799468E+02 -0.26488155100E+02 -0.84930220585E+02  0.96178412846E+02  0.51100000000E-03 0.  1.
         11    1    3    3    0    0  0.36544799468E+02  0.26488155100E+02 -0.13896680636E+03  0.14611268938E+03  0.51100000000E-03 0. -1.
<mgrwt>
<rscale>  0 0.92601833E+02</rscale>
<asrwt>0</asrwt>
<pdfrwt beam="2">  1        1 0.35860621E-01 0.92601833E+02</pdfrwt>
<pdfrwt beam="1">  1       -1 0.14149290E-02 0.92601833E+02</pdfrwt>
<totfact> 0.11702867E+05</totfact>
</mgrwt>
</event>
<event>
 5   1  0.1357339E+00  0.9072865E+02  0.7818608E-02  0.1301097E+00
          1   -1    0    0  501    0  0.00000000000E+00  0.00000000000E+00  0.27508883499E+02  0.27508883895E+02  0.46700000000E-02 0. -1.
         -1   -1    0    0    0  501 -0.00000000000E+00 -0.00000000000E+00 -0.74809352209E+02  0.74809352355E+02  0.46700000000E-02 0.  1.
         23    2    1    2    0    0  0.00000000000E+00  0.00000000000E+00 -0.47300468710E+02  0.10231823625E+03  0.90728645582E+02 0.  0.
        -11    1    3    3    0    0  0.24330955290E+02  0.35294040854E+02 -0.40387077775E+02  0.58896356055E+02  0.51100000000E-03 0.  1.
         11    1    3    3    0    0 -0.24330955290E+02 -0.35294040854E+02 -0.69133909355E+01  0.43421880195E+02  0.51100000000E-03 0. -1.
<mgrwt>
<rscale>  0 0.90728646E+02</rscale>
<asrwt>0</asrwt>
<pdfrwt beam="1">  1        1 0.42321360E-02 0.90728646E+02</pdfrwt>
<pdfrwt beam="2">  1       -1 0.11509131E-01 0.90728646E+02</pdfrwt>
<totfact> 0.86688886E+04</totfact>
</mgrwt>
</event>
<event>
 5   1  0.1357339E+00  0.9048468E+02  0.7818608E-02  0.1301682E+00
         -1   -1    0    0    0  501 -0.00000000000E+00  0.00000000000E+00  0.13864164522E+03  0.13864164530E+03  0.46700000000E-02 0.  1.
          1   -1    0    0  501    0  0.00000000000E+00 -0.00000000000E+00 -0.14763741040E+02  0.14763741779E+02  0.46700000000E-02 0. -1.
         23    2    1    2    0    0  0.00000000000E+00  0.00000000000E+00  0.12387790418E+03  0.15340538708E+03  0.90484681802E+02 0.  0.
        -11    1    3    3    0    0  0.15289497366E+02 -0.34308203644E+02  0.10469626848E+03  0.11123007777E+03  0.51100000000E-03 0.  1.
         11    1    3    3    0    0 -0.15289497366E+02  0.34308203644E+02  0.19181635703E+02  0.42175309311E+02  0.51100000000E-03 0. -1.
<mgrwt>
<rscale>  0 0.90484682E+02</rscale>
<asrwt>0</asrwt>
<pdfrwt beam="2">  1        1 0.22713449E-02 0.90484682E+02</pdfrwt>
<pdfrwt beam="1">  1       -1 0.21329484E-01 0.90484682E+02</pdfrwt>
<totfact> 0.77663790E+04</totfact>
</mgrwt>
</event>
<event>
 5   1  0.1357339E+00  0.9125483E+02  0.7818608E-02  0.1299841E+00
          1   -1    0    0  501    0  0.00000000000E+00  0.00000000000E+00  0.21516235716E+03  0.21516235721E+03  0.46700000000E-02 0. -1.
         -1   -1    0    0    0  501 -0.00000000000E+00 -0.00000000000E+00 -0.96757674533E+01  0.96757685802E+01  0.46700000000E-02 0.  1.
         23    2    1    2    0    0  0.00000000000E+00  0.00000000000E+00  0.20548658971E+03  0.22483812579E+03  0.91254831433E+02 0.  0.
        -11    1    3    3    0    0  0.22803643199E+02  0.26122488885E+02  0.29675714386E+02  0.45640317629E+02  0.51100000000E-03 0.  1.
         11    1    3    3    0    0 -0.22803643199E+02 -0.26122488885E+02  0.17581087532E+03  0.17919780816E+03  0.51100000000E-03 0. -1.
<mgrwt>
<rscale>  0 0.91254831E+02</rscale>
<asrwt>0</asrwt>
<pdfrwt beam="1">  1        1 0.33101899E-01 0.91254831E+02</pdfrwt>
<pdfrwt beam="2">  1       -1 0.14885798E-02 0.91254831E+02</pdfrwt>
<totfact> 0.11982622E+05</totfact>
</mgrwt>
</event>
<event>
 5   1  0.1357339E+00  0.1004699E+03  0.7818608E-02  0.1279311E+00
          1   -1    0    0  501    0  0.00000000000E+00  0.00000000000E+00  0.21337197190E+03  0.21337197195E+03  0.46700000000E-02 0. -1.
         -1   -1    0    0    0  501 -0.00000000000E+00 -0.00000000000E+00 -0.11826994219E+02  0.11826995141E+02  0.46700000000E-02 0.  1.
         23    2    1    2    0    0  0.00000000000E+00  0.00000000000E+00  0.20154497768E+03  0.22519896709E+03  0.10046987982E+03 0.  0.
        -11    1    3    3    0    0 -0.39029849099E+02 -0.28776360519E+02  0.13018098734E+03  0.13891903221E+03  0.51100000000E-03 0. -1.
         11    1    3    3    0    0  0.39029849099E+02  0.28776360519E+02  0.71363990343E+02  0.86279934882E+02  0.51100000000E-03 0.  1.
<mgrwt>
<rscale>  0 0.10046988E+03</rscale>
<asrwt>0</asrwt>
<pdfrwt beam="1">  1        1 0.32826454E-01 0.10046988E+03</pdfrwt>
<pdfrwt beam="2">  1       -1 0.18195378E-02 0.10046988E+03</pdfrwt>
<totfact> 0.92313707E+04</totfact>
</mgrwt>
</event>
<event>
 5   1  0.1357339E+00  0.8455848E+02  0.7818608E-02  0.1316591E+00
         -1   -1    0    0    0  501 -0.00000000000E+00  0.00000000000E+00  0.20331267090E+03  0.20331267096E+03  0.46700000000E-02 0.  1.
          1   -1    0    0  501    0  0.00000000000E+00 -0.00000000000E+00 -0.87920437925E+01  0.87920450328E+01  0.46700000000E-02 0. -1.
         23    2    1    2    0    0  0.00000000000E+00  0.00000000000E+00  0.19452062711E+03  0.21210471599E+03  0.84558477834E+02 0.  0.
        -11    1    3    3    0    0 -0.36382647666E+02 -0.22486824793E+00  0.15128001570E+03  0.15559367201E+03  0.51100000000E-03 0.  1.
         11    1    3    3    0    0  0.36382647666E+02  0.22486824793E+00  0.43240611408E+02  0.56511043984E+02  0.51100000000E-03 0. -1.
<mgrwt>
<rscale>  0 0.84558478E+02</rscale>
<asrwt>0</asrwt>
<pdfrwt beam="2">  1        1 0.13526222E-02 0.84558478E+02</pdfrwt>
<pdfrwt beam="1">  1       -1 0.31278873E-01 0.84558478E+02</pdfrwt>
<totfact> 0.84042286E+04</totfact>
</mgrwt>
</event>
<event>
 5   1  0.1357339E+00  0.8427008E+02  0.7818608E-02  0.1317352E+00
          1   -1    0    0  501    0  0.00000000000E+00  0.00000000000E+00  0.31143832911E+02  0.31143833261E+02  0.46700000000E-02 0. -1.
         -1   -1    0    0    0  501 -0.00000000000E+00 -0.00000000000E+00 -0.57005236078E+02  0.57005236269E+02  0.46700000000E-02 0.  1.
         23    2    1    2    0    0  0.00000000000E+00  0.00000000000E+00 -0.25861403167E+02  0.88149069530E+02  0.84270079419E+02 0.  0.
        -11    1    3    3    0    0  0.38198936281E+02  0.15688134054E+02 -0.21687750187E+02  0.46643700449E+02  0.51100000000E-03 0.  1.
         11    1    3    3    0    0 -0.38198936281E+02 -0.15688134054E+02 -0.41736529800E+01  0.41505369081E+02  0.51100000000E-03 0. -1.
<mgrwt>
<rscale>  0 0.84270079E+02</rscale>
<asrwt>0</asrwt>
<pdfrwt beam="1">  1        1 0.47913590E-02 0.84270079E+02</pdfrwt>
<pdfrwt beam="2">  1       -1 0.87700363E-02 0.84270079E+02</pdfrwt>
<totfact> 0.10908173E+05</totfact>
</mgrwt>
</event>
<event>
 5   1  0.1357339E+00  0.9120655E+02  0.7818608E-02  0.1299956E+00
         -1   -1    0    0    0  501 -0.00000000000E+00  0.00000000000E+00  0.29029851574E+03  0.29029851577E+03  0.46700000000E-02 0.  1.
          1   -1    0    0  501    0  0.00000000000E+00 -0.00000000000E+00 -0.71638610653E+01  0.71638625874E+01  0.46700000000E-02 0. -1.
         23    2    1    2    0    0  0.00000000000E+00  0.00000000000E+00  0.28313465467E+03  0.29746237836E+03  0.91206545076E+02 0.  0.
        -11    1    3    3    0    0  0.15085037045E+02  0.42255710473E+02  0.11496028708E+03  0.12340571711E+03  0.51100000000E-03 0. -1.
         11    1    3    3    0    0 -0.15085037045E+02 -0.42255710473E+02  0.16817436759E+03  0.17405666125E+03  0.51100000000E-03 0.  1.
<mgrwt>
<rscale>  0 0.91206545E+02</rscale>
<asrwt>0</asrwt>
<pdfrwt beam="2">  1        1 0.11021326E-02 0.91206545E+02</pdfrwt>
<pdfrwt beam="1">  1       -1 0.44661311E-01 0.91206545E+02</pdfrwt>
<totfact> 0.61312674E+04</totfact>
</mgrwt>
</event>
<event>
 5   1  0.1357339E+00  0.9076028E+02  0.7818608E-02  0.1301021E+00
          1   -1    0    0  501    0  0.00000000000E+00  0.00000000000E+00  0.19085882959E+03  0.19085882964E+03  0.46700000000E-02 0. -1.
         -1   -1    0    0    0  501 -0.00000000000E+00 -0.00000000000E+00 -0.10789948968E+02  0.10789949978E+02  0.46700000000E-02 0.  1.
         23    2    1    2    0    0  0.00000000000E+00  0.00000000000E+00  0.18006888062E+03  0.20164877962E+03  0.90760280717E+02 0.  0.
        -11    1    3    3    0    0  0.13073808624E+01 -0.44041840870E+02  0.11416541049E+03  0.12237292978E+03  0.51100000000E-03 0. -1.
         11    1    3    3    0    0 -0.13073808624E+01  0.44041840870E+02  0.65903470131E+02  0.79275849838E+02  0.51100000000E-03 0.  1.
<mgrwt>
<rscale>  0 0.90760281E+02</rscale>
<asrwt>0</asrwt>
<pdfrwt beam="1">  1        1 0.29362893E-01 0.90760281E+02</pdfrwt>
<pdfrwt beam="2">  1       -1 0.16599925E-02 0.90760281E+02</pdfrwt>
<totfact> 0.11878969E+05</totfact>
</mgrwt>
</event>
<event>
 5   1  0.1357339E+00  0.9033214E+02  0.7818608E-02  0.1302049E+00
          1   -1    0    0  501    0  0.00000000000E+00  0.00000000000E+00  0.11391974674E+03  0.11391974684E+03  0.46700000000E-02 0. -1.
         -1   -1    0    0    0  501 -0.00000000000E+00 -0.00000000000E+00 -0.17907112142E+02  0.17907112751E+02  0.46700000000E-02 0.  1.
         23    2    1    2    0    0  0.00000000000E+00  0.00000000000E+00  0.96012634603E+02  0.13182685959E+03  0.90332136619E+02 0.  0.
        -11    1    3    3    0    0  0.25957936547E+01 -0.44860238802E+02  0.41351495179E+02  0.61066564697E+02  0.51100000000E-03 0. -1.
         11    1    3    3    0    0 -0.25957936547E+01  0.44860238802E+02  0.54661139425E+02  0.70760294894E+02  0.51100000000E-03 0.  1.
<mgrwt>
<rscale>  0 0.90332137E+02</rscale>
<asrwt>0</asrwt>
<pdfrwt beam="1">  1        1 0.17526115E-01 0.90332137E+02</pdfrwt>
<pdfrwt beam="2">  1       -1 0.27549403E-02 0.90332137E+02</pdfrwt>
<totfact> 0.10950624E+05</totfact>
</mgrwt>
</event>
<event>
 5   1  0.1357339E+00  0.8999605E+02  0.7818608E-02  0.1302861E+00
         -1   -1    0    0    0  501 -0.00000000000E+00  0.00000000000E+00  0.77916985652E+02  0.77916985792E+02  0.46700000000E-02 0.  1.
          1   -1    0    0  501    0  0.00000000000E+00 -0.00000000000E+00 -0.25986914820E+02  0.25986915240E+02  0.46700000000E-02 0. -1.
         23    2    1    2    0    0  0.00000000000E+00  0.00000000000E+00  0.51930070831E+02  0.10390390103E+03  0.89996046541E+02 0.  0.
        -11    1    3    3    0    0  0.14000592935E+02 -0.25200996109E+02 -0.13924483640E+02  0.32015590770E+02  0.51100000000E-03 0. -1.
         11    1    3    3    0    0 -0.14000592935E+02  0.25200996109E+02  0.65854554472E+02  0.71888310262E+02  0.51100000000E-03 0.  1.
<mgrwt>
<rscale>  0 0.89996047E+02</rscale>
<asrwt>0</asrwt>
<pdfrwt beam="2">  1        1 0.39979869E-02 0.89996047E+02</pdfrwt>
<pdfrwt beam="1">  1       -1 0.11987229E-01 0.89996047E+02</pdfrwt>
<totfact> 0.87907218E+04</totfact>
</mgrwt>
</event>
<event>
 5   1  0.1357339E+00  0.9264228E+02  0.7818608E-02  0.1296576E+00
          1   -1    0    0  501    0  0.00000000000E+00  0.00000000000E+00  0.65048235428E+02  0.65048235596E+02  0.46700000000E-02 0. -1.
         -1   -1    0    0    0  501 -0.00000000000E+00 -0.00000000000E+00 -0.32985493027E+02  0.32985493357E+02  0.46700000000E-02 0.  1.
         23    2    1    2    0    0  0.00000000000E+00  0.00000000000E+00  0.32062742401E+02  0.98033728953E+02  0.92642282799E+02 0.  0.
        -11    1    3    3    0    0  0.25190244453E+01  0.11688583183E+02 -0.31324302564E+02  0.33528799447E+02  0.51100000000E-03 0.  1.
         11    1    3    3    0    0 -0.25190244453E+01 -0.11688583183E+02  0.63387044965E+02  0.64504929506E+02  0.51100000000E-03 0. -1.
<mgrwt>
<rscale>  0 0.92642283E+02</rscale>
<asrwt>0</asrwt>
<pdfrwt beam="1">  1        1 0.10007421E-01 0.92642283E+02</pdfrwt>
<pdfrwt beam="2">  1       -1 0.50746914E-02 0.92642283E+02</pdfrwt>
<totfact> 0.93345001E+04</totfact>
</mgrwt>
</event>
<event>
 5   1  0.1357339E+00  0.9213616E+02  0.7818608E-02  0.1297760E+00
         -1   -1    0    0    0  501 -0.00000000000E+00  0.00000000000E+00  0.59307835548E+02  0.59307835732E+02  0.46700000000E-02 0.  1.
          1   -1    0    0  501    0  0.00000000000E+00 -0.00000000000E+00 -0.35783940015E+02  0.35783940320E+02  0.46700000000E-02 0. -1.
         23    2    1    2    0    0  0.00000000000E+00  0.00000000000E+00  0.23523895533E+02  0.95091776052E+02  0.92136161259E+02 0.  0.
        -11    1    3    3    0    0 -0.13534031342E+02  0.90639604792E+01 -0.32712656529E+02  0.36543717399E+02  0.51100000000E-03 0. -1.
         11    1    3    3    0    0  0.13534031342E+02 -0.90639604792E+01  0.56236552061E+02  0.58548058652E+02  0.51100000000E-03 0.  1.
<mgrwt>
<rscale>  0 0.92136161E+02</rscale>
<asrwt>0</asrwt>
<pdfrwt beam="2">  1        1 0.55052216E-02 0.92136161E+02</pdfrwt>
<pdfrwt beam="1">  1       -1 0.91242824E-02 0.92136161E+02</pdfrwt>
<totfact> 0.86512754E+04</totfact>
</mgrwt>
</event>
<event>
 5   1  0.1357339E+00  0.8611952E+02  0.7818608E-02  0.1312531E+00
          1   -1    0    0  501    0  0.00000000000E+00  0.00000000000E+00  0.11044743998E+02  0.11044744985E+02  0.46700000000E-02 0. -1.
         -1   -1    0    0    0  501 -0.00000000000E+00 -0.00000000000E+00 -0.16787557652E+03  0.16787557658E+03  0.46700000000E-02 0.  1.
         23    2    1    2    0    0  0.00000000000E+00  0.00000000000E+00 -0.15683083252E+03  0.17892032157E+03  0.86119518350E+02 0.  0.
        -11    1    3    3    0    0  0.12684968847E+02  0.27728145106E+02 -0.14158156233E+03  0.14482781935E+03  0.51100000000E-03 0.  1.
         11    1    3    3    0    0 -0.12684968847E+02 -0.27728145106E+02 -0.15249270186E+02  0.34092502213E+02  0.51100000000E-03 0. -1.
<mgrwt>
<rscale>  0 0.86119518E+02</rscale>
<asrwt>0</asrwt>
<pdfrwt beam="1">  1        1 0.16991916E-02 0.86119518E+02</pdfrwt>
<pdfrwt beam="2">  1       -1 0.25827010E-01 0.86119518E+02</pdfrwt>
<totfact> 0.84378273E+04</totfact>
</mgrwt>
</event>
<event>
 5   1  0.1357339E+00  0.9206752E+02  0.7818608E-02  0.1297921E+00
          1   -1    0    0  501    0  0.00000000000E+00  0.00000000000E+00  0.47371797153E+02  0.47371797383E+02  0.46700000000E-02 0. -1.
         -1   -1    0    0    0  501 -0.00000000000E+00 -0.00000000000E+00 -0.44733512759E+02  0.44733513003E+02  0.46700000000E-02 0.  1.
         23    2    1    2    0    0  0.00000000000E+00  0.00000000000E+00  0.26382843933E+01  0.92105310386E+02  0.92067516838E+02 0.  0.
        -11    1    3    3    0    0 -0.13770087762E+02  0.24163936056E+02  0.38016563730E+02  0.47103824057E+02  0.51100000000E-03 0. -1.
         11    1    3    3    0    0  0.13770087762E+02 -0.24163936056E+02 -0.35378279337E+02  0.45001486329E+02  0.51100000000E-03 0.  1.
<mgrwt>
<rscale>  0 0.92067517E+02</rscale>
<asrwt>0</asrwt>
<pdfrwt beam="1">  1        1 0.72879688E-02 0.92067517E+02</pdfrwt>
<pdfrwt beam="2">  1       -1 0.68820789E-02 0.92067517E+02</pdfrwt>
<totfact> 0.90503410E+04</totfact>
</mgrwt>
</event>
<event>
 5   1  0.1357339E+00  0.9065971E+02  0.7818608E-02  0.1301262E+00
          1   -1    0    0  501    0  0.00000000000E+00  0.00000000000E+00  0.35382967404E+03  0.35382967407E+03  0.46700000000E-02 0. -1.
         -1   -1    0    0    0  501 -0.00000000000E+00 -0.00000000000E+00 -0.58073004943E+01  0.58073023720E+01  0.46700000000E-02 0.  1.
         23    2    1    2    0    0  0.00000000000E+00  0.00000000000E+00  0.34802237355E+03  0.35963697645E+03  0.90659706246E+02 0.  0.
        -11    1    3    3    0    0 -0.43953300882E+02 -0.10940627351E+02  0.18111357822E+03  0.18669150543E+03  0.51100000000E-03 0.  1.
         11    1    3    3    0    0  0.43953300882E+02  0.10940627351E+02  0.16690879533E+03  0.17294547101E+03  0.51100000000E-03 0. -1.
<mgrwt>
<rscale>  0 0.90659706E+02</rscale>
<asrwt>0</asrwt>
<pdfrwt beam="1">  1        1 0.54435336E-01 0.90659706E+02</pdfrwt>
<pdfrwt beam="2">  1       -1 0.89343097E-03 0.90659706E+02</pdfrwt>
<totfact> 0.13409980E+05</totfact>
</mgrwt>
</event>
<event>
 5   1  0.1357339E+00  0.9166755E+02  0.7818608E-02  0.1298863E+00
         -1   -1    0    0    0  501 -0.00000000000E+00  0.00000000000E+00  0.17295420056E+03  0.17295420062E+03  0.46700000000E-02 0.  1.
          1   -1    0    0  501    0  0.00000000000E+00 -0.00000000000E+00 -0.12146190309E+02  0.12146191207E+02  0.46700000000E-02 0. -1.
         23    2    1    2    0    0  0.00000000000E+00  0.00000000000E+00  0.16080801025E+03  0.18510039183E+03  0.91667545480E+02 0.  0.
        -11    1    3    3    0    0  0.18932732350E+02 -0.35265596640E+02  0.12549380958E+03  0.13172246165E+03  0.51100000000E-03 0.  1.
         11    1    3    3    0    0 -0.18932732350E+02  0.35265596640E+02  0.35314200670E+02  0.53377930176E+02  0.51100000000E-03 0. -1.
<mgrwt>
<rscale>  0 0.91667545E+02</rscale>
<asrwt>0</asrwt>
<pdfrwt beam="2">  1        1 0.18686447E-02 0.91667545E+02</pdfrwt>
<pdfrwt beam="1">  1       -1 0.26608340E-01 0.91667545E+02</pdfrwt>
<totfact> 0.71217004E+04</totfact>
</mgrwt>
</event>
<event>
 5   1  0.1357339E+00  0.9027469E+02  0.7818608E-02  0.1302188E+00
         -1   -1    0    0    0  501 -0.00000000000E+00  0.00000000000E+00  0.65381861166E+02  0.65381861333E+02  0.46700000000E-02 0.  1.
          1   -1    0    0  501    0  0.00000000000E+00 -0.00000000000E+00 -0.31161237016E+02  0.31161237366E+02  0.46700000000E-02 0. -1.
         23    2    1    2    0    0  0.00000000000E+00  0.00000000000E+00  0.34220624150E+02  0.96543098699E+02  0.90274685206E+02 0.  0.
        -11    1    3    3    0    0 -0.67596136436E+01  0.21881518310E+02  0.58706968380E+02  0.63015881782E+02  0.51100000000E-03 0.  1.
         11    1    3    3    0    0  0.67596136436E+01 -0.21881518310E+02 -0.24486344230E+02  0.33527216916E+02  0.51100000000E-03 0. -1.
<mgrwt>
<rscale>  0 0.90274685E+02</rscale>
<asrwt>0</asrwt>
<pdfrwt beam="2">  1        1 0.47940366E-02 0.90274685E+02</pdfrwt>
<pdfrwt beam="1">  1       -1 0.10058748E-01 0.90274685E+02</pdfrwt>
<totfact> 0.89730036E+04</totfact>
</mgrwt>
</event>
<event>
 5   1  0.1357339E+00  0.9103646E+02  0.7818608E-02  0.1300361E+00
          1   -1    0    0  501    0  0.00000000000E+00  0.00000000000E+00  0.15957467094E+03  0.15957467101E+03  0.46700000000E-02 0. -1.
         -1   -1    0    0    0  501 -0.00000000000E+00 -0.00000000000E+00 -0.12983947280E+02  0.12983948120E+02  0.46700000000E-02 0.  1.
         23    2    1    2    0    0  0.00000000000E+00  0.00000000000E+00  0.14659072366E+03  0.17255861913E+03  0.91036458478E+02 0.  0.
        -11    1    3    3    0    0  0.16405048254E+02 -0.36251965307E+02  0.11519290151E+03  0.12187179804E+03  0.51100000000E-03 0. -1.
         11    1    3    3    0    0 -0.16405048254E+02  0.36251965307E+02  0.31397822148E+02  0.50686821095E+02  0.51100000000E-03 0.  1.
<mgrwt>
<rscale>  0 0.91036458E+02</rscale>
<asrwt>0</asrwt>
<pdfrwt beam="1">  1        1 0.24549950E-01 0.91036458E+02</pdfrwt>
<pdfrwt beam="2">  1       -1 0.19975304E-02 0.91036458E+02</pdfrwt>
<totfact> 0.11389606E+05</totfact>
</mgrwt>
</event>
<event>
 5   1  0.1357339E+00  0.9176022E+02  0.7818608E-02  0.1298644E+00
         -1   -1    0    0    0  501 -0.00000000000E+00  0.00000000000E+00  0.28411571011E+02  0.28411571395E+02  0.46700000000E-02 0.  1.
          1   -1    0    0  501    0  0.00000000000E+00 -0.00000000000E+00 -0.74088981713E+02  0.74088981860E+02  0.46700000000E-02 0. -1.
         23    2    1    2    0    0  0.00000000000E+00  0.00000000000E+00 -0.45677410702E+02  0.10250055326E+03  0.91760217792E+02 0.  0.
        -11    1    3    3    0    0  0.13213052297E+02  0.18543519126E+02  0.21654833583E+02  0.31422582172E+02  0.51100000000E-03 0.  1.
         11    1    3    3    0    0 -0.13213052297E+02 -0.18543519126E+02 -0.67332244285E+02  0.71077971083E+02  0.51100000000E-03 0. -1.
<mgrwt>
<rscale>  0 0.91760218E+02</rscale>
<asrwt>0</asrwt>
<pdfrwt beam="2">  1        1 0.11398305E-01 0.91760218E+02</pdfrwt>
<pdfrwt beam="1">  1       -1 0.43710110E-02 0.91760218E+02</pdfrwt>
<totfact> 0.97804793E+04</totfact>
</mgrwt>
</event>
<event>
 5   1  0.1357339E+00  0.1008024E+03  0.7818608E-02  0.1278618E+00
         -1   -1    0    0    0  501 -0.00000000000E+00  0.00000000000E+00  0.29134928855E+03  0.29134928859E+03  0.46700000000E-02 0.  1.
          1   -1    0    0  501    0  0.00000000000E+00 -0.00000000000E+00 -0.87190280725E+01  0.87190293231E+01  0.46700000000E-02 0. -1.
         23    2    1    2    0    0  0.00000000000E+00  0.00000000000E+00  0.28263026048E+03  0.30006831792E+03  0.10080243686E+03 0.  0.
        -11    1    3    3    0    0  0.31699678178E+02 -0.35243926429E+02  0.90336342799E+02  0.10201793361E+03  0.51100000000E-03 0.  1.
         11    1    3    3    0    0 -0.31699678178E+02  0.35243926429E+02  0.19229391768E+03  0.19805038431E+03  0.51100000000E-03 0. -1.
<mgrwt>
<rscale>  0 0.10080244E+03</rscale>
<asrwt>0</asrwt>
<pdfrwt beam="2">  1        1 0.13413889E-02 0.10080244E+03</pdfrwt>
<pdfrwt beam="1">  1       -1 0.44822973E-01 0.10080244E+03</pdfrwt>
<totfact> 0.47090419E+04</totfact>
</mgrwt>
</event>
<event>
 5   1  0.1357339E+00  0.9106151E+02  0.7818608E-02  0.1300301E+00
         -1   -1    0    0    0  501 -0.00000000000E+00  0.00000000000E+00  0.43200890600E+02  0.43200890852E+02  0.46700000000E-02 0.  1.
          1   -1    0    0  501    0  0.00000000000E+00 -0.00000000000E+00 -0.47986272205E+02  0.47986272432E+02  0.46700000000E-02 0. -1.
         23    2    1    2    0    0  0.00000000000E+00  0.00000000000E+00 -0.47853816051E+01  0.91187163284E+02  0.91061511467E+02 0.  0.
        -11    1    3    3    0    0  0.22647030815E+02 -0.27728752290E+02  0.25775788317E+02  0.44115337151E+02  0.51100000000E-03 0.  1.
         11    1    3    3    0    0 -0.22647030815E+02  0.27728752290E+02 -0.30561169922E+02  0.47071826134E+02  0.51100000000E-03 0. -1.
<mgrwt>
<rscale>  0 0.91061511E+02</rscale>
<asrwt>0</asrwt>
<pdfrwt beam="2">  1        1 0.73825035E-02 0.91061511E+02</pdfrwt>
<pdfrwt beam="1">  1       -1 0.66462909E-02 0.91061511E+02</pdfrwt>
<totfact> 0.93518324E+04</totfact>
</mgrwt>
</event>
<event>
 5   1  0.1357339E+00  0.9115988E+02  0.7818608E-02  0.1300067E+00
         -1   -1    0    0    0  501 -0.00000000000E+00  0.00000000000E+00  0.29025313838E+02  0.29025314213E+02  0.46700000000E-02 0.  1.
          1   -1    0    0  501    0  0.00000000000E+00 -0.00000000000E+00 -0.71576524060E+02  0.71576524212E+02  0.46700000000E-02 0. -1.
         23    2    1    2    0    0  0.00000000000E+00  0.00000000000E+00 -0.42551210222E+02  0.10060183843E+03  0.91159883738E+02 0.  0.
        -11    1    3    3    0    0 -0.67556959334E+01  0.35694626713E+02 -0.51654728779E+02  0.63150271648E+02  0.51100000000E-03 0.  1.
         11    1    3    3    0    0  0.67556959334E+01 -0.35694626713E+02  0.91035185569E+01  0.37451566777E+02  0.51100000000E-03 0. -1.
<mgrwt>
<rscale>  0 0.91159884E+02</rscale>
<asrwt>0</asrwt>
<pdfrwt beam="2">  1        1 0.11011773E-01 0.91159884E+02</pdfrwt>
<pdfrwt beam="1">  1       -1 0.44654330E-02 0.91159884E+02</pdfrwt>
<totfact> 0.99058132E+04</totfact>
</mgrwt>
</event>
<event>
 5   1  0.1357339E+00  0.9253086E+02  0.7818608E-02  0.1296836E+00
          1   -1    0    0  501    0  0.00000000000E+00  0.00000000000E+00  0.11275662087E+02  0.11275663054E+02  0.46700000000E-02 0. -1.
         -1   -1    0    0    0  501 -0.00000000000E+00 -0.00000000000E+00 -0.18983276699E+03  0.18983276705E+03  0.46700000000E-02 0.  1.
         23    2    1    2    0    0  0.00000000000E+00  0.00000000000E+00 -0.17855710491E+03  0.20110843010E+03  0.92530864831E+02 0.  0.
        -11    1    3    3    0    0  0.17528779993E+02  0.36403381410E+02 -0.13826620111E+03  0.14404862608E+03  0.51100000000E-03 0.  1.
         11    1    3    3    0    0 -0.17528779993E+02 -0.36403381410E+02 -0.40290903795E+02  0.57059804022E+02  0.51100000000E-03 0. -1.
<mgrwt>
<rscale>  0 0.92530865E+02</rscale>
<asrwt>0</asrwt>
<pdfrwt beam="1">  1        1 0.17347175E-02 0.92530865E+02</pdfrwt>
<pdfrwt beam="2">  1       -1 0.29205039E-01 0.92530865E+02</pdfrwt>
<totfact> 0.67792838E+04</totfact>
</mgrwt>
</event>
<event>
 5   1  0.1357339E+00  0.9138373E+02  0.7818608E-02  0.1299535E+00
         -1   -1    0    0    0  501 -0.00000000000E+00  0.00000000000E+00  0.45280807892E+02  0.45280808133E+02  0.46700000000E-02 0.  1.
          1   -1    0    0  501    0  0.00000000000E+00 -0.00000000000E+00 -0.46106650123E+02  0.46106650359E+02  0.46700000000E-02 0. -1.
         23    2    1    2    0    0  0.00000000000E+00  0.00000000000E+00 -0.82584223068E+00  0.91387458492E+02  0.91383726966E+02 0.  0.
        -11    1    3    3    0    0  0.44647154059E+02  0.96878304811E+01  0.31096153612E+00  0.45687187726E+02  0.51100000000E-03 0. -1.
         11    1    3    3    0    0 -0.44647154059E+02 -0.96878304811E+01 -0.11368037668E+01  0.45700270766E+02  0.51100000000E-03 0.  1.
<mgrwt>
<rscale>  0 0.91383727E+02</rscale>
<asrwt>0</asrwt>
<pdfrwt beam="2">  1        1 0.70933308E-02 0.91383727E+02</pdfrwt>
<pdfrwt beam="1">  1       -1 0.69662782E-02 0.91383727E+02</pdfrwt>
<totfact> 0.92041724E+04</totfact>
</mgrwt>
</event>
<event>
 5   1  0.1357339E+00  0.9083483E+02  0.7818608E-02  0.1300843E+00
         -1   -1    0    0    0  501 -0.00000000000E+00  0.00000000000E+00  0.12880902628E+03  0.12880902636E+03  0.46700000000E-02 0.  1.
          1   -1    0    0  501    0  0.00000000000E+00 -0.00000000000E+00 -0.16013951446E+02  0.16013952127E+02  0.46700000000E-02 0. -1.
         23    2    1    2    0    0  0.00000000000E+00  0.00000000000E+00  0.11279507483E+03  0.14482297849E+03  0.90834829180E+02 0.  0.
        -11    1    3    3    0    0 -0.56194446896E+01 -0.31937068319E+02  0.56983706051E+01  0.32924548885E+02  0.51100000000E-03 0. -1.
         11    1    3    3    0    0  0.56194446896E+01  0.31937068319E+02  0.10709670423E+03  0.11189842961E+03  0.51100000000E-03 0.  1.
<mgrwt>
<rscale>  0 0.90834829E+02</rscale>
<asrwt>0</asrwt>
<pdfrwt beam="2">  1        1 0.24636849E-02 0.90834829E+02</pdfrwt>
<pdfrwt beam="1">  1       -1 0.19816773E-01 0.90834829E+02</pdfrwt>
<totfact> 0.78133229E+04</totfact>
</mgrwt>
</event>
<event>
 5   1  0.1357339E+00  0.9160689E+02  0.7818608E-02  0.1299006E+00
         -1   -1    0    0    0  501 -0.00000000000E+00  0.00000000000E+00  0.43312784905E+02  0.43312785156E+02  0.46700000000E-02 0.  1.
          1   -1    0    0  501    0  0.00000000000E+00 -0.00000000000E+00 -0.48437330551E+02  0.48437330777E+02  0.46700000000E-02 0. -1.
         23    2    1    2    0    0  0.00000000000E+00  0.00000000000E+00 -0.51245456467E+01  0.91750115933E+02  0.91606892785E+02 0.  0.
        -11    1    3    3    0    0  0.41417355508E+01  0.40445973293E+02 -0.23688495841E+02  0.47055026984E+02  0.51100000000E-03 0. -1.
         11    1    3    3    0    0 -0.41417355508E+01 -0.40445973293E+02  0.18563950195E+02  0.44695088949E+02  0.51100000000E-03 0.  1.
<mgrwt>
<rscale>  0 0.91606893E+02</rscale>
<asrwt>0</asrwt>
<pdfrwt beam="2">  1        1 0.74518970E-02 0.91606893E+02</pdfrwt>
<pdfrwt beam="1">  1       -1 0.66635054E-02 0.91606893E+02</pdfrwt>
<totfact> 0.92095327E+04</totfact>
</mgrwt>
</event>
<event>
 5   1  0.1357339E+00  0.8886157E+02  0.7818608E-02  0.1305632E+00
         -1   -1    0    0    0  501 -0.00000000000E+00  0.00000000000E+00  0.25996156667E+02  0.25996157087E+02  0.46700000000E-02 0.  1.
          1   -1    0    0  501    0  0.00000000000E+00 -0.00000000000E+00 -0.75937934282E+02  0.75937934425E+02  0.46700000000E-02 0. -1.
         23    2    1    2    0    0  0.00000000000E+00  0.00000000000E+00 -0.49941777614E+02  0.10193409151E+03  0.88861565714E+02 0.  0.
        -11    1    3    3    0    0 -0.75570442189E+00 -0.38675067535E+02 -0.50044191120E+02  0.63251505936E+02  0.51100000000E-03 0. -1.
         11    1    3    3    0    0  0.75570442189E+00  0.38675067535E+02  0.10241350603E+00  0.38682585576E+02  0.51100000000E-03 0.  1.
<mgrwt>
<rscale>  0 0.88861566E+02</rscale>
<asrwt>0</asrwt>
<pdfrwt beam="2">  1        1 0.11682759E-01 0.88861566E+02</pdfrwt>
<pdfrwt beam="1">  1       -1 0.39994088E-02 0.88861566E+02</pdfrwt>
<totfact> 0.10722589E+05</totfact>
</mgrwt>
</event>
<event>
 5   1  0.1357339E+00  0.9284597E+02  0.7818608E-02  0.1296103E+00
         -1   -1    0    0    0  501 -0.00000000000E+00  0.00000000000E+00  0.26788426772E+02  0.26788427179E+02  0.46700000000E-02 0.  1.
          1   -1    0    0  501    0  0.00000000000E+00 -0.00000000000E+00 -0.80448682159E+02  0.80448682295E+02  0.46700000000E-02 0. -1.
         23    2    1    2    0    0  0.00000000000E+00  0.00000000000E+00 -0.53660255388E+02  0.10723710947E+03  0.92845972664E+02 0.  0.
        -11    1    3    3    0    0  0.15836655935E+02  0.30513275613E+02 -0.62862318221E+02  0.71648661622E+02  0.51100000000E-03 0. -1.
         11    1    3    3    0    0 -0.15836655935E+02 -0.30513275613E+02  0.92020628332E+01  0.35588447852E+02  0.51100000000E-03 0.  1.
<mgrwt>
<rscale>  0 0.92845973E+02</rscale>
<asrwt>0</asrwt>
<pdfrwt beam="2">  1        1 0.12376720E-01 0.92845973E+02</pdfrwt>
<pdfrwt beam="1">  1       -1 0.41212965E-02 0.92845973E+02</pdfrwt>
<totfact> 0.95925792E+04</totfact>
</mgrwt>
</event>
<event>
 5   1  0.1357339E+00  0.9234918E+02  0.7818608E-02  0.1297261E+00
          1   -1    0    0  501    0  0.00000000000E+00  0.00000000000E+00  0.44616887047E+02  0.44616887291E+02  0.46700000000E-02 0. -1.
         -1   -1    0    0    0  501 -0.00000000000E+00 -0.00000000000E+00 -0.47786671598E+02  0.47786671826E+02  0.46700000000E-02 0.  1.
         23    2    1    2    0    0  0.00000000000E+00  0.00000000000E+00 -0.31697845507E+01  0.92403559117E+02  0.92349175435E+02 0.  0.
        -11    1    3    3    0    0 -0.38754751019E+02 -0.19349143397E+02 -0.17587198585E+02  0.46750717974E+02  0.51100000000E-03 0.  1.
         11    1    3    3    0    0  0.38754751019E+02  0.19349143397E+02  0.14417414034E+02  0.45652841143E+02  0.51100000000E-03 0. -1.
<mgrwt>
<rscale>  0 0.92349175E+02</rscale>
<asrwt>0</asrwt>
<pdfrwt beam="1">  1        1 0.68641365E-02 0.92349175E+02</pdfrwt>
<pdfrwt beam="2">  1       -1 0.73517957E-02 0.92349175E+02</pdfrwt>
<totfact> 0.88916555E+04</totfact>
</mgrwt>
</event>
<event>
 5   1  0.1357339E+00  0.9057733E+02  0.7818608E-02  0.1301460E+00
          1   -1    0    0  501    0  0.00000000000E+00  0.00000000000E+00  0.18512460505E+03  0.18512460511E+03  0.46700000000E-02 0. -1.
         -1   -1    0    0    0  501 -0.00000000000E+00 -0.00000000000E+00 -0.11079364830E+02  0.11079365814E+02  0.46700000000E-02 0.  1.
         23    2    1    2    0    0  0.00000000000E+00  0.00000000000E+00  0.17404524022E+03  0.19620397092E+03  0.90577329185E+02 0.  0.
        -11    1    3    3    0    0 -0.22688298038E+02  0.27749262911E+02  0.27059698253E+02  0.44911109202E+02  0.51100000000E-03 0.  1.
         11    1    3    3    0    0  0.22688298038E+02 -0.27749262911E+02  0.14698554197E+03  0.15129286172E+03  0.51100000000E-03 0. -1.
<mgrwt>
<rscale>  0 0.90577329E+02</rscale>
<asrwt>0</asrwt>
<pdfrwt beam="1">  1        1 0.28480708E-01 0.90577329E+02</pdfrwt>
<pdfrwt beam="2">  1       -1 0.17045178E-02 0.90577329E+02</pdfrwt>
<totfact> 0.11873575E+05</totfact>
</mgrwt>
</event>
<event>
 5   1  0.1357339E+00  0.9225177E+02  0.7818608E-02  0.1297489E+00
         -1   -1    0    0    0  501 -0.00000000000E+00  0.00000000000E+00  0.40679820570E+02  0.40679820838E+02  0.46700000000E-02 0.  1.
          1   -1    0    0  501    0  0.00000000000E+00 -0.00000000000E+00 -0.52301050623E+02  0.52301050831E+02  0.46700000000E-02 0. -1.
         23    2    1    2    0    0  0.00000000000E+00  0.00000000000E+00 -0.11621230053E+02  0.92980871670E+02  0.92251772387E+02 0.  0.
        -11    1    3    3    0    0  0.63676546992E+01 -0.16111277522E+02 -0.48897476924E+02  0.51875654594E+02  0.51100000000E-03 0. -1.
         11    1    3    3    0    0 -0.63676546992E+01  0.16111277522E+02  0.37276246871E+02  0.41105217075E+02  0.51100000000E-03 0.  1.
<mgrwt>
<rscale>  0 0.92251772E+02</rscale>
<asrwt>0</asrwt>
<pdfrwt beam="2">  1        1 0.80463156E-02 0.92251772E+02</pdfrwt>
<pdfrwt beam="1">  1       -1 0.62584339E-02 0.92251772E+02</pdfrwt>
<totfact> 0.91356978E+04</totfact>
</mgrwt>
</event>
<event>
 5   1  0.1357339E+00  0.9268676E+02  0.7818608E-02  0.1296473E+00
         -1   -1    0    0    0  501 -0.00000000000E+00  0.00000000000E+00  0.10526976404E+02  0.10526977440E+02  0.46700000000E-02 0.  1.
          1   -1    0    0  501    0  0.00000000000E+00 -0.00000000000E+00 -0.20401951291E+03  0.20401951296E+03  0.46700000000E-02 0. -1.
         23    2    1    2    0    0  0.00000000000E+00  0.00000000000E+00 -0.19349253650E+03  0.21454649040E+03  0.92686756665E+02 0.  0.
        -11    1    3    3    0    0 -0.76064651922E+01 -0.37834027263E+02 -0.15614275691E+03  0.16084101612E+03  0.51100000000E-03 0. -1.
         11    1    3    3    0    0  0.76064651922E+01  0.37834027263E+02 -0.37349779597E+02  0.53705474282E+02  0.51100000000E-03 0.  1.
<mgrwt>
<rscale>  0 0.92686757E+02</rscale>
<asrwt>0</asrwt>
<pdfrwt beam="2">  1        1 0.31387614E-01 0.92686757E+02</pdfrwt>
<pdfrwt beam="1">  1       -1 0.16195351E-02 0.92686757E+02</pdfrwt>
<totfact> 0.11373561E+05</totfact>
</mgrwt>
</event>
<event>
 5   1  0.1357339E+00  0.9052639E+02  0.7818608E-02  0.1301582E+00
         -1   -1    0    0    0  501 -0.00000000000E+00  0.00000000000E+00  0.69295278205E+02  0.69295278363E+02  0.46700000000E-02 0.  1.
          1   -1    0    0  501    0  0.00000000000E+00 -0.00000000000E+00 -0.29565604940E+02  0.29565605309E+02  0.46700000000E-02 0. -1.
         23    2    1    2    0    0  0.00000000000E+00  0.00000000000E+00  0.39729673265E+02  0.98860883672E+02  0.90526390531E+02 0.  0.
        -11    1    3    3    0    0 -0.13910916784E+02 -0.57156480953E+01  0.66486948392E+02  0.68166682079E+02  0.51100000000E-03 0.  1.
         11    1    3    3    0    0  0.13910916784E+02  0.57156480953E+01 -0.26757275127E+02  0.30694201593E+02  0.51100000000E-03 0. -1.
<mgrwt>
<rscale>  0 0.90526391E+02</rscale>
<asrwt>0</asrwt>
<pdfrwt beam="2">  1        1 0.45485547E-02 0.90526391E+02</pdfrwt>
<pdfrwt beam="1">  1       -1 0.10660812E-01 0.90526391E+02</pdfrwt>
<totfact> 0.88275840E+04</totfact>
</mgrwt>
</event>
<event>
 5   1  0.1357339E+00  0.9009366E+02  0.7818608E-02  0.1302625E+00
          1   -1    0    0  501    0  0.00000000000E+00  0.00000000000E+00  0.35137339203E+02  0.35137339513E+02  0.46700000000E-02 0. -1.
         -1   -1    0    0    0  501 -0.00000000000E+00 -0.00000000000E+00 -0.57751005497E+02  0.57751005686E+02  0.46700000000E-02 0.  1.
         23    2    1    2    0    0  0.00000000000E+00  0.00000000000E+00 -0.22613666295E+02  0.92888345199E+02  0.90093655551E+02 0.  0.
        -11    1    3    3    0    0 -0.42244447868E+02  0.15599749969E+02 -0.10144421669E+02  0.46161183542E+02  0.51100000000E-03 0.  1.
         11    1    3    3    0    0  0.42244447868E+02 -0.15599749969E+02 -0.12469244626E+02  0.46727161657E+02  0.51100000000E-03 0. -1.
<mgrwt>
<rscale>  0 0.90093656E+02</rscale>
<asrwt>0</asrwt>
<pdfrwt beam="1">  1        1 0.54057445E-02 0.90093656E+02</pdfrwt>
<pdfrwt beam="2">  1       -1 0.88847701E-02 0.90093656E+02</pdfrwt>
<totfact> 0.91945776E+04</totfact>
</mgrwt>
</event>
<event>
 5   1  0.1357339E+00  0.9227667E+02  0.7818608E-02  0.1297430E+00
          1   -1    0    0  501    0  0.00000000000E+00  0.00000000000E+00  0.43892881719E+02  0.43892881967E+02  0.46700000000E-02 0. -1.
         -1   -1    0    0    0  501 -0.00000000000E+00 -0.00000000000E+00 -0.48498659540E+02  0.48498659764E+02  0.46700000000E-02 0.  1.
         23    2    1    2    0    0  0.00000000000E+00  0.00000000000E+00 -0.46057778208E+01  0.92391541732E+02  0.92276669826E+02 0.  0.
        -11    1    3    3    0    0 -0.39497769241E+02  0.15530728787E+02  0.15815732779E+02  0.45292545913E+02  0.51100000000E-03 0.  1.
         11    1    3    3    0    0  0.39497769241E+02 -0.15530728787E+02 -0.20421510600E+02  0.47098995819E+02  0.51100000000E-03 0. -1.
<mgrwt>
<rscale>  0 0.92276670E+02</rscale>
<asrwt>0</asrwt>
<pdfrwt beam="1">  1        1 0.67527511E-02 0.92276670E+02</pdfrwt>
<pdfrwt beam="2">  1       -1 0.74613322E-02 0.92276670E+02</pdfrwt>
<totfact> 0.88891960E+04</totfact>
</mgrwt>
</event>
<event>
 5   1  0.1357339E+00  0.8876408E+02  0.7818608E-02  0.1305873E+00
          1   -1    0    0  501    0  0.00000000000E+00  0.00000000000E+00  0.94937772159E+01  0.94937783644E+01  0.46700000000E-02 0. -1.
         -1   -1    0    0    0  501 -0.00000000000E+00 -0.00000000000E+00 -0.20747962591E+03  0.20747962596E+03  0.46700000000E-02 0.  1.
         23    2    1    2    0    0  0.00000000000E+00  0.00000000000E+00 -0.19798584869E+03  0.21697340433E+03  0.88764080022E+02 0.  0.
        -11    1    3    3    0    0  0.34070784698E+02  0.11857357802E+02 -0.35799588903E+02  0.50823477546E+02  0.51100000000E-03 0. -1.
         11    1    3    3    0    0 -0.34070784698E+02 -0.11857357802E+02 -0.16218625979E+03  0.16614992678E+03  0.51100000000E-03 0.  1.
<mgrwt>
<rscale>  0 0.88764080E+02</rscale>
<asrwt>0</asrwt>
<pdfrwt beam="1">  1        1 0.14605814E-02 0.88764080E+02</pdfrwt>
<pdfrwt beam="2">  1       -1 0.31919939E-01 0.88764080E+02</pdfrwt>
<totfact> 0.73655252E+04</totfact>
</mgrwt>
</event>
<event>
 5   1  0.1357339E+00  0.9029340E+02  0.7818608E-02  0.1302143E+00
         -1   -1    0    0    0  501 -0.00000000000E+00  0.00000000000E+00  0.55232857973E+02  0.55232858170E+02  0.46700000000E-02 0.  1.
          1   -1    0    0  501    0  0.00000000000E+00 -0.00000000000E+00 -0.36902392377E+02  0.36902392672E+02  0.46700000000E-02 0. -1.
         23    2    1    2    0    0  0.00000000000E+00  0.00000000000E+00  0.18330465596E+02  0.92135250843E+02  0.90293402189E+02 0.  0.
        -11    1    3    3    0    0  0.16841130166E+02  0.39351715285E+02  0.23812250980E+02  0.48981674717E+02  0.51100000000E-03 0.  1.
         11    1    3    3    0    0 -0.16841130166E+02 -0.39351715285E+02 -0.54817853837E+01  0.43153576125E+02  0.51100000000E-03 0. -1.
<mgrwt>
<rscale>  0 0.90293402E+02</rscale>
<asrwt>0</asrwt>
<pdfrwt beam="2">  1        1 0.56772912E-02 0.90293402E+02</pdfrwt>
<pdfrwt beam="1">  1       -1 0.84973627E-02 0.90293402E+02</pdfrwt>
<totfact> 0.92057564E+04</totfact>
</mgrwt>
</event>
<event>
 5   1  0.1357339E+00  0.9068228E+02  0.7818608E-02  0.1301208E+00
          1   -1    0    0  501    0  0.00000000000E+00  0.00000000000E+00  0.14192389954E+02  0.14192390722E+02  0.46700000000E-02 0. -1.
         -1   -1    0    0    0  501 -0.00000000000E+00 -0.00000000000E+00 -0.14485362464E+03  0.14485362471E+03  0.46700000000E-02 0.  1.
         23    2    1    2    0    0  0.00000000000E+00  0.00000000000E+00 -0.13066123468E+03  0.15904601544E+03  0.90682284801E+02 0.  0.
        -11    1    3    3    0    0 -0.42399270564E+01  0.36031429781E+02 -0.11302776555E+03  0.11870769436E+03  0.51100000000E-03 0.  1.
         11    1    3    3    0    0  0.42399270564E+01 -0.36031429781E+02 -0.17633469132E+02  0.40338321078E+02  0.51100000000E-03 0. -1.
<mgrwt>
<rscale>  0 0.90682285E+02</rscale>
<asrwt>0</asrwt>
<pdfrwt beam="1">  1        1 0.21834448E-02 0.90682285E+02</pdfrwt>
<pdfrwt beam="2">  1       -1 0.22285172E-01 0.90682285E+02</pdfrwt>
<totfact> 0.76466255E+04</totfact>
</mgrwt>
</event>
<event>
 5   1  0.1357339E+00  0.9194032E+02  0.7818608E-02  0.1298220E+00
          1   -1    0    0  501    0  0.00000000000E+00  0.00000000000E+00  0.12794071074E+03  0.12794071082E+03  0.46700000000E-02 0. -1.
         -1   -1    0    0    0  501 -0.00000000000E+00 -0.00000000000E+00 -0.16517461045E+02  0.16517461705E+02  0.46700000000E-02 0.  1.
         23    2    1    2    0    0  0.00000000000E+00  0.00000000000E+00  0.11142324969E+03  0.14445817253E+03  0.91940323242E+02 0.  0.
        -11    1    3    3    0    0  0.21011982390E+02 -0.35438355216E+02  0.23669768282E+02  0.47514612018E+02  0.51100000000E-03 0. -1.
         11    1    3    3    0    0 -0.21011982390E+02  0.35438355216E+02  0.87753481409E+02  0.96943560509E+02  0.51100000000E-03 0.  1.
<mgrwt>
<rscale>  0 0.91940323E+02</rscale>
<asrwt>0</asrwt>
<pdfrwt beam="1">  1        1 0.19683186E-01 0.91940323E+02</pdfrwt>
<pdfrwt beam="2">  1       -1 0.25411479E-02 0.91940323E+02</pdfrwt>
<totfact> 0.10652185E+05</totfact>
</mgrwt>
</event>
<event>
 5   1  0.1357339E+00  0.7490349E+02  0.7818608E-02  0.1344170E+00
          1   -1    0    0  501    0  0.00000000000E+00  0.00000000000E+00  0.17518063173E+03  0.17518063179E+03  0.46700000000E-02 0. -1.
         -1   -1    0    0    0  501 -0.00000000000E+00 -0.00000000000E+00 -0.80067821635E+01  0.80067835254E+01  0.46700000000E-02 0.  1.
         23    2    1    2    0    0  0.00000000000E+00  0.00000000000E+00  0.16717384956E+03  0.18318741532E+03  0.74903492254E+02 0.  0.
        -11    1    3    3    0    0 -0.32182185037E+02  0.13373606791E+02  0.11712768003E+03  0.12220245424E+03  0.51100000000E-03 0. -1.
         11    1    3    3    0    0  0.32182185037E+02 -0.13373606791E+02  0.50046169536E+02  0.60984961079E+02  0.51100000000E-03 0.  1.
<mgrwt>
<rscale>  0 0.74903492E+02</rscale>
<asrwt>0</asrwt>
<pdfrwt beam="1">  1        1 0.26950865E-01 0.74903492E+02</pdfrwt>
<pdfrwt beam="2">  1       -1 0.12318128E-02 0.74903492E+02</pdfrwt>
<totfact> 0.19465884E+05</totfact>
</mgrwt>
</event>
<event>
 5   1  0.1357339E+00  0.9007764E+02  0.7818608E-02  0.1302664E+00
          1   -1    0    0  501    0  0.00000000000E+00  0.00000000000E+00  0.11126878124E+03  0.11126878134E+03  0.46700000000E-02 0. -1.
         -1   -1    0    0    0  501 -0.00000000000E+00 -0.00000000000E+00 -0.18230589039E+02  0.18230589638E+02  0.46700000000E-02 0.  1.
         23    2    1    2    0    0  0.00000000000E+00  0.00000000000E+00  0.93038192205E+02  0.12949937098E+03  0.90077643594E+02 0.  0.
        -11    1    3    3    0    0  0.18364445600E+02  0.87867743314E+01  0.10427643078E+03  0.10624516121E+03  0.51100000000E-03 0.  1.
         11    1    3    3    0    0 -0.18364445600E+02 -0.87867743314E+01 -0.11238238573E+02  0.23254209766E+02  0.51100000000E-03 0. -1.
<mgrwt>
<rscale>  0 0.90077644E+02</rscale>
<asrwt>0</asrwt>
<pdfrwt beam="1">  1        1 0.17118274E-01 0.90077644E+02</pdfrwt>
<pdfrwt beam="2">  1       -1 0.28047060E-02 0.90077644E+02</pdfrwt>
<totfact> 0.10990554E+05</totfact>
</mgrwt>
</event>
<event>
 5   1  0.1357339E+00  0.9130984E+02  0.7818608E-02  0.1299710E+00
          1   -1    0    0  501    0  0.00000000000E+00  0.00000000000E+00  0.21257668121E+02  0.21257668634E+02  0.46700000000E-02 0. -1.
         -1   -1    0    0    0  501 -0.00000000000E+00 -0.00000000000E+00 -0.98052705275E+02  0.98052705386E+02  0.46700000000E-02 0.  1.
         23    2    1    2    0    0  0.00000000000E+00  0.00000000000E+00 -0.76795037154E+02  0.11931037402E+03  0.91309844033E+02 0.  0.
        -11    1    3    3    0    0 -0.44243661504E+02 -0.16608492362E+01 -0.52954365644E+02  0.69024813252E+02  0.51100000000E-03 0.  1.
         11    1    3    3    0    0  0.44243661504E+02  0.16608492362E+01 -0.23840671510E+02  0.50285560768E+02  0.51100000000E-03 0. -1.
<mgrwt>
<rscale>  0 0.91309844E+02</rscale>
<asrwt>0</asrwt>
<pdfrwt beam="1">  1        1 0.32704106E-02 0.91309844E+02</pdfrwt>
<pdfrwt beam="2">  1       -1 0.15085031E-01 0.91309844E+02</pdfrwt>
<totfact> 0.81361163E+04</totfact>
</mgrwt>
</event>
<event>
 5   1  0.1357339E+00  0.9184898E+02  0.7818608E-02  0.1298435E+00
          1   -1    0    0  501    0  0.00000000000E+00  0.00000000000E+00  0.79718045048E+02  0.79718045184E+02  0.46700000000E-02 0. -1.
         -1   -1    0    0    0  501 -0.00000000000E+00 -0.00000000000E+00 -0.26456481143E+02  0.26456481555E+02  0.46700000000E-02 0.  1.
         23    2    1    2    0    0  0.00000000000E+00  0.00000000000E+00  0.53261563904E+02  0.10617452674E+03  0.91848984419E+02 0.  0.
        -11    1    3    3    0    0  0.10479514693E+02  0.16056803119E+02 -0.21608126115E+02  0.28888618331E+02  0.51100000000E-03 0.  1.
         11    1    3    3    0    0 -0.10479514693E+02 -0.16056803119E+02  0.74869690020E+02  0.77285908409E+02  0.51100000000E-03 0. -1.
<mgrwt>
<rscale>  0 0.91848984E+02</rscale>
<asrwt>0</asrwt>
<pdfrwt beam="1">  1        1 0.12264314E-01 0.91848984E+02</pdfrwt>
<pdfrwt beam="2">  1       -1 0.40702280E-02 0.91848984E+02</pdfrwt>
<totfact> 0.98675342E+04</totfact>
</mgrwt>
</event>
<event>
 5   1  0.1357339E+00  0.9385838E+02  0.7818608E-02  0.1293768E+00
         -1   -1    0    0    0  501 -0.00000000000E+00  0.00000000000E+00  0.14460143393E+02  0.14460144148E+02  0.46700000000E-02 0.  1.
          1   -1    0    0  501    0  0.00000000000E+00 -0.00000000000E+00 -0.15230478222E+03  0.15230478230E+03  0.46700000000E-02 0. -1.
         23    2    1    2    0    0  0.00000000000E+00  0.00000000000E+00 -0.13784463883E+03  0.16676492644E+03  0.93858383947E+02 0.  0.
        -11    1    3    3    0    0  0.10581806595E+02 -0.45357665838E+02 -0.79137842049E+02  0.91826415184E+02  0.51100000000E-03 0. -1.
         11    1    3    3    0    0 -0.10581806595E+02  0.45357665838E+02 -0.58706796781E+02  0.74938511258E+02  0.51100000000E-03 0.  1.
<mgrwt>
<rscale>  0 0.93858384E+02</rscale>
<asrwt>0</asrwt>
<pdfrwt beam="2">  1        1 0.23431504E-01 0.93858384E+02</pdfrwt>
<pdfrwt beam="1">  1       -1 0.22246376E-02 0.93858384E+02</pdfrwt>
<totfact> 0.10397224E+05</totfact>
</mgrwt>
</event>
<event>
 5   1  0.1357339E+00  0.9149054E+02  0.7818608E-02  0.1299282E+00
         -1   -1    0    0    0  501 -0.00000000000E+00  0.00000000000E+00  0.40563963877E+02  0.40563964146E+02  0.46700000000E-02 0.  1.
          1   -1    0    0  501    0  0.00000000000E+00 -0.00000000000E+00 -0.51588389218E+02  0.51588389430E+02  0.46700000000E-02 0. -1.
         23    2    1    2    0    0  0.00000000000E+00  0.00000000000E+00 -0.11024425341E+02  0.92152353576E+02  0.91490536753E+02 0.  0.
        -11    1    3    3    0    0 -0.20911093317E+02  0.34008425798E+02  0.16982785381E+02  0.43385041760E+02  0.51100000000E-03 0.  1.
         11    1    3    3    0    0  0.20911093317E+02 -0.34008425798E+02 -0.28007210722E+02  0.48767311815E+02  0.51100000000E-03 0. -1.
<mgrwt>
<rscale>  0 0.91490537E+02</rscale>
<asrwt>0</asrwt>
<pdfrwt beam="2">  1        1 0.79366753E-02 0.91490537E+02</pdfrwt>
<pdfrwt beam="1">  1       -1 0.62406099E-02 0.91490537E+02</pdfrwt>
<totfact> 0.93305083E+04</totfact>
</mgrwt>
</event>
<event>
 5   1  0.1357339E+00  0.9387420E+02  0.7818608E-02  0.1293732E+00
         -1   -1    0    0    0  501 -0.00000000000E+00  0.00000000000E+00  0.35257945288E+02  0.35257945597E+02  0.46700000000E-02 0.  1.
          1   -1    0    0  501    0  0.00000000000E+00 -0.00000000000E+00 -0.62484957195E+02  0.62484957370E+02  0.46700000000E-02 0. -1.
         23    2    1    2    0    0  0.00000000000E+00  0.00000000000E+00 -0.27227011907E+02  0.97742902967E+02  0.93874197217E+02 0.  0.
        -11    1    3    3    0    0 -0.11848403005E+02  0.12954798919E+02  0.31710660461E+02  0.36246068144E+02  0.51100000000E-03 0.  1.
         11    1    3    3    0    0  0.11848403005E+02 -0.12954798919E+02 -0.58937672368E+02  0.61496834823E+02  0.51100000000E-03 0. -1.
<mgrwt>
<rscale>  0 0.93874197E+02</rscale>
<asrwt>0</asrwt>
<pdfrwt beam="2">  1        1 0.96130704E-02 0.93874197E+02</pdfrwt>
<pdfrwt beam="1">  1       -1 0.54242993E-02 0.93874197E+02</pdfrwt>
<totfact> 0.89422402E+04</totfact>
</mgrwt>
</event>
<event>
 5   1  0.1357339E+00  0.1029903E+03  0.7818608E-02  0.1274130E+00
         -1   -1    0    0    0  501 -0.00000000000E+00  0.00000000000E+00  0.11628034590E+02  0.11628035528E+02  0.46700000000E-02 0.  1.
          1   -1    0    0  501    0  0.00000000000E+00 -0.00000000000E+00 -0.22804820398E+03  0.22804820402E+03  0.46700000000E-02 0. -1.
         23    2    1    2    0    0  0.00000000000E+00  0.00000000000E+00 -0.21642016939E+03  0.23967623955E+03  0.10299033978E+03 0.  0.
        -11    1    3    3    0    0  0.36382611366E+02  0.34412012344E+02 -0.80296481218E+02  0.94633006397E+02  0.51100000000E-03 0.  1.
         11    1    3    3    0    0 -0.36382611366E+02 -0.34412012344E+02 -0.13612368817E+03  0.14504323316E+03  0.51100000000E-03 0. -1.
<mgrwt>
<rscale>  0 0.10299034E+03</rscale>
<asrwt>0</asrwt>
<pdfrwt beam="2">  1        1 0.35084336E-01 0.10299034E+03</pdfrwt>
<pdfrwt beam="1">  1       -1 0.17889286E-02 0.10299034E+03</pdfrwt>
<totfact> 0.87478397E+04</totfact>
</mgrwt>
</event>
<event>
 5   1  0.1357339E+00  0.9235932E+02  0.7818608E-02  0.1297237E+00
          1   -1    0    0  501    0  0.00000000000E+00  0.00000000000E+00  0.93275790813E+02  0.93275790930E+02  0.46700000000E-02 0. -1.
         -1   -1    0    0    0  501 -0.00000000000E+00 -0.00000000000E+00 -0.22862961212E+02  0.22862961689E+02  0.46700000000E-02 0.  1.
         23    2    1    2    0    0  0.00000000000E+00  0.00000000000E+00  0.70412829600E+02  0.11613875262E+03  0.92359316193E+02 0.  0.
        -11    1    3    3    0    0 -0.24317238531E+02 -0.14997374258E+02  0.80828568750E+02  0.85729264845E+02  0.51100000000E-03 0. -1.
         11    1    3    3    0    0  0.24317238531E+02  0.14997374258E+02 -0.10415739149E+02  0.30409487774E+02  0.51100000000E-03 0.  1.
<mgrwt>
<rscale>  0 0.92359316E+02</rscale>
<asrwt>0</asrwt>
<pdfrwt beam="1">  1        1 0.14350122E-01 0.92359316E+02</pdfrwt>
<pdfrwt beam="2">  1       -1 0.35173787E-02 0.92359316E+02</pdfrwt>
<totfact> 0.99682120E+04</totfact>
</mgrwt>
</event>
<event>
 5   1  0.1357339E+00  0.9052884E+02  0.7818608E-02  0.1301576E+00
         -1   -1    0    0    0  501 -0.00000000000E+00  0.00000000000E+00  0.20033007341E+02  0.20033007885E+02  0.46700000000E-02 0.  1.
          1   -1    0    0  501    0  0.00000000000E+00 -0.00000000000E+00 -0.10227459461E+03  0.10227459472E+03  0.46700000000E-02 0. -1.
         23    2    1    2    0    0  0.00000000000E+00  0.00000000000E+00 -0.82241587271E+02  0.12230760260E+03  0.90528840587E+02 0.  0.
        -11    1    3    3    0    0  0.19608393207E+02  0.37606599030E+02 -0.19753832392E+02  0.46786314977E+02  0.51100000000E-03 0. -1.
         11    1    3    3    0    0 -0.19608393207E+02 -0.37606599030E+02 -0.62487754880E+02  0.75521287627E+02  0.51100000000E-03 0.  1.
<mgrwt>
<rscale>  0 0.90528841E+02</rscale>
<asrwt>0</asrwt>
<pdfrwt beam="2">  1        1 0.15734553E-01 0.90528841E+02</pdfrwt>
<pdfrwt beam="1">  1       -1 0.30820012E-02 0.90528841E+02</pdfrwt>
<totfact> 0.10689919E+05</totfact>
</mgrwt>
</event>
<event>
 5   1  0.1357339E+00  0.9514013E+02  0.7818608E-02  0.1290861E+00
          1   -1    0    0  501    0  0.00000000000E+00  0.00000000000E+00  0.15166863216E+03  0.15166863223E+03  0.46700000000E-02 0. -1.
         -1   -1    0    0    0  501 -0.00000000000E+00 -0.00000000000E+00 -0.14920098671E+02  0.14920099402E+02  0.46700000000E-02 0.  1.
         23    2    1    2    0    0  0.00000000000E+00  0.00000000000E+00  0.13674853349E+03  0.16658873163E+03  0.95140128737E+02 0.  0.
        -11    1    3    3    0    0  0.28925978770E+02 -0.37483958685E+02  0.60321341329E+02  0.76683920260E+02  0.51100000000E-03 0.  1.
         11    1    3    3    0    0 -0.28925978770E+02  0.37483958685E+02  0.76427192158E+02  0.89904811372E+02  0.51100000000E-03 0. -1.
<mgrwt>
<rscale>  0 0.95140129E+02</rscale>
<asrwt>0</asrwt>
<pdfrwt beam="1">  1        1 0.23333636E-01 0.95140129E+02</pdfrwt>
<pdfrwt beam="2">  1       -1 0.22953999E-02 0.95140129E+02</pdfrwt>
<totfact> 0.10014143E+05</totfact>
</mgrwt>
</event>
<event>
 5   1  0.1357339E+00  0.9241394E+02  0.7818608E-02  0.1297109E+00
          1   -1    0    0  501    0  0.00000000000E+00  0.00000000000E+00  0.24663889177E+03  0.24663889181E+03  0.46700000000E-02 0. -1.
         -1   -1    0    0    0  501 -0.00000000000E+00 -0.00000000000E+00 -0.86567210782E+01  0.86567223378E+01  0.46700000000E-02 0.  1.
         23    2    1    2    0    0  0.00000000000E+00  0.00000000000E+00  0.23798217069E+03  0.25529561415E+03  0.92413943959E+02 0.  0.
        -11    1    3    3    0    0  0.13242910059E+01 -0.45463573224E+02  0.14150081809E+03  0.14863099191E+03  0.51100000000E-03 0.  1.
         11    1    3    3    0    0 -0.13242910059E+01  0.45463573224E+02  0.96481352601E+02  0.10666462224E+03  0.51100000000E-03 0. -1.
<mgrwt>
<rscale>  0 0.92413944E+02</rscale>
<asrwt>0</asrwt>
<pdfrwt beam="1">  1        1 0.37944446E-01 0.92413944E+02</pdfrwt>
<pdfrwt beam="2">  1       -1 0.13318033E-02 0.92413944E+02</pdfrwt>
<totfact> 0.11897554E+05</totfact>
</mgrwt>
</event>
<event>
 5   1  0.1357339E+00  0.9294673E+02  0.7818608E-02  0.1295869E+00
          1   -1    0    0  501    0  0.00000000000E+00  0.00000000000E+00  0.36374189769E+02  0.36374190068E+02  0.46700000000E-02 0. -1.
         -1   -1    0    0    0  501 -0.00000000000E+00 -0.00000000000E+00 -0.59376542775E+02  0.59376542959E+02  0.46700000000E-02 0.  1.
         23    2    1    2    0    0  0.00000000000E+00  0.00000000000E+00 -0.23002353007E+02  0.95750733028E+02  0.92946730074E+02 0.  0.
        -11    1    3    3    0    0 -0.24467137742E+02  0.12908146706E+02 -0.49970912821E+02  0.57117013307E+02  0.51100000000E-03 0.  1.
         11    1    3    3    0    0  0.24467137742E+02 -0.12908146706E+02  0.26968559815E+02  0.38633719720E+02  0.51100000000E-03 0. -1.
<mgrwt>
<rscale>  0 0.92946730E+02</rscale>
<asrwt>0</asrwt>
<pdfrwt beam="1">  1        1 0.55960292E-02 0.92946730E+02</pdfrwt>
<pdfrwt beam="2">  1       -1 0.91348528E-02 0.92946730E+02</pdfrwt>
<totfact> 0.84596199E+04</totfact>
</mgrwt>
</event>
<event>
 5   1  0.1357339E+00  0.8503477E+02  0.7818608E-02  0.1315342E+00
          1   -1    0    0  501    0  0.00000000000E+00  0.00000000000E+00  0.49780741509E+02  0.49780741728E+02  0.46700000000E-02 0. -1.
         -1   -1    0    0    0  501 -0.00000000000E+00 -0.00000000000E+00 -0.36313801788E+02  0.36313802088E+02  0.46700000000E-02 0.  1.
         23    2    1    2    0    0  0.00000000000E+00  0.00000000000E+00  0.13466939721E+02  0.86094543816E+02  0.85034769415E+02 0.  0.
        -11    1    3    3    0    0  0.41956279762E+02 -0.63785276169E+01  0.41102382237E+01  0.42636945066E+02  0.51100000000E-03 0.  1.
         11    1    3    3    0    0 -0.41956279762E+02  0.63785276169E+01  0.93567014974E+01  0.43457598751E+02  0.51100000000E-03 0. -1.
<mgrwt>
<rscale>  0 0.85034769E+02</rscale>
<asrwt>0</asrwt>
<pdfrwt beam="1">  1        1 0.76585756E-02 0.85034769E+02</pdfrwt>
<pdfrwt beam="2">  1       -1 0.55867388E-02 0.85034769E+02</pdfrwt>
<totfact> 0.11373367E+05</totfact>
</mgrwt>
</event>
<event>
 5   1  0.1357339E+00  0.9188038E+02  0.7818608E-02  0.1298361E+00
          1   -1    0    0  501    0  0.00000000000E+00  0.00000000000E+00  0.13308484263E+03  0.13308484271E+03  0.46700000000E-02 0. -1.
         -1   -1    0    0    0  501 -0.00000000000E+00 -0.00000000000E+00 -0.15858311206E+02  0.15858311894E+02  0.46700000000E-02 0.  1.
         23    2    1    2    0    0  0.00000000000E+00  0.00000000000E+00  0.11722653142E+03  0.14894315461E+03  0.91880376764E+02 0.  0.
        -11    1    3    3    0    0 -0.11390097219E+02 -0.42585292200E+02  0.37648348385E+02  0.57971023475E+02  0.51100000000E-03 0.  1.
         11    1    3    3    0    0  0.11390097219E+02  0.42585292200E+02  0.79578183039E+02  0.90972131131E+02  0.51100000000E-03 0. -1.
<mgrwt>
<rscale>  0 0.91880377E+02</rscale>
<asrwt>0</asrwt>
<pdfrwt beam="1">  1        1 0.20474591E-01 0.91880377E+02</pdfrwt>
<pdfrwt beam="2">  1       -1 0.24397403E-02 0.91880377E+02</pdfrwt>
<totfact> 0.10746412E+05</totfact>
</mgrwt>
</event>
<event>
 5   1  0.1357339E+00  0.8873109E+02  0.7818608E-02  0.1305954E+00
          1   -1    0    0  501    0  0.00000000000E+00  0.00000000000E+00  0.62897593423E+02  0.62897593596E+02  0.46700000000E-02 0. -1.
         -1   -1    0    0    0  501 -0.00000000000E+00 -0.00000000000E+00 -0.31293747595E+02  0.31293747943E+02  0.46700000000E-02 0.  1.
         23    2    1    2    0    0  0.00000000000E+00  0.00000000000E+00  0.31603845828E+02  0.94191341539E+02  0.88731086716E+02 0.  0.
        -11    1    3    3    0    0  0.12406600423E+02 -0.12904375624E+02  0.58893724524E+02  0.61554182903E+02  0.51100000000E-03 0. -1.
         11    1    3    3    0    0 -0.12406600423E+02  0.12904375624E+02 -0.27289878697E+02  0.32637158636E+02  0.51100000000E-03 0.  1.
<mgrwt>
<rscale>  0 0.88731087E+02</rscale>
<asrwt>0</asrwt>
<pdfrwt beam="1">  1        1 0.96765526E-02 0.88731087E+02</pdfrwt>
<pdfrwt beam="2">  1       -1 0.48144229E-02 0.88731087E+02</pdfrwt>
<totfact> 0.10463034E+05</totfact>
</mgrwt>
</event>
<event>
 5   1  0.1357339E+00  0.9220307E+02  0.7818608E-02  0.1297603E+00
          1   -1    0    0  501    0  0.00000000000E+00  0.00000000000E+00  0.24232597672E+03  0.24232597677E+03  0.46700000000E-02 0. -1.
         -1   -1    0    0    0  501 -0.00000000000E+00 -0.00000000000E+00 -0.87706290412E+01  0.87706302845E+01  0.46700000000E-02 0.  1.
         23    2    1    2    0    0  0.00000000000E+00  0.00000000000E+00  0.23355534768E+03  0.25109660705E+03  0.92203067425E+02 0.  0.
        -11    1    3    3    0    0 -0.37270302926E+02 -0.24802919929E+02  0.14674524703E+03  0.15342238378E+03  0.51100000000E-03 0. -1.
         11    1    3    3    0    0  0.37270302926E+02  0.24802919929E+02  0.86810100647E+02  0.97674223273E+02  0.51100000000E-03 0.  1.
<mgrwt>
<rscale>  0 0.92203067E+02</rscale>
<asrwt>0</asrwt>
<pdfrwt beam="1">  1        1 0.37280924E-01 0.92203067E+02</pdfrwt>
<pdfrwt beam="2">  1       -1 0.13493275E-02 0.92203067E+02</pdfrwt>
<totfact> 0.11929346E+05</totfact>
</mgrwt>
</event>
<event>
 5   1  0.1357339E+00  0.8899441E+02  0.7818608E-02  0.1305305E+00
          1   -1    0    0  501    0  0.00000000000E+00  0.00000000000E+00  0.14892092005E+02  0.14892092737E+02  0.46700000000E-02 0. -1.
         -1   -1    0    0    0  501 -0.00000000000E+00 -0.00000000000E+00 -0.13295656428E+03  0.13295656436E+03  0.46700000000E-02 0.  1.
         23    2    1    2    0    0  0.00000000000E+00  0.00000000000E+00 -0.11806447227E+03  0.14784865709E+03  0.88994414387E+02 0.  0.
        -11    1    3    3    0    0  0.60889045030E+01 -0.41759542567E+02 -0.82472073357E+02  0.92642199011E+02  0.51100000000E-03 0.  1.
         11    1    3    3    0    0 -0.60889045030E+01  0.41759542567E+02 -0.35592398914E+02  0.55206458084E+02  0.51100000000E-03 0. -1.
<mgrwt>
<rscale>  0 0.88994414E+02</rscale>
<asrwt>0</asrwt>
<pdfrwt beam="1">  1        1 0.22910912E-02 0.88994414E+02</pdfrwt>
<pdfrwt beam="2">  1       -1 0.20454855E-01 0.88994414E+02</pdfrwt>
<totfact> 0.81821054E+04</totfact>
</mgrwt>
</event>
<event>
 5   1  0.1357339E+00  0.9058132E+02  0.7818608E-02  0.1301450E+00
         -1   -1    0    0    0  501 -0.00000000000E+00  0.00000000000E+00  0.12164167261E+03  0.12164167270E+03  0.46700000000E-02 0.  1.
          1   -1    0    0  501    0  0.00000000000E+00 -0.00000000000E+00 -0.16863003704E+02  0.16863004351E+02  0.46700000000E-02 0. -1.
         23    2    1    2    0    0  0.00000000000E+00  0.00000000000E+00  0.10477866891E+03  0.13850467705E+03  0.90581323171E+02 0.  0.
        -11    1    3    3    0    0 -0.50874346109E+01  0.19334865679E+02 -0.97502515299E+01  0.22243795245E+02  0.51100000000E-03 0. -1.
         11    1    3    3    0    0  0.50874346109E+01 -0.19334865679E+02  0.11452892044E+03  0.11626088181E+03  0.51100000000E-03 0.  1.
<mgrwt>
<rscale>  0 0.90581323E+02</rscale>
<asrwt>0</asrwt>
<pdfrwt beam="2">  1        1 0.25943083E-02 0.90581323E+02</pdfrwt>
<pdfrwt beam="1">  1       -1 0.18714104E-01 0.90581323E+02</pdfrwt>
<totfact> 0.79649360E+04</totfact>
</mgrwt>
</event>
<event>
 5   1  0.1357339E+00  0.9126109E+02  0.7818608E-02  0.1299826E+00
         -1   -1    0    0    0  501 -0.00000000000E+00  0.00000000000E+00  0.88904855167E+02  0.88904855290E+02  0.46700000000E-02 0.  1.
          1   -1    0    0  501    0  0.00000000000E+00 -0.00000000000E+00 -0.23419944665E+02  0.23419945130E+02  0.46700000000E-02 0. -1.
         23    2    1    2    0    0  0.00000000000E+00  0.00000000000E+00  0.65484910503E+02  0.11232480042E+03  0.91261094043E+02 0.  0.
        -11    1    3    3    0    0  0.24175284514E+02  0.16510277201E+02  0.75822693063E+02  0.81278006977E+02  0.51100000000E-03 0.  1.
         11    1    3    3    0    0 -0.24175284514E+02 -0.16510277201E+02 -0.10337782560E+02  0.31046793443E+02  0.51100000000E-03 0. -1.
<mgrwt>
<rscale>  0 0.91261094E+02</rscale>
<asrwt>0</asrwt>
<pdfrwt beam="2">  1        1 0.36030683E-02 0.91261094E+02</pdfrwt>
<pdfrwt beam="1">  1       -1 0.13677671E-01 0.91261094E+02</pdfrwt>
<totfact> 0.82924835E+04</totfact>
</mgrwt>
</event>
<event>
 5   1  0.1357339E+00  0.9544160E+02  0.7818608E-02  0.1290185E+00
          1   -1    0    0  501    0  0.00000000000E+00  0.00000000000E+00  0.73530722044E+02  0.73530722192E+02  0.46700000000E-02 0. -1.
         -1   -1    0    0    0  501 -0.00000000000E+00 -0.00000000000E+00 -0.30970387522E+02  0.30970387874E+02  0.46700000000E-02 0.  1.
         23    2    1    2    0    0  0.00000000000E+00  0.00000000000E+00  0.42560334522E+02  0.10450111007E+03  0.95441604819E+02 0.  0.
        -11    1    3    3    0    0  0.43790413154E+02  0.18382075375E+02  0.16170974236E+02  0.50169725804E+02  0.51100000000E-03 0. -1.
         11    1    3    3    0    0 -0.43790413154E+02 -0.18382075375E+02  0.26389360285E+02  0.54331384262E+02  0.51100000000E-03 0.  1.
<mgrwt>
<rscale>  0 0.95441605E+02</rscale>
<asrwt>0</asrwt>
<pdfrwt beam="1">  1        1 0.11312419E-01 0.95441605E+02</pdfrwt>
<pdfrwt beam="2">  1       -1 0.47646751E-02 0.95441605E+02</pdfrwt>
<totfact> 0.87619626E+04</totfact>
</mgrwt>
</event>
<event>
 5   1  0.1357339E+00  0.9146524E+02  0.7818608E-02  0.1299342E+00
          1   -1    0    0  501    0  0.00000000000E+00  0.00000000000E+00  0.26122001478E+02  0.26122001895E+02  0.46700000000E-02 0. -1.
         -1   -1    0    0    0  501 -0.00000000000E+00 -0.00000000000E+00 -0.80065549535E+02  0.80065549671E+02  0.46700000000E-02 0.  1.
         23    2    1    2    0    0  0.00000000000E+00  0.00000000000E+00 -0.53943548057E+02  0.10618755157E+03  0.91465237826E+02 0.  0.
        -11    1    3    3    0    0  0.44999387789E+01  0.12711113042E+02  0.23761687450E+02  0.27321047464E+02  0.51100000000E-03 0. -1.
         11    1    3    3    0    0 -0.44999387789E+01 -0.12711113042E+02 -0.77705235507E+02  0.78866504102E+02  0.51100000000E-03 0.  1.
<mgrwt>
<rscale>  0 0.91465238E+02</rscale>
<asrwt>0</asrwt>
<pdfrwt beam="1">  1        1 0.40187695E-02 0.91465238E+02</pdfrwt>
<pdfrwt beam="2">  1       -1 0.12317777E-01 0.91465238E+02</pdfrwt>
<totfact> 0.83956654E+04</totfact>
</mgrwt>
</event>
<event>
 5   1  0.1357339E+00  0.9394229E+02  0.7818608E-02  0.1293576E+00
          1   -1    0    0  501    0  0.00000000000E+00  0.00000000000E+00  0.20302645708E+02  0.20302646245E+02  0.46700000000E-02 0. -1.
         -1   -1    0    0    0  501 -0.00000000000E+00 -0.00000000000E+00 -0.10867000293E+03  0.10867000303E+03  0.46700000000E-02 0.  1.
         23    2    1    2    0    0  0.00000000000E+00  0.00000000000E+00 -0.88367357221E+02  0.12897264927E+03  0.93942293131E+02 0.  0.
        -11    1    3    3    0    0 -0.24438540754E+02 -0.17251168597E+02  0.55340476850E+01  0.30421551180E+02  0.51100000000E-03 0. -1.
         11    1    3    3    0    0  0.24438540754E+02  0.17251168597E+02 -0.93901404906E+02  0.98551098095E+02  0.51100000000E-03 0.  1.
<mgrwt>
<rscale>  0 0.93942293E+02</rscale>
<asrwt>0</asrwt>
<pdfrwt beam="1">  1        1 0.31234841E-02 0.93942293E+02</pdfrwt>
<pdfrwt beam="2">  1       -1 0.16718462E-01 0.93942293E+02</pdfrwt>
<totfact> 0.74145499E+04</totfact>
</mgrwt>
</event>
<event>
 5   1  0.1357339E+00  0.9322111E+02  0.7818608E-02  0.1295234E+00
         -1   -1    0    0    0  501 -0.00000000000E+00  0.00000000000E+00  0.53010296572E+02  0.53010296778E+02  0.46700000000E-02 0.  1.
          1   -1    0    0  501    0  0.00000000000E+00 -0.00000000000E+00 -0.40983428285E+02  0.40983428551E+02  0.46700000000E-02 0. -1.
         23    2    1    2    0    0  0.00000000000E+00  0.00000000000E+00  0.12026868287E+02  0.93993725328E+02  0.93221107268E+02 0.  0.
        -11    1    3    3    0    0  0.22608902542E+02  0.40583902568E+02  0.98300524252E+01  0.47485214043E+02  0.51100000000E-03 0.  1.
         11    1    3    3    0    0 -0.22608902542E+02 -0.40583902568E+02  0.21968158621E+01  0.46508511285E+02  0.51100000000E-03 0. -1.
<mgrwt>
<rscale>  0 0.93221107E+02</rscale>
<asrwt>0</asrwt>
<pdfrwt beam="2">  1        1 0.63051428E-02 0.93221107E+02</pdfrwt>
<pdfrwt beam="1">  1       -1 0.81554303E-02 0.93221107E+02</pdfrwt>
<totfact> 0.85465056E+04</totfact>
</mgrwt>
</event>
<event>
 5   1  0.1357339E+00  0.9412537E+02  0.7818608E-02  0.1293158E+00
         -1   -1    0    0    0  501 -0.00000000000E+00  0.00000000000E+00  0.14116318578E+03  0.14116318585E+03  0.46700000000E-02 0.  1.
          1   -1    0    0  501    0  0.00000000000E+00 -0.00000000000E+00 -0.15690324538E+02  0.15690325233E+02  0.46700000000E-02 0. -1.
         23    2    1    2    0    0  0.00000000000E+00  0.00000000000E+00  0.12547286124E+03  0.15685351109E+03  0.94125368698E+02 0.  0.
        -11    1    3    3    0    0 -0.28572896341E+02  0.23909548378E+02  0.11065378921E+03  0.11675760350E+03  0.51100000000E-03 0.  1.
         11    1    3    3    0    0  0.28572896341E+02 -0.23909548378E+02  0.14819072030E+02  0.40095907585E+02  0.51100000000E-03 0. -1.
<mgrwt>
<rscale>  0 0.94125369E+02</rscale>
<asrwt>0</asrwt>
<pdfrwt beam="2">  1        1 0.24138962E-02 0.94125369E+02</pdfrwt>
<pdfrwt beam="1">  1       -1 0.21717413E-01 0.94125369E+02</pdfrwt>
<totfact> 0.69822444E+04</totfact>
</mgrwt>
</event>
<event>
 5   1  0.1357339E+00  0.8952873E+02  0.7818608E-02  0.1303997E+00
          1   -1    0    0  501    0  0.00000000000E+00  0.00000000000E+00  0.87072908288E+02  0.87072908413E+02  0.46700000000E-02 0. -1.
         -1   -1    0    0    0  501 -0.00000000000E+00 -0.00000000000E+00 -0.23013455441E+02  0.23013455915E+02  0.46700000000E-02 0.  1.
         23    2    1    2    0    0  0.00000000000E+00  0.00000000000E+00  0.64059452846E+02  0.11008636433E+03  0.89528733443E+02 0.  0.
        -11    1    3    3    0    0 -0.26186260939E+02 -0.53327041396E+01 -0.12128725963E+02  0.29347299521E+02  0.51100000000E-03 0.  1.
         11    1    3    3    0    0  0.26186260939E+02  0.53327041396E+01  0.76188178809E+02  0.80739064807E+02  0.51100000000E-03 0. -1.
<mgrwt>
<rscale>  0 0.89528733E+02</rscale>
<asrwt>0</asrwt>
<pdfrwt beam="1">  1        1 0.13395832E-01 0.89528733E+02</pdfrwt>
<pdfrwt beam="2">  1       -1 0.35405316E-02 0.89528733E+02</pdfrwt>
<totfact> 0.10733094E+05</totfact>
</mgrwt>
</event>
<event>
 5   1  0.1357339E+00  0.9100529E+02  0.7818608E-02  0.1300435E+00
         -1   -1    0    0    0  501 -0.00000000000E+00  0.00000000000E+00  0.12359254278E+02  0.12359255160E+02  0.46700000000E-02 0.  1.
          1   -1    0    0  501    0  0.00000000000E+00 -0.00000000000E+00 -0.16752553969E+03  0.16752553976E+03  0.46700000000E-02 0. -1.
         23    2    1    2    0    0  0.00000000000E+00  0.00000000000E+00 -0.15516628542E+03  0.17988479492E+03  0.91005292776E+02 0.  0.
        -11    1    3    3    0    0 -0.30807732144E+02  0.85991676506E+01 -0.13611123882E+02  0.34760965719E+02  0.51100000000E-03 0.  1.
         11    1    3    3    0    0  0.30807732144E+02 -0.85991676506E+01 -0.14155516153E+03  0.14512382920E+03  0.51100000000E-03 0. -1.
<mgrwt>
<rscale>  0 0.91005293E+02</rscale>
<asrwt>0</asrwt>
<pdfrwt beam="2">  1        1 0.25773158E-01 0.91005293E+02</pdfrwt>
<pdfrwt beam="1">  1       -1 0.19014239E-02 0.91005293E+02</pdfrwt>
<totfact> 0.11504132E+05</totfact>
</mgrwt>
</event>
<event>
 5   1  0.1357339E+00  0.9343549E+02  0.7818608E-02  0.1294739E+00
         -1   -1    0    0    0  501 -0.00000000000E+00  0.00000000000E+00  0.37636191703E+02  0.37636191993E+02  0.46700000000E-02 0.  1.
          1   -1    0    0  501    0  0.00000000000E+00 -0.00000000000E+00 -0.57990665269E+02  0.57990665457E+02  0.46700000000E-02 0. -1.
         23    2    1    2    0    0  0.00000000000E+00  0.00000000000E+00 -0.20354473566E+02  0.95626857450E+02  0.93435492569E+02 0.  0.
        -11    1    3    3    0    0  0.56270034888E+01 -0.11544397907E+02  0.35794062640E+02  0.38028294884E+02  0.51100000000E-03 0.  1.
         11    1    3    3    0    0 -0.56270034888E+01  0.11544397907E+02 -0.56148536206E+02  0.57598562566E+02  0.51100000000E-03 0. -1.
<mgrwt>
<rscale>  0 0.93435493E+02</rscale>
<asrwt>0</asrwt>
<pdfrwt beam="2">  1        1 0.89216409E-02 0.93435493E+02</pdfrwt>
<pdfrwt beam="1">  1       -1 0.57901834E-02 0.93435493E+02</pdfrwt>
<totfact> 0.89559557E+04</totfact>
</mgrwt>
</event>
<event>
 5   1  0.1357339E+00  0.9305933E+02  0.7818608E-02  0.1295608E+00
         -1   -1    0    0    0  501 -0.00000000000E+00  0.00000000000E+00  0.10260917451E+02  0.10260918514E+02  0.46700000000E-02 0.  1.
          1   -1    0    0  501    0  0.00000000000E+00 -0.00000000000E+00 -0.21099570472E+03  0.21099570477E+03  0.46700000000E-02 0. -1.
         23    2    1    2    0    0  0.00000000000E+00  0.00000000000E+00 -0.20073478727E+03  0.22125662329E+03  0.93059328000E+02 0.  0.
        -11    1    3    3    0    0  0.43273743328E+02 -0.74678173411E+01 -0.13694086633E+03  0.14380954776E+03  0.51100000000E-03 0. -1.
         11    1    3    3    0    0 -0.43273743328E+02  0.74678173411E+01 -0.63793920946E+02  0.77447075525E+02  0.51100000000E-03 0.  1.
<mgrwt>
<rscale>  0 0.93059328E+02</rscale>
<asrwt>0</asrwt>
<pdfrwt beam="2">  1        1 0.32460875E-01 0.93059328E+02</pdfrwt>
<pdfrwt beam="1">  1       -1 0.15786029E-02 0.93059328E+02</pdfrwt>
<totfact> 0.11325787E+05</totfact>
</mgrwt>
</event>
<event>
 5   1  0.1357339E+00  0.9063128E+02  0.7818608E-02  0.1301330E+00
          1   -1    0    0  501    0  0.00000000000E+00  0.00000000000E+00  0.14446784743E+02  0.14446785498E+02  0.46700000000E-02 0. -1.
         -1   -1    0    0    0  501 -0.00000000000E+00 -0.00000000000E+00 -0.14214283890E+03  0.14214283898E+03  0.46700000000E-02 0.  1.
         23    2    1    2    0    0  0.00000000000E+00  0.00000000000E+00 -0.12769605416E+03  0.15658962447E+03  0.90631276311E+02 0.  0.
        -11    1    3    3    0    0 -0.24199688423E+02  0.73726438231E+01  0.11105985768E+01  0.25322208162E+02  0.51100000000E-03 0. -1.
         11    1    3    3    0    0  0.24199688423E+02 -0.73726438231E+01 -0.12880665273E+03  0.13126741631E+03  0.51100000000E-03 0.  1.
<mgrwt>
<rscale>  0 0.90631276E+02</rscale>
<asrwt>0</asrwt>
<pdfrwt beam="1">  1        1 0.22225824E-02 0.90631276E+02</pdfrwt>
<pdfrwt beam="2">  1       -1 0.21868128E-01 0.90631276E+02</pdfrwt>
<totfact> 0.76907501E+04</totfact>
</mgrwt>
</event>
<event>
 5   1  0.1357339E+00  0.9210369E+02  0.7818608E-02  0.1297836E+00
         -1   -1    0    0    0  501 -0.00000000000E+00  0.00000000000E+00  0.96797147021E+01  0.96797158286E+01  0.46700000000E-02 0.  1.
          1   -1    0    0  501    0  0.00000000000E+00 -0.00000000000E+00 -0.21909452416E+03  0.21909452421E+03  0.46700000000E-02 0. -1.
         23    2    1    2    0    0  0.00000000000E+00  0.00000000000E+00 -0.20941480946E+03  0.22877424004E+03  0.92103694197E+02 0.  0.
        -11    1    3    3    0    0  0.43099768414E+01 -0.43154160172E+02 -0.66234149301E+02  0.79169564698E+02  0.51100000000E-03 0.  1.
         11    1    3    3    0    0 -0.43099768414E+01  0.43154160172E+02 -0.14318066015E+03  0.14960467534E+03  0.51100000000E-03 0. -1.
<mgrwt>
<rscale>  0 0.92103694E+02</rscale>
<asrwt>0</asrwt>
<pdfrwt beam="2">  1        1 0.33706846E-01 0.92103694E+02</pdfrwt>
<pdfrwt beam="1">  1       -1 0.14891871E-02 0.92103694E+02</pdfrwt>
<totfact> 0.11730194E+05</totfact>
</mgrwt>
</event>
<event>
 5   1  0.1357339E+00  0.9295845E+02  0.7818608E-02  0.1295841E+00
          1   -1    0    0  501    0  0.00000000000E+00  0.00000000000E+00  0.42960613195E+02  0.42960613449E+02  0.46700000000E-02 0. -1.
         -1   -1    0    0    0  501 -0.00000000000E+00 -0.00000000000E+00 -0.50286023152E+02  0.50286023368E+02  0.46700000000E-02 0.  1.
         23    2    1    2    0    0  0.00000000000E+00  0.00000000000E+00 -0.73254099567E+01  0.93246636817E+02  0.92958451185E+02 0.  0.
        -11    1    3    3    0    0  0.42078523671E+02 -0.66862163496E+01  0.14969344234E+02  0.45159593780E+02  0.51100000000E-03 0. -1.
         11    1    3    3    0    0 -0.42078523671E+02  0.66862163496E+01 -0.22294754190E+02  0.48087043037E+02  0.51100000000E-03 0.  1.
<mgrwt>
<rscale>  0 0.92958451E+02</rscale>
<asrwt>0</asrwt>
<pdfrwt beam="1">  1        1 0.66093251E-02 0.92958451E+02</pdfrwt>
<pdfrwt beam="2">  1       -1 0.77363113E-02 0.92958451E+02</pdfrwt>
<totfact> 0.86778195E+04</totfact>
</mgrwt>
</event>
<event>
 5   1  0.1357339E+00  0.8980546E+02  0.7818608E-02  0.1303323E+00
         -1   -1    0    0    0  501 -0.00000000000E+00  0.00000000000E+00  0.51859634911E+02  0.51859635122E+02  0.46700000000E-02 0.  1.
          1   -1    0    0  501    0  0.00000000000E+00 -0.00000000000E+00 -0.38879084877E+02  0.38879085158E+02  0.46700000000E-02 0. -1.
         23    2    1    2    0    0  0.00000000000E+00  0.00000000000E+00  0.12980550034E+02  0.90738720279E+02  0.89805460183E+02 0.  0.
        -11    1    3    3    0    0 -0.17941748274E+02  0.30160789322E+02 -0.21812889027E+02  0.41320475211E+02  0.51100000000E-03 0. -1.
         11    1    3    3    0    0  0.17941748274E+02 -0.30160789322E+02  0.34793439062E+02  0.49418245069E+02  0.51100000000E-03 0.  1.
<mgrwt>
<rscale>  0 0.89805460E+02</rscale>
<asrwt>0</asrwt>
<pdfrwt beam="2">  1        1 0.59813977E-02 0.89805460E+02</pdfrwt>
<pdfrwt beam="1">  1       -1 0.79784054E-02 0.89805460E+02</pdfrwt>
<totfact> 0.94217954E+04</totfact>
</mgrwt>
</event>
